   * xtb version 6.7.1 (edcfbbe) compiled by 'albert@albert-system' on 2024-07-22

   ID    Z sym.   atoms
    1    6 C      1-5, 7-11, 13-29, 31-39, 41-48, 50-60, 62-68, 70, 71
    2    7 N      6, 12, 30, 40, 69
    3    8 O      49
    4   16 S      61
    5    1 H      72-108

          program call               : xtb data2507/toluene/BTPBFCz-D3/BTPBFCz-D3_toluene_S0_finalOpt.xtbopt.xyz --gfn 2 --uhf 2 --gbsa toluene --ohess vtight --parallel 40 --molden --ceasefiles --namespace data2507/toluene/BTPBFCz-D3/BTPBFCz-D3_toluene_T1_preOpt
      * Solvation model:               GBSA
        Solvent                        toluene
        Solvent mass                       9.2140E+01 g/mol
          :  Hamiltonian                  GFN2-xTB          :
 * total energy  :  -178.0261216 Eh     change       -0.1662661E-06 Eh
 * total energy  :  -178.0297138 Eh     change       -0.3592262E-02 Eh
 * total energy  :  -178.0309334 Eh     change       -0.1219582E-02 Eh
 * total energy  :  -178.0311218 Eh     change       -0.1884041E-03 Eh
 * total energy  :  -178.0313982 Eh     change       -0.2763956E-03 Eh
 * total energy  :  -178.0315079 Eh     change       -0.1096740E-03 Eh
 * total energy  :  -178.0316248 Eh     change       -0.1168885E-03 Eh
 * total energy  :  -178.0317205 Eh     change       -0.9570556E-04 Eh
 * total energy  :  -178.0318127 Eh     change       -0.9226012E-04 Eh
 * total energy  :  -178.0319058 Eh     change       -0.9311154E-04 Eh
 * total energy  :  -178.0346050 Eh     change       -0.2421496E-05 Eh
 * total energy  :  -178.0346075 Eh     change       -0.2485167E-05 Eh
 * total energy  :  -178.0346100 Eh     change       -0.2491808E-05 Eh
 * total energy  :  -178.0346123 Eh     change       -0.2320918E-05 Eh
 * total energy  :  -178.0346143 Eh     change       -0.1981034E-05 Eh
 * total energy  :  -178.0346158 Eh     change       -0.1524775E-05 Eh
 * total energy  :  -178.0346170 Eh     change       -0.1188953E-05 Eh
 * total energy  :  -178.0346179 Eh     change       -0.9453489E-06 Eh
 * total energy  :  -178.0346179 Eh     change       -0.9304472E-08 Eh
   *** GEOMETRY OPTIMIZATION CONVERGED AFTER 94 ITERATIONS ***

 final structure:
================
108
 xtb: 6.7.1 (edcfbbe)
C           -7.22332896298395        1.53204046180282       -0.73650652523909
C           -7.16400390157889        0.15229697667584       -0.61871223939740
C           -6.02220640985396       -0.52608182934788       -0.99998221028644
C           -4.92298040462974        0.17341754823650       -1.49044572878704
C           -3.69622450266007       -0.55038120315195       -1.83208248342462
N           -2.55282906668653        0.08296858317275       -1.72103108653145
C           -1.35124177959395       -0.53981447592888       -1.89107835255893
C           -0.17065086620867        0.14958080223004       -1.47871778255101
C            1.10680325664942       -0.16191013023546       -1.99186400723717
C            2.22802746444304        0.52775046538225       -1.61510065704195
C            2.13846337581044        1.57673591669038       -0.68864807923622
N            3.29106902850459        2.28500784118472       -0.31619421847533
C            3.47690719369800        3.63451860735927       -0.57891313946737
C            2.56878297791250        4.57676097756278       -1.03125784066279
C            3.02181970689094        5.86981476318348       -1.23063395565648
C            4.34898220179682        6.21599202101854       -0.99495823507817
C            5.26535125083224        5.27269110714238       -0.56701631761891
C            4.83036249916079        3.97032540882398       -0.35955450145089
C            5.48991837908266        2.75908053881014        0.03791092717486
C            6.82845953824060        2.48297441395499        0.29950238916381
C            7.20597255854453        1.19676842564291        0.62048606047500
C            6.21635446353408        0.21980940026857        0.74429266637006
C            4.83921301745366        0.46118654052284        0.51022619894202
C            4.15731950743511       -0.76997911884368        0.80984156157685
C            2.82339917050231       -1.15357422417918        0.91853122111518
C            2.52668341428951       -2.45270781196371        1.27895075796961
C            3.53120618197618       -3.37744386186153        1.56218221606854
C            4.86089647587708       -3.01538146388602        1.51244127105643
C            5.16604677383621       -1.71243803327357        1.13772764725522
N            6.39458814026211       -1.10089604345086        1.09163057476194
C            7.62498620307082       -1.72193279225210        1.37357338790812
C            8.46551486711451       -1.20238806206511        2.35317666401758
C            9.67433657777429       -1.81971464546255        2.62010472898821
C           10.04695782853188       -2.95756774245116        1.92289849513816
C            9.20629985764459       -3.47923257643885        0.95289479323214
C            7.99912631134144       -2.86472355565233        0.67322188880786
C            4.49107993458774        1.74692292632669        0.07736968992854
C            0.89218578267610        1.91797340271493       -0.16980620905415
C           -0.24326865483492        1.21883418508955       -0.53593353129396
N           -1.46192457674772        1.57296722603060        0.06439591233741
C           -2.03496006925222        2.82340605965110        0.01244650799079
C           -1.60054780354945        3.96868946640161       -0.64186570530343
C           -2.37886199778044        5.10596383332779       -0.54081636599747
C           -3.56912635370831        5.10882472047321        0.18537508433358
C           -4.02462995293046        3.96485767585666        0.81543143136881
C           -3.25829660069914        2.81263209373359        0.72383945526412
C           -3.42090047855326        1.47329506251459        1.20922798775251
C           -4.40637901075815        0.78013897904640        1.89124027150243
O           -5.60274497477689        1.25408123023000        2.32366895698939
C           -6.24520027756131        0.19286487499811        2.89581973450786
C           -7.50516103340878        0.20578372679538        3.46341523688937
C           -7.97638703988834       -0.98659112627728        3.98748057840099
C           -7.21212010215454       -2.14988329995067        3.94510914517253
C           -5.95140857275794       -2.15985030303985        3.38014841587645
C           -5.45683742992848       -0.97488510183379        2.84793479838788
C           -4.24005608520824       -0.58779734129256        2.18770515373089
C           -3.06785759302731       -1.26116331974121        1.83683804063439
C           -2.07752987555900       -0.59279631776026        1.15095654245001
C           -2.27863637351657        0.74423204948115        0.80398035483723
C           -1.40243952941845       -1.87486041060747       -2.34841115110868
S           -0.10433010233885       -2.99157551385225       -2.68926267678905
C           -1.24601411403608       -4.27766711638988       -3.03406159710334
C           -0.93768896344192       -5.57047637855459       -3.40882985458963
C           -1.97969925072989       -6.45051146177953       -3.65009685084488
C           -3.30618928470612       -6.03796594223154       -3.51702726821293
C           -3.61517241933173       -4.75009934114425       -3.14162578042035
C           -2.57917307923137       -3.84212952668119       -2.89510524462608
C           -2.65888291974566       -2.48090493866714       -2.48884313249769
N           -3.80351142769300       -1.81660508937974       -2.21359054156319
C           -4.98891754965998        1.55824167106865       -1.60842567996652
C           -6.13745748816849        2.23149149478387       -1.23820359684463
H           -8.11590601598404        2.06099174650407       -0.43631843322720
H           -8.00774141328818       -0.39554468173424       -0.22450454966221
H           -5.95877864388346       -1.60075603769856       -0.91248031217954
H            1.19721562877872       -0.93997046257668       -2.73192145065686
H            3.18920810403817        0.27624564318807       -2.03634296111481
H            1.54284341100579        4.31236872434833       -1.23101939316653
H            2.33079046242914        6.62318350271741       -1.57864356504771
H            4.66631165505929        7.23519519463141       -1.15824213598903
H            6.29776149284908        5.53978440089085       -0.40034525230006
H            7.56349963642256        3.26933346669624        0.23131058216357
H            8.24231816159064        0.94702262629786        0.78289767056888
H            2.02704427281865       -0.45027314790418        0.74578848254789
H            1.49377234174451       -2.75850703786995        1.35739709840344
H            3.26175033368488       -4.38395559301619        1.84581008677535
H            5.64075207886836       -3.71410376441227        1.77395490047845
H            8.16052216256917       -0.32811677914941        2.90885948103193
H           10.32397359088019       -1.41412814289317        3.38138098941486
H           10.98996471655979       -3.43792476662943        2.13614786087227
H            9.49351521144752       -4.36506180460492        0.40613854812102
H            7.34662448290530       -3.25693078896602       -0.09278809329451
H            0.81374908267466        2.70329729547315        0.56828532000051
H           -0.69201901448360        3.96409619708931       -1.22336233036707
H           -2.06071231585449        6.01029327739762       -1.03777515535666
H           -4.14777065194987        6.01856833716071        0.24440019893638
H           -4.95518209329276        3.95395784705175        1.36158895016198
H           -8.09104569292536        1.11069310296328        3.48949761242567
H           -8.95738037317258       -1.01386046649413        4.43720363655587
H           -7.61538863618859       -3.06034535839354        4.36280372686024
H           -5.36128467865125       -3.06290046111196        3.34795750651374
H           -2.94642972578906       -2.30156097550044        2.09627349080660
H           -1.16937514946172       -1.09865951908492        0.86039416541159
H            0.09116728182042       -5.88132676984330       -3.50820718317326
H           -1.76144136886788       -7.46578253721534       -3.94438452098849
H           -4.10114417069849       -6.74249558807817       -3.71312163959458
H           -4.63650411798797       -4.41775792891307       -3.03538144642035
H           -4.13375877667177        2.09228042708557       -1.99474102305283
H           -6.18245445451998        3.30612073846115       -1.33434140084750

          :  Hamiltonian                  GFN2-xTB          :
         :: gradient norm              0.000071383052 Eh/a0 ::
         :: HOMO-LUMO gap              0.602293622146 eV    ::
         :: SCC energy              -181.247176489138 Eh    ::
         :: -> dispersion             -0.185701421758 Eh    ::
         :: -> Gsolv                  -0.070777650992 Eh    ::
         :: repulsion energy           3.212558559915 Eh    ::

    * Orbital Energies and Occupations

         #    Occupation            Energy/Eh            Energy/eV
      -------------------------------------------------------------
         1        2.0000           -0.7396061             -20.1257
       ...           ...                  ...                  ...
       154        2.0000           -0.4055105             -11.0345
       155        2.0000           -0.4039765             -10.9928
       156        2.0000           -0.4003883             -10.8951
       157        2.0000           -0.3986277             -10.8472
       158        2.0000           -0.3945938             -10.7374
       159        2.0000           -0.3917150             -10.6591
       160        2.0000           -0.3814436             -10.3796
       161        2.0000           -0.3761582             -10.2358
       162        2.0000           -0.3723204             -10.1314
       163        1.9967           -0.3682299             -10.0200
       164        1.8024           -0.3641457              -9.9089
       165        1.2010           -0.3615027              -9.8370
       166        1.0000           -0.2865366              -7.7971 (HOMO)
       167        0.0000           -0.2644027              -7.1948 (LUMO)
       168                         -0.2577619              -7.0141
       169                         -0.2548048              -6.9336
       170                         -0.2473557              -6.7309
       171                         -0.2458811              -6.6908
       172                         -0.2400841              -6.5330
       173                         -0.2378203              -6.4714
       174                         -0.2357077              -6.4139
       175                         -0.2355198              -6.4088
       176                         -0.2290107              -6.2317
       177                         -0.2258161              -6.1448
       ...                                ...                  ...
       326                          0.7590559              20.6550
      -------------------------------------------------------------
                  HL-Gap            0.0221339 Eh            0.6023 eV

     #   Z          covCN         q      C6AA      α(0)
     1   6 C        2.920    -0.026    28.642     8.776
     2   6 C        2.918    -0.029    28.717     8.788
     3   6 C        2.925    -0.029    28.719     8.788
     4   6 C        2.985    -0.001    28.049     8.688
     5   6 C        2.905     0.194    23.874     8.012
     6   7 N        1.854    -0.273    27.940     7.834
     7   6 C        2.937     0.072    26.395     8.426
     8   6 C        2.971    -0.015    28.379     8.738
     9   6 C        2.920    -0.043    29.071     8.842
    10   6 C        2.916    -0.040    28.986     8.829
    11   6 C        2.912     0.047    26.941     8.511
    12   7 N        2.801    -0.027    21.763     6.929
    13   6 C        3.079     0.045    26.918     8.506
    14   6 C        2.910    -0.046    29.137     8.851
    15   6 C        2.924    -0.033    28.814     8.803
    16   6 C        2.920    -0.038    28.956     8.824
    17   6 C        2.913    -0.032    28.786     8.798
    18   6 C        3.062    -0.014    28.310     8.725
    19   6 C        3.069    -0.020    28.431     8.743
    20   6 C        2.914    -0.034    28.852     8.808
    21   6 C        2.912    -0.052    29.301     8.876
    22   6 C        3.081     0.044    26.925     8.507
    23   6 C        3.051    -0.036    28.835     8.807
    24   6 C        3.062    -0.012    28.259     8.717
    25   6 C        2.913    -0.036    28.892     8.814
    26   6 C        2.919    -0.036    28.891     8.814
    27   6 C        2.923    -0.032    28.802     8.801
    28   6 C        2.910    -0.048    29.199     8.861
    29   6 C        3.082     0.047    26.852     8.495
    30   7 N        2.803    -0.027    21.757     6.928
    31   6 C        2.914     0.062    26.606     8.458
    32   6 C        2.921    -0.040    28.984     8.829
    33   6 C        2.920    -0.026    28.657     8.779
    34   6 C        2.919    -0.030    28.739     8.791
    35   6 C        2.920    -0.026    28.654     8.778
    36   6 C        2.922    -0.039    28.975     8.827
    37   6 C        3.058     0.047    26.882     8.503
    38   6 C        2.921    -0.056    29.384     8.889
    39   6 C        2.913     0.050    26.869     8.500
    40   7 N        2.807    -0.005    21.363     6.865
    41   6 C        3.083     0.051    26.767     8.481
    42   6 C        2.910    -0.043    29.068     8.841
    43   6 C        2.922    -0.032    28.805     8.801
    44   6 C        2.921    -0.034    28.847     8.808
    45   6 C        2.911    -0.030    28.744     8.791
    46   6 C        3.064    -0.006    28.107     8.694
    47   6 C        3.065    -0.037    28.861     8.809
    48   6 C        3.098     0.127    25.106     8.211
    49   8 O        1.714    -0.233    17.862     5.706
    50   6 C        3.103     0.126    25.126     8.214
    51   6 C        2.908    -0.052    29.291     8.874
    52   6 C        2.926    -0.033    28.816     8.803
    53   6 C        2.920    -0.038    28.946     8.823
    54   6 C        2.913    -0.034    28.855     8.808
    55   6 C        3.059    -0.019    28.418     8.742
    56   6 C        3.051    -0.031    28.727     8.790
    57   6 C        2.915    -0.040    28.984     8.828
    58   6 C        2.911    -0.051    29.273     8.872
    59   6 C        3.075     0.057    26.636     8.462
    60   6 C        2.986     0.012    27.749     8.641
    61  16 S        2.220    -0.132   146.586    20.377
    62   6 C        3.005     0.030    27.325     8.575
    63   6 C        2.932    -0.041    29.017     8.834
    64   6 C        2.923    -0.039    28.969     8.826
    65   6 C        2.917    -0.036    28.886     8.813
    66   6 C        2.915    -0.035    28.875     8.812
    67   6 C        3.113    -0.020    28.338     8.721
    68   6 C        3.104     0.085    25.983     8.353
    69   7 N        1.842    -0.309    28.869     7.963
    70   6 C        2.924    -0.028    28.696     8.785
    71   6 C        2.919    -0.027    28.683     8.782
    72   1 H        0.926     0.043     2.414     2.430
    73   1 H        0.926     0.037     2.483     2.464
    74   1 H        0.926     0.037     2.489     2.467
    75   1 H        0.926     0.047     2.355     2.400
    76   1 H        0.926     0.044     2.401     2.423
    77   1 H        0.926     0.033     2.546     2.495
    78   1 H        0.926     0.037     2.494     2.470
    79   1 H        0.926     0.035     2.513     2.479
    80   1 H        0.926     0.038     2.471     2.458
    81   1 H        0.926     0.044     2.390     2.418
    82   1 H        0.926     0.043     2.407     2.426
    83   1 H        0.926     0.030     2.591     2.517
    84   1 H        0.926     0.025     2.653     2.547
    85   1 H        0.926     0.035     2.517     2.481
    86   1 H        0.926     0.038     2.477     2.461
    87   1 H        0.926     0.046     2.365     2.405
    88   1 H        0.926     0.045     2.383     2.414
    89   1 H        0.926     0.044     2.402     2.424
    90   1 H        0.926     0.044     2.392     2.419
    91   1 H        0.926     0.045     2.386     2.415
    92   1 H        0.926     0.047     2.357     2.401
    93   1 H        0.926     0.037     2.487     2.466
    94   1 H        0.926     0.044     2.400     2.423
    95   1 H        0.926     0.042     2.418     2.431
    96   1 H        0.926     0.043     2.407     2.426
    97   1 H        0.926     0.050     2.324     2.384
    98   1 H        0.926     0.048     2.347     2.396
    99   1 H        0.926     0.044     2.395     2.420
   100   1 H        0.926     0.041     2.441     2.443
   101   1 H        0.926     0.041     2.430     2.438
   102   1 H        0.926     0.030     2.593     2.518
   103   1 H        0.926     0.038     2.476     2.460
   104   1 H        0.926     0.038     2.479     2.462
   105   1 H        0.926     0.036     2.500     2.473
   106   1 H        0.926     0.036     2.496     2.471
   107   1 H        0.926     0.037     2.490     2.468
   108   1 H        0.926     0.042     2.427     2.436

molecular dipole:
                 x           y           z       tot (Debye)
 q only:        3.159       1.022       1.656
   full:        3.124       0.630       1.497       8.949

 projected vibrational frequencies (cm⁻¹)
eigval :       -0.00    -0.00    -0.00     0.00     0.00     0.00
eigval :        6.02     8.42    11.86    18.90    19.78    28.80
eigval :       33.63    36.95    40.89    41.70    48.71    57.35
eigval :       63.23    64.72    65.72    68.56    71.23    81.15
eigval :       89.41    96.05   105.27   114.44   122.45   125.57
eigval :      131.08   137.61   145.49   154.95   161.65   164.94
eigval :      175.80   194.16   208.34   216.88   221.00   228.04
eigval :      233.71   237.75   241.07   249.52   260.15   261.40
eigval :      271.32   288.24   295.22   305.99   314.67   319.83
eigval :      331.01   346.11   354.14   374.15   375.09   379.77
eigval :      381.43   387.87   393.56   395.67   407.98   409.08
eigval :      413.20   414.27   419.99   426.53   435.80   436.97
eigval :      441.49   451.51   455.29   468.27   472.00   475.99
eigval :      489.28   500.24   505.95   512.88   523.22   532.39
eigval :      536.12   541.86   543.43   547.06   552.82   555.54
eigval :      561.97   565.83   579.81   585.66   586.80   591.80
eigval :      596.80   598.00   600.81   607.44   612.30   619.62
eigval :      620.65   623.82   641.71   645.57   651.35   657.15
eigval :      664.18   666.44   674.24   674.82   676.42   678.77
eigval :      680.86   686.33   695.25   698.32   701.41   702.64
eigval :      708.20   708.88   723.18   757.04   764.30   764.87
eigval :      766.46   770.25   772.11   773.07   776.66   807.55
eigval :      812.41   817.34   825.98   830.37   838.11   842.52
eigval :      844.50   857.03   859.83   862.68   865.95   868.17
eigval :      871.50   878.45   879.16   880.34   885.17   890.92
eigval :      893.39   895.92   896.46   898.83   901.90   902.60
eigval :      904.88   906.30   907.12   909.33   914.42   915.75
eigval :      916.16   918.13   921.15   924.09   929.59   932.00
eigval :      932.61   934.84   954.90   975.62   990.11   992.34
eigval :     1000.04  1006.22  1033.63  1041.89  1060.89  1061.42
eigval :     1064.67  1068.00  1068.63  1076.20  1077.65  1080.15
eigval :     1083.43  1093.09  1099.96  1111.33  1116.69  1121.80
eigval :     1135.12  1135.76  1140.08  1142.94  1145.80  1161.70
eigval :     1164.75  1168.95  1170.91  1173.47  1177.71  1178.50
eigval :     1178.80  1180.77  1181.47  1182.13  1185.78  1194.93
eigval :     1198.12  1200.39  1206.32  1215.09  1220.34  1228.98
eigval :     1231.33  1234.29  1243.24  1251.73  1256.76  1271.51
eigval :     1272.61  1272.95  1281.28  1286.06  1296.29  1299.98
eigval :     1303.06  1304.50  1314.21  1315.67  1325.46  1327.15
eigval :     1334.64  1340.95  1343.38  1345.02  1347.08  1351.17
eigval :     1352.62  1357.86  1364.33  1385.43  1387.99  1392.21
eigval :     1394.31  1398.87  1406.99  1407.60  1410.40  1415.60
eigval :     1423.54  1429.06  1431.07  1432.23  1438.11  1446.54
eigval :     1454.07  1455.58  1469.10  1471.91  1472.82  1475.08
eigval :     1478.17  1479.45  1481.29  1486.61  1540.11  1543.91
eigval :     1553.93  1556.39  1561.27  1571.59  1574.95  1577.96
eigval :     1581.16  1583.98  1585.00  1585.64  1587.84  1590.02
eigval :     1590.67  1594.54  1596.09  1602.38  1617.02  3072.95
eigval :     3076.44  3076.48  3078.10  3078.30  3079.34  3079.71
eigval :     3079.72  3081.44  3083.87  3084.65  3084.80  3084.99
eigval :     3085.38  3085.90  3087.02  3087.87  3089.20  3090.10
eigval :     3092.68  3093.18  3093.59  3094.51  3095.03  3095.19
eigval :     3095.69  3096.12  3096.65  3097.86  3098.44  3099.33
eigval :     3100.57  3104.68  3105.03  3106.30  3115.72  3133.49

   temp. (K)  partition function   enthalpy   heat capacity  entropy
                                   cal/mol     cal/K/mol   cal/K/mol   J/K/mol
 298.15  VIB  0.920E+25            32084.374    204.903    199.594
         ROT  0.216E+09              888.752      2.981     41.118
         INT  0.199E+34            32973.126    207.884    240.713
         TR   0.272E+29             1481.254      4.968     46.325
         TOT                       34454.3802   212.8525   287.0376  1200.9655

       T/K    H(0)-H(T)+PV         H(T)/Eh          T*S/Eh         G(T)/Eh
   ------------------------------------------------------------------------
    298.15    0.549065E-01    0.856603E+00    0.136381E+00    0.720223E+00
   ------------------------------------------------------------------------

         :::::::::::::::::::::::::::::::::::::::::::::::::::::
         ::                  THERMODYNAMIC                  ::
         :::::::::::::::::::::::::::::::::::::::::::::::::::::
         :: total free energy        -177.314395392114 Eh   ::
         ::.................................................::
         :: total energy             -178.034617924490 Eh   ::
         :: zero point energy           0.801696831512 Eh   ::
         :: G(RRHO) w/o ZPVE           -0.081474299136 Eh   ::
         :: G(RRHO) contrib.            0.720222532377 Eh   ::
         :::::::::::::::::::::::::::::::::::::::::::::::::::::

           -------------------------------------------------
          | TOTAL ENERGY             -178.034617924490 Eh   |
          | TOTAL ENTHALPY           -177.178014543131 Eh   |
          | TOTAL FREE ENERGY        -177.314395392114 Eh   |
          | GRADIENT NORM               0.000071531497 Eh/α |
          | HOMO-LUMO GAP               0.602294773914 eV   |
           -------------------------------------------------

 * finished run on 2025/09/13 at 06:55:51.325
