   * xtb version 6.7.1 (edcfbbe) compiled by 'albert@albert-system' on 2024-07-22

   ID    Z sym.   atoms
    1    6 C      1-5, 7-11, 13-29, 31-39, 41-48, 50-60, 62-68, 70, 71
    2    7 N      6, 12, 30, 40, 69
    3    8 O      49
    4   16 S      61
    5    1 H      72-108

          program call               : xtb data2507/toluene/BTPBFCz-D3/BTPBFCz-D3.xyz --gfn 2 --gbsa toluene --ohess vtight --parallel 40 --molden --ceasefiles --namespace data2507/toluene/BTPBFCz-D3/BTPBFCz-D3_toluene_S0_preOpt
      * Solvation model:               GBSA
        Solvent                        toluene
        Solvent mass                       9.2140E+01 g/mol
          :  Hamiltonian                  GFN2-xTB          :
 * total energy  :  -178.0549280 Eh     change       -0.7607980E-08 Eh
 * total energy  :  -178.0827904 Eh     change       -0.2786236E-01 Eh
 * total energy  :  -178.0918586 Eh     change       -0.9068270E-02 Eh
 * total energy  :  -178.0955052 Eh     change       -0.3646535E-02 Eh
 * total energy  :  -178.0985339 Eh     change       -0.3028749E-02 Eh
 * total energy  :  -178.1004983 Eh     change       -0.1964334E-02 Eh
 * total energy  :  -178.1018176 Eh     change       -0.1319324E-02 Eh
 * total energy  :  -178.1026693 Eh     change       -0.8517436E-03 Eh
 * total energy  :  -178.1031779 Eh     change       -0.5085687E-03 Eh
 * total energy  :  -178.1035255 Eh     change       -0.3476076E-03 Eh
 * total energy  :  -178.1082686 Eh     change       -0.8049497E-06 Eh
 * total energy  :  -178.1082691 Eh     change       -0.4956414E-06 Eh
 * total energy  :  -178.1082694 Eh     change       -0.3282063E-06 Eh
 * total energy  :  -178.1082698 Eh     change       -0.3537350E-06 Eh
 * total energy  :  -178.1082702 Eh     change       -0.4242319E-06 Eh
 * total energy  :  -178.1082707 Eh     change       -0.4867885E-06 Eh
 * total energy  :  -178.1082712 Eh     change       -0.5374813E-06 Eh
 * total energy  :  -178.1082718 Eh     change       -0.6110774E-06 Eh
 * total energy  :  -178.1082718 Eh     change       -0.6695672E-08 Eh
   *** GEOMETRY OPTIMIZATION CONVERGED AFTER 122 ITERATIONS ***

 final structure:
================
108
 xtb: 6.7.1 (edcfbbe)
C           -7.29899237686920        1.80840031210294       -2.11564233838467
C           -7.36331092660287        0.43776361910863       -1.91703124537317
C           -6.20220742258644       -0.30799077229029       -1.85241523439496
C           -4.96159702363391        0.31492654154486       -1.97960994331855
C           -3.73118310108230       -0.46792087721554       -1.86878496091097
N           -2.59126833338233        0.21067691564662       -1.73778549082926
C           -1.45510885039978       -0.44473868695184       -1.55417577071316
C           -0.24629194099486        0.33025524602913       -1.24000304673724
C            0.96992158656572        0.03478589560255       -1.84717631051290
C            2.11008162715813        0.74386278285916       -1.53338308769196
C            2.05960923036106        1.76357820062595       -0.58303683126762
N            3.22628051840544        2.46033048554536       -0.25575398358068
C            3.40076065424360        3.82122049711759       -0.46527330532568
C            2.46072153186217        4.80257774662466       -0.73512758940776
C            2.90997221067449        6.09722292700298       -0.92033407894651
C            4.26498517956509        6.41071943661667       -0.85093739865449
C            5.20844790109969        5.43201064972652       -0.60741409526657
C            4.77841545275690        4.12511914319352       -0.41527767093441
C            5.46445421326822        2.88684680270296       -0.17332601084412
C            6.82322981224049        2.58099288908248       -0.09384111003865
C            7.21453314936979        1.27936128393170        0.11835456872911
C            6.23245339064019        0.30951002094032        0.32338351545634
C            4.84186797340193        0.58210844378707        0.27325295438263
C            4.17537297669291       -0.64998892582849        0.60413102637896
C            2.85815357929651       -1.01324213668080        0.87232798382781
C            2.57762868751026       -2.32078399092382        1.21396361087678
C            3.58679041852970       -3.27459943022720        1.31942258183020
C            4.90816474950201       -2.93381981897007        1.11280629410419
C            5.19462724648731       -1.62210599964174        0.76071854178355
N            6.42373930876735       -1.02881268224348        0.58601620142673
C            7.66581108756529       -1.67689904016930        0.71223654385355
C            8.61416331858880       -1.20672552294793        1.61513001372857
C            9.83281346983352       -1.85077638485790        1.73164482366817
C           10.10887208183387       -2.96860275557376        0.96120017435971
C            9.16183339599557       -3.44166451008815        0.06764210609643
C            7.94434886140720       -2.79819415258125       -0.06286842456300
C            4.47163334106565        1.88889545334664       -0.05922652884267
C            0.84828857061567        2.07601343031500        0.02714642943218
C           -0.29942077807265        1.36540962726445       -0.29293315020139
N           -1.50644875871395        1.66380723586212        0.36220887908965
C           -2.22885196132761        2.83073660488046        0.19263397632231
C           -1.85327574514054        4.02268985374717       -0.40672613790690
C           -2.78068620680179        5.04699870244583       -0.44397828504818
C           -4.05650856679392        4.89260017747206        0.09525385035102
C           -4.44587684829220        3.70014140364481        0.67213188464540
C           -3.52899714229971        2.65815998896428        0.71776214647620
C           -3.59153431861652        1.30877170396694        1.19502316380758
C           -4.56861410766137        0.48850933585735        1.73902521556663
O           -5.86576791206572        0.80562743903722        1.99667470595242
C           -6.44466183466280       -0.33418413504770        2.47805650562342
C           -7.76503143832824       -0.48612475423417        2.85907112433642
C           -8.15219285864872       -1.73358659765471        3.31802621687619
C           -7.24964154720903       -2.79150171973139        3.39236451443254
C           -5.93077084709959       -2.63761876595802        3.01062608825702
C           -5.51875201178874       -1.39441675231209        2.54679093112053
C           -4.27845882837043       -0.84950147164978        2.06208629286923
C           -2.99535003742183       -1.37053373034032        1.88124914120040
C           -2.00933307066345       -0.57629561458716        1.33858598253429
C           -2.32314569313842        0.73100224734220        0.96443960804872
C           -1.45941333423523       -1.83945214973485       -1.58711121867104
S           -0.14896131426920       -2.96145609180198       -1.36176464423983
C           -1.26352756978932       -4.31437124098780       -1.47418861916850
C           -0.92460606504612       -5.65519470127815       -1.38835000247479
C           -1.93360474242129       -6.59336093901484       -1.49920745125472
C           -3.25805136230524       -6.20514910898384       -1.69243990806577
C           -3.59573234876511       -4.87060272146322       -1.77868322306289
C           -2.59321067758365       -3.90984080422183       -1.67177036712131
C           -2.70891201852659       -2.47773124532730       -1.73077510651136
N           -3.83524520916896       -1.79297846011918       -1.85728288774702
C           -4.90383714185220        1.69270579068576       -2.18134759017522
C           -6.06853950778021        2.43214937838841       -2.25106136428741
H           -8.20795895956830        2.38991703708477       -2.16344792623274
H           -8.32138859974708       -0.04939815822134       -1.80861870065413
H           -6.23414655615780       -1.37441396733707       -1.68969927711492
H            1.01536567520557       -0.74472100536246       -2.59241283757604
H            3.04738572556335        0.50978579126279       -2.01290053418418
H            1.41010541518886        4.56951055372171       -0.80677292846279
H            2.19446395822916        6.88004830420565       -1.12517446928259
H            4.57857275416593        7.43378837682386       -0.99809270434401
H            6.26003370097222        5.67331409078036       -0.56823712420352
H            7.55754189309307        3.36204901282239       -0.21547335711077
H            8.25875074192306        1.00947281375112        0.13722500084084
H            2.06324937752623       -0.28683390300770        0.84330587648948
H            1.55635561684526       -2.60882162644388        1.41603784164923
H            3.33355942604875       -4.28852253842727        1.59221201993514
H            5.69776568859357       -3.65842745240058        1.24243948795705
H            8.38649681211441       -0.34640379493003        2.22711701210709
H           10.56648575873018       -1.48212919843768        2.43327706552944
H           11.05978557917936       -3.47066407580542        1.05787621509403
H            9.37369906901110       -4.31189634950668       -0.53601355180738
H            7.20748538299756       -3.15306861508047       -0.76829892605087
H            0.80438743950453        2.84283100852633        0.78584968671004
H           -0.87408131117891        4.14342553326132       -0.84366333463521
H           -2.51100392247847        5.98644330872930       -0.90367794462783
H           -4.75174446814398        5.71765280815903        0.05022366273034
H           -5.43791337452970        3.56560542834323        1.07542358657300
H           -8.45713182186710        0.33851567888363        2.79647002910233
H           -9.17579181329477       -1.88833733096712        3.62391649514323
H           -7.59049910714942       -3.74959610227457        3.75559444201337
H           -5.23303322787853       -3.45923145571143        3.06742665685966
H           -2.78470498092689       -2.39197629169398        2.15972068459332
H           -1.00997367177512       -0.95975682414390        1.19174368617409
H            0.10232235663507       -5.94960293203625       -1.23820309677807
H           -1.68953642593645       -7.64291441411033       -1.43525380989048
H           -4.02621793027718       -6.95875318606334       -1.77474508389265
H           -4.61420545845284       -4.54821021480215       -1.92805410999868
H           -3.93920562649155        2.16610312806710       -2.27678806640773
H           -6.01632486062953        3.49949704097926       -2.40567385120780

          :  Hamiltonian                  GFN2-xTB          :
         :: gradient norm              0.000059848374 Eh/a0 ::
         :: HOMO-LUMO gap              1.774084864516 eV    ::
         :: SCC energy              -181.331653253903 Eh    ::
         :: -> dispersion             -0.185691199344 Eh    ::
         :: -> Gsolv                  -0.069297838806 Eh    ::
         :: repulsion energy           3.223381408183 Eh    ::

    * Orbital Energies and Occupations

         #    Occupation            Energy/Eh            Energy/eV
      -------------------------------------------------------------
         1        2.0000           -0.7439030             -20.2426
       ...           ...                  ...                  ...
       153        2.0000           -0.4106423             -11.1741
       154        2.0000           -0.4102029             -11.1622
       155        2.0000           -0.4090502             -11.1308
       156        2.0000           -0.4041172             -10.9966
       157        2.0000           -0.3973403             -10.8122
       158        2.0000           -0.3951500             -10.7526
       159        2.0000           -0.3884906             -10.5714
       160        2.0000           -0.3859253             -10.5016
       161        2.0000           -0.3791408             -10.3169
       162        2.0000           -0.3762363             -10.2379
       163        2.0000           -0.3676181             -10.0034
       164        2.0000           -0.3644531              -9.9173
       165        2.0000           -0.3585320              -9.7562 (HOMO)
       166                         -0.2933355              -7.9821 (LUMO)
       167                         -0.2794266              -7.6036
       168                         -0.2593415              -7.0570
       169                         -0.2535091              -6.8983
       170                         -0.2494448              -6.7877
       171                         -0.2479850              -6.7480
       172                         -0.2449726              -6.6660
       173                         -0.2446547              -6.6574
       174                         -0.2370015              -6.4491
       175                         -0.2333849              -6.3507
       176                         -0.2320997              -6.3158
       ...                                ...                  ...
       326                          0.7605975              20.6969
      -------------------------------------------------------------
                  HL-Gap            0.0651965 Eh            1.7741 eV

     #   Z          covCN         q      C6AA      α(0)
     1   6 C        2.920    -0.024    28.607     8.771
     2   6 C        2.918    -0.028    28.699     8.785
     3   6 C        2.924    -0.028    28.709     8.787
     4   6 C        2.985    -0.003    28.094     8.695
     5   6 C        2.949     0.192    23.911     8.020
     6   7 N        1.852    -0.294    28.470     7.908
     7   6 C        2.967     0.121    25.332     8.256
     8   6 C        2.979    -0.013    28.335     8.732
     9   6 C        2.922    -0.028    28.693     8.784
    10   6 C        2.921    -0.040    28.993     8.830
    11   6 C        2.914     0.075    26.321     8.413
    12   7 N        2.801    -0.044    22.097     6.982
    13   6 C        3.071     0.044    26.939     8.510
    14   6 C        2.910    -0.051    29.271     8.872
    15   6 C        2.924    -0.036    28.891     8.815
    16   6 C        2.920    -0.041    29.021     8.834
    17   6 C        2.913    -0.036    28.888     8.813
    18   6 C        3.067    -0.015    28.317     8.726
    19   6 C        3.066    -0.028    28.626     8.773
    20   6 C        2.916    -0.037    28.919     8.818
    21   6 C        2.911    -0.061    29.511     8.908
    22   6 C        3.079     0.045    26.918     8.506
    23   6 C        3.053    -0.038    28.903     8.817
    24   6 C        3.061    -0.018    28.405     8.740
    25   6 C        2.913    -0.039    28.958     8.824
    26   6 C        2.919    -0.041    29.030     8.836
    27   6 C        2.923    -0.035    28.869     8.811
    28   6 C        2.910    -0.052    29.286     8.874
    29   6 C        3.080     0.046    26.874     8.499
    30   7 N        2.803    -0.042    22.047     6.974
    31   6 C        2.914     0.064    26.575     8.453
    32   6 C        2.922    -0.041    29.016     8.833
    33   6 C        2.920    -0.028    28.689     8.783
    34   6 C        2.919    -0.032    28.795     8.800
    35   6 C        2.920    -0.028    28.691     8.784
    36   6 C        2.922    -0.041    29.020     8.834
    37   6 C        3.060     0.042    27.000     8.521
    38   6 C        2.923    -0.056    29.387     8.890
    39   6 C        2.916     0.073    26.367     8.420
    40   7 N        2.804    -0.046    22.120     6.985
    41   6 C        3.082     0.054    26.706     8.472
    42   6 C        2.910    -0.049    29.218     8.864
    43   6 C        2.924    -0.033    28.824     8.804
    44   6 C        2.921    -0.039    28.980     8.828
    45   6 C        2.912    -0.032    28.798     8.800
    46   6 C        3.066    -0.011    28.214     8.710
    47   6 C        3.064    -0.039    28.892     8.814
    48   6 C        3.097     0.122    25.204     8.228
    49   8 O        1.714    -0.239    17.963     5.722
    50   6 C        3.101     0.124    25.154     8.219
    51   6 C        2.908    -0.053    29.320     8.879
    52   6 C        2.926    -0.034    28.851     8.809
    53   6 C        2.920    -0.039    28.964     8.826
    54   6 C        2.913    -0.036    28.897     8.815
    55   6 C        3.059    -0.020    28.455     8.748
    56   6 C        3.051    -0.036    28.850     8.809
    57   6 C        2.916    -0.042    29.045     8.838
    58   6 C        2.911    -0.063    29.559     8.915
    59   6 C        3.079     0.055    26.681     8.469
    60   6 C        2.990    -0.001    28.052     8.688
    61  16 S        2.195    -0.099   145.169    20.279
    62   6 C        3.005     0.039    27.112     8.541
    63   6 C        2.933    -0.036    28.900     8.816
    64   6 C        2.924    -0.024    28.594     8.769
    65   6 C        2.919    -0.030    28.754     8.793
    66   6 C        2.916    -0.023    28.590     8.768
    67   6 C        3.101    -0.015    28.263     8.712
    68   6 C        3.112     0.108    25.477     8.269
    69   7 N        1.841    -0.298    28.565     7.921
    70   6 C        2.924    -0.026    28.660     8.779
    71   6 C        2.918    -0.027    28.677     8.782
    72   1 H        0.926     0.046     2.367     2.406
    73   1 H        0.926     0.043     2.406     2.425
    74   1 H        0.926     0.046     2.372     2.409
    75   1 H        0.926     0.050     2.316     2.380
    76   1 H        0.926     0.057     2.238     2.339
    77   1 H        0.926     0.027     2.635     2.539
    78   1 H        0.926     0.032     2.561     2.503
    79   1 H        0.926     0.030     2.584     2.514
    80   1 H        0.926     0.033     2.549     2.497
    81   1 H        0.926     0.036     2.503     2.474
    82   1 H        0.926     0.034     2.536     2.490
    83   1 H        0.926     0.018     2.768     2.602
    84   1 H        0.926     0.020     2.734     2.586
    85   1 H        0.926     0.030     2.583     2.513
    86   1 H        0.926     0.032     2.556     2.500
    87   1 H        0.926     0.043     2.414     2.430
    88   1 H        0.926     0.042     2.428     2.437
    89   1 H        0.926     0.041     2.440     2.443
    90   1 H        0.926     0.041     2.429     2.437
    91   1 H        0.926     0.042     2.422     2.434
    92   1 H        0.926     0.061     2.191     2.315
    93   1 H        0.926     0.031     2.579     2.511
    94   1 H        0.926     0.039     2.458     2.452
    95   1 H        0.926     0.037     2.491     2.468
    96   1 H        0.926     0.036     2.498     2.472
    97   1 H        0.926     0.047     2.353     2.399
    98   1 H        0.926     0.046     2.364     2.405
    99   1 H        0.926     0.043     2.406     2.426
   100   1 H        0.926     0.038     2.469     2.457
   101   1 H        0.926     0.035     2.511     2.478
   102   1 H        0.926     0.021     2.711     2.575
   103   1 H        0.926     0.053     2.281     2.362
   104   1 H        0.926     0.056     2.245     2.343
   105   1 H        0.926     0.053     2.278     2.360
   106   1 H        0.926     0.054     2.265     2.354
   107   1 H        0.926     0.045     2.381     2.413
   108   1 H        0.926     0.044     2.401     2.423

molecular dipole:
                 x           y           z       tot (Debye)
 q only:        1.262      -1.077      -0.169
   full:        1.398      -1.389      -0.224       5.041

 projected vibrational frequencies (cm⁻¹)
eigval :       -0.00    -0.00    -0.00    -0.00     0.00     0.00
eigval :        2.35     8.43    10.21    15.42    16.30    27.30
eigval :       33.44    37.67    37.77    44.73    49.84    57.16
eigval :       59.32    62.60    63.60    66.90    71.12    78.95
eigval :       87.89    92.51   101.38   114.57   122.39   124.59
eigval :      135.09   138.45   142.83   158.32   165.87   168.10
eigval :      182.69   202.18   211.04   216.23   220.43   229.11
eigval :      235.19   241.75   246.88   256.75   262.27   266.37
eigval :      273.54   286.99   297.28   313.70   318.95   320.41
eigval :      329.78   349.72   355.34   372.33   377.28   378.34
eigval :      381.40   394.14   395.65   403.42   407.87   409.09
eigval :      416.36   420.16   427.09   435.65   438.42   441.07
eigval :      442.33   449.53   461.84   473.35   474.49   479.50
eigval :      493.11   503.02   507.49   515.30   531.09   535.81
eigval :      539.04   543.47   550.89   556.50   560.55   564.60
eigval :      568.85   578.25   587.18   588.04   594.49   598.05
eigval :      605.21   607.31   615.10   617.85   619.30   624.43
eigval :      629.87   637.23   646.74   661.38   666.28   669.21
eigval :      676.18   676.82   678.45   680.18   686.88   689.38
eigval :      697.29   698.90   701.20   701.66   707.62   709.19
eigval :      712.27   726.52   731.65   758.75   768.26   769.97
eigval :      773.78   774.90   776.26   777.11   778.32   823.32
eigval :      824.26   826.66   831.83   837.64   842.66   845.32
eigval :      857.07   859.93   861.20   868.08   868.58   869.82
eigval :      875.53   879.11   879.68   881.04   892.19   897.18
eigval :      899.26   901.48   901.84   903.78   904.15   907.06
eigval :      908.53   910.90   914.30   916.25   916.47   919.03
eigval :      919.27   921.62   924.57   925.58   931.41   932.36
eigval :      932.67   933.55   971.51   979.29   993.78  1002.45
eigval :     1008.00  1009.41  1041.13  1061.22  1063.60  1066.94
eigval :     1069.43  1071.54  1072.06  1077.35  1077.59  1085.03
eigval :     1093.30  1100.64  1102.37  1113.09  1114.72  1127.58
eigval :     1138.59  1141.55  1144.89  1147.12  1149.09  1164.83
eigval :     1171.28  1173.66  1173.66  1176.37  1178.11  1178.52
eigval :     1179.64  1180.88  1183.57  1185.63  1194.36  1198.81
eigval :     1201.67  1205.18  1212.54  1222.44  1227.09  1232.77
eigval :     1238.84  1239.99  1247.30  1259.14  1262.55  1271.69
eigval :     1273.26  1276.34  1285.75  1301.46  1302.67  1306.87
eigval :     1308.49  1312.92  1314.89  1325.98  1327.99  1334.77
eigval :     1338.36  1345.45  1351.72  1356.07  1359.53  1361.50
eigval :     1363.03  1377.81  1393.82  1394.69  1400.39  1402.81
eigval :     1406.16  1413.75  1417.20  1423.71  1428.24  1433.09
eigval :     1433.42  1434.76  1446.34  1457.16  1460.09  1464.02
eigval :     1471.10  1473.72  1476.91  1479.34  1481.37  1483.01
eigval :     1485.54  1503.76  1515.78  1544.73  1564.10  1568.13
eigval :     1569.99  1574.54  1577.41  1581.22  1581.88  1581.97
eigval :     1583.55  1588.71  1591.64  1592.54  1595.23  1596.19
eigval :     1601.77  1605.76  1607.38  1608.36  1626.96  3071.72
eigval :     3073.40  3074.08  3075.50  3076.45  3076.96  3078.48
eigval :     3080.18  3080.45  3080.45  3081.97  3083.61  3086.70
eigval :     3086.99  3087.35  3089.04  3090.00  3090.47  3090.94
eigval :     3091.10  3091.15  3091.41  3091.57  3094.02  3095.39
eigval :     3097.44  3097.77  3098.17  3099.31  3100.04  3101.63
eigval :     3102.10  3104.92  3106.50  3107.14  3108.04  3121.59

   temp. (K)  partition function   enthalpy   heat capacity  entropy
                                   cal/mol     cal/K/mol   cal/K/mol   J/K/mol
 298.15  VIB  0.361E+26            31851.561    202.999    199.763
         ROT  0.206E+09              888.752      2.981     41.027
         INT  0.746E+34            32740.313    205.980    240.790
         TR   0.272E+29             1481.254      4.968     46.325
         TOT                       34221.5669   210.9485   287.1147  1201.2879

       T/K    H(0)-H(T)+PV         H(T)/Eh          T*S/Eh         G(T)/Eh
   ------------------------------------------------------------------------
    298.15    0.545355E-01    0.860069E+00    0.136417E+00    0.723652E+00
   ------------------------------------------------------------------------

         :::::::::::::::::::::::::::::::::::::::::::::::::::::
         ::                  THERMODYNAMIC                  ::
         :::::::::::::::::::::::::::::::::::::::::::::::::::::
         :: total free energy        -177.384620328957 Eh   ::
         ::.................................................::
         :: total energy             -178.108271846945 Eh   ::
         :: zero point energy           0.805533432345 Eh   ::
         :: G(RRHO) w/o ZPVE           -0.081881914357 Eh   ::
         :: G(RRHO) contrib.            0.723651517987 Eh   ::
         :::::::::::::::::::::::::::::::::::::::::::::::::::::

           -------------------------------------------------
          | TOTAL ENERGY             -178.108271846945 Eh   |
          | TOTAL ENTHALPY           -177.248202876353 Eh   |
          | TOTAL FREE ENERGY        -177.384620328957 Eh   |
          | GRADIENT NORM               0.000059843158 Eh/α |
          | HOMO-LUMO GAP               1.774086159102 eV   |
           -------------------------------------------------

 * finished run on 2025/09/13 at 06:46:13.305
