   * xtb version 6.7.1 (edcfbbe) compiled by 'albert@albert-system' on 2024-07-22

   ID    Z sym.   atoms
    1    6 C      1-5, 7-11, 13-29, 31-39, 41-48, 50-60, 62-68, 70, 71
    2    7 N      6, 12, 30, 40, 69
    3    8 O      49
    4   16 S      61
    5    1 H      72-108

          program call               : xtb data2507/toluene/BTPBFCz-D3/BTPBFCz-D3_toluene_S0_crest.xyz --gfn 2 --gbsa toluene --ohess vtight --parallel 40 --molden --ceasefiles --namespace data2507/toluene/BTPBFCz-D3/BTPBFCz-D3_toluene_S0_finalOpt
      * Solvation model:               GBSA
        Solvent                        toluene
        Solvent mass                       9.2140E+01 g/mol
          :  Hamiltonian                  GFN2-xTB          :
 * total energy  :  -178.1075451 Eh     change       -0.2275300E-08 Eh
 * total energy  :  -178.1076371 Eh     change       -0.9198431E-04 Eh
 * total energy  :  -178.1077196 Eh     change       -0.8248167E-04 Eh
 * total energy  :  -178.1077614 Eh     change       -0.4182239E-04 Eh
 * total energy  :  -178.1078238 Eh     change       -0.6240926E-04 Eh
 * total energy  :  -178.1078761 Eh     change       -0.5232038E-04 Eh
 * total energy  :  -178.1079081 Eh     change       -0.3194921E-04 Eh
 * total energy  :  -178.1079356 Eh     change       -0.2750168E-04 Eh
 * total energy  :  -178.1079520 Eh     change       -0.1638989E-04 Eh
 * total energy  :  -178.1079684 Eh     change       -0.1638847E-04 Eh
 * total energy  :  -178.1082760 Eh     change       -0.2745228E-06 Eh
 * total energy  :  -178.1082763 Eh     change       -0.2611831E-06 Eh
 * total energy  :  -178.1082765 Eh     change       -0.2551792E-06 Eh
 * total energy  :  -178.1082768 Eh     change       -0.2591718E-06 Eh
 * total energy  :  -178.1082771 Eh     change       -0.2813432E-06 Eh
 * total energy  :  -178.1082773 Eh     change       -0.2589646E-06 Eh
 * total energy  :  -178.1082775 Eh     change       -0.1667154E-06 Eh
 * total energy  :  -178.1082776 Eh     change       -0.1310331E-06 Eh
 * total energy  :  -178.1082777 Eh     change       -0.8547050E-07 Eh
   *** GEOMETRY OPTIMIZATION CONVERGED AFTER 86 ITERATIONS ***

 final structure:
================
108
 xtb: 6.7.1 (edcfbbe)
C           -7.16286497901858        2.04807620323358       -2.09227645444588
C           -7.26789416633144        0.68120836126886       -1.88526113778437
C           -6.12971697079922       -0.09898245083399       -1.82010178910484
C           -4.87128841900702        0.48537877123702       -1.95449938401493
C           -3.66504982558513       -0.33385027395467       -1.84095471562320
N           -2.50610812970306        0.31037630586958       -1.70331899478276
C           -1.39136339864208       -0.37898732337572       -1.51295093235338
C           -0.16207394668134        0.35811455600128       -1.18742817550321
C            1.04979230965626        0.02848098136511       -1.78562567563684
C            2.20877070512553        0.69899914969381       -1.45640098410442
C            2.18256660390331        1.71204604007057       -0.49778578139130
N            3.36838282001191        2.36552381184922       -0.15159918388722
C            3.59000563593738        3.72330042329716       -0.33613362904094
C            2.68582088647438        4.74080169949760       -0.59447880430169
C            3.17998965839360        6.02256787338905       -0.75327280543313
C            4.54430565039724        6.28857357357665       -0.66992585981332
C            5.45226347409691        5.27418984076104       -0.43768469364324
C            4.97681836655569        3.97950539901310       -0.27174214179077
C            5.61922522673813        2.71482076464327       -0.04678435502638
C            6.96621995746455        2.36125192998804        0.03571408704388
C            7.31157321412776        1.04324354338254        0.22608667605724
C            6.29586661279070        0.10390904336958        0.40824548095168
C            4.91587250987984        0.42578960281534        0.35773176719857
C            4.20524695606958       -0.78696577420142        0.66704351289888
C            2.87557947882842       -1.10652197271287        0.92929366308933
C            2.54791796301761       -2.40828112078110        1.25023932369647
C            3.52190347544670       -3.39954134256438        1.33964460251972
C            4.85491710931539       -3.10337627555763        1.13909426055648
C            5.18891681950146       -1.79715666975391        0.80912412333411
N            6.43886672362196       -1.24484108123609        0.64758638647116
C            7.65592520778941       -1.94023707721755        0.76498117926220
C            8.61873665816297       -1.52161378609049        1.67782319562573
C            9.81139727477804       -2.21384978175728        1.78684842633465
C           10.04680094521939       -3.32879246879327        0.99891974927890
C            9.08532516163286       -3.75029820951806        0.09500220902630
C            7.89396042931077       -3.05834759307449       -0.02811234843617
C            4.59251724766502        1.74951671828578        0.04428733675438
C            0.97561445945957        2.05961156522585        0.10205376305719
C           -0.19122919596516        1.38952989959641       -0.23545436151850
N           -1.39515367780457        1.72609870333048        0.40693388154926
C           -2.07676851214006        2.91593280220110        0.22927593935021
C           -1.65584477916829        4.09358946512654       -0.36822708431526
C           -2.54796154778388        5.14835665685025       -0.41498182265950
C           -3.83309680229307        5.03744400826288        0.11279733328733
C           -4.26752626158564        3.85961636207561        0.68754743290224
C           -3.38656679940148        2.78750222128690        0.74285270788924
C           -3.49800719145610        1.44167676566015        1.22131186911325
C           -4.50578629330647        0.65555075376112        1.75966392239327
O           -5.79308077224324        1.01669239473025        2.00865389621520
C           -6.41278433187582       -0.10174279149686        2.48926653385601
C           -7.73955737160699       -0.20806254126714        2.86340058651045
C           -8.17111238918979       -1.44062542533760        3.32296842010356
C           -7.30527524193478       -2.52829493634222        3.40455439927624
C           -5.97988186938085       -2.41990422862729        3.02982271006209
C           -5.52357109079898       -1.19242061466263        2.56566067715750
C           -4.26279960917950       -0.69075073186978        2.08717140624467
C           -2.99689024913842       -1.25521561630305        1.91558669450106
C           -1.98083356867588       -0.49531552965857        1.37921811727606
C           -2.24769308793476        0.82148053622063        1.00198708522606
C           -1.43730959991588       -1.77296590668117       -1.54636747238267
S           -0.16287292075610       -2.93376216871613       -1.31100343290981
C           -1.31667585607670       -4.25258833875836       -1.43205342840658
C           -1.01912935506892       -5.60294620124245       -1.34240960168527
C           -2.05489539177745       -6.51041111211208       -1.46160302819658
C           -3.36527729333841       -6.08264094894658       -1.66691060904437
C           -3.66192634730036       -4.73858466621479       -1.75622454560886
C           -2.63194019108532       -3.80838557266558       -1.64063329988074
C           -2.70422587822294       -2.37347750777032       -1.69964618201242
N           -3.80875934469753       -1.65516596819971       -1.83218106738745
C           -4.77253284075300        1.85956817260672       -2.16420947026351
C           -5.91455937386306        2.63344957007116       -2.23529026905380
H           -8.05398308909379        2.65651785030176       -2.14088380430652
H           -8.23975916976763        0.22374519197116       -1.77055293441455
H           -6.19357369622935       -1.16300346721879       -1.65108951610490
H            1.07748020372752       -0.74710702007249       -2.53582504498758
H            3.14224894305009        0.43886135381551       -1.92982267147846
H            1.62829904567318        4.54574502091392       -0.67647330737128
H            2.49275178175804        6.83273359881402       -0.94835457005874
H            4.89330425610118        7.30284875368979       -0.79665515669542
H            6.51111657622908        5.47876927023902       -0.38729794635510
H            7.72767562286264        3.11870356889057       -0.06694292868129
H            8.34591183031853        0.73773707716049        0.24593011395749
H            2.10764884586102       -0.35124377318158        0.91226640853707
H            1.51696021545664       -2.66240137799668        1.44835230903530
H            3.23199575169897       -4.40806202230741        1.59541072181824
H            5.61754013009148       -3.85818593669829        1.25713527341767
H            8.42194159781207       -0.66360748583054        2.30352877852126
H           10.55635482477556       -1.88536554791084        2.49651813817067
H           10.97725977010989       -3.86878361241670        1.08995268978812
H            9.26556037258246       -4.61817580908429       -0.52216735270944
H            7.14632068983376       -3.37287737194369       -0.74133688595502
H            0.94824834617929        2.82177819323208        0.86616787363140
H           -0.66924793026565        4.18040689811839       -0.79663625105876
H           -2.24287092313250        6.07759527357199       -0.87325761516161
H           -4.49954176350998        5.88555506469988        0.06052486181504
H           -5.26712070510683        3.75913240727031        1.08200421068386
H           -8.40270772239689        0.63965410895945        2.79542769197362
H           -9.20092794057219       -1.56004220480407        3.62380677987875
H           -7.68016811331842       -3.47349228365029        3.76809656105170
H           -5.31062322711019       -3.26447272471031        3.09221992384531
H           -2.82293179563718       -2.28278575295958        2.19682453961315
H           -0.99389027253460       -0.91229074247165        1.23968397724805
H           -0.00293167268612       -5.92793893549933       -1.18268994699363
H           -1.84313274265026       -7.56676613734979       -1.39484021511793
H           -4.15505413983922       -6.81276633061300       -1.75609512116821
H           -4.66885874982638       -4.38569969171628       -1.91468194643418
H           -3.79440899198302        2.30317105610943       -2.26489885719517
H           -5.83032179077545        3.69772908377758       -2.39664019996129

          :  Hamiltonian                  GFN2-xTB          :
         :: gradient norm              0.000036496592 Eh/a0 ::
         :: HOMO-LUMO gap              1.776978100294 eV    ::
         :: SCC energy              -181.331773282592 Eh    ::
         :: -> dispersion             -0.185831755446 Eh    ::
         :: -> Gsolv                  -0.069244241685 Eh    ::
         :: repulsion energy           3.223495572098 Eh    ::

    * Orbital Energies and Occupations

         #    Occupation            Energy/Eh            Energy/eV
      -------------------------------------------------------------
         1        2.0000           -0.7438662             -20.2416
       ...           ...                  ...                  ...
       153        2.0000           -0.4106588             -11.1746
       154        2.0000           -0.4101782             -11.1615
       155        2.0000           -0.4090186             -11.1300
       156        2.0000           -0.4040700             -10.9953
       157        2.0000           -0.3972988             -10.8110
       158        2.0000           -0.3951565             -10.7528
       159        2.0000           -0.3885144             -10.5720
       160        2.0000           -0.3858988             -10.5008
       161        2.0000           -0.3790895             -10.3156
       162        2.0000           -0.3762175             -10.2374
       163        2.0000           -0.3675574             -10.0017
       164        2.0000           -0.3644892              -9.9183
       165        2.0000           -0.3585812              -9.7575 (HOMO)
       166                         -0.2932784              -7.9805 (LUMO)
       167                         -0.2793471              -7.6014
       168                         -0.2592363              -7.0542
       169                         -0.2534747              -6.8974
       170                         -0.2494875              -6.7889
       171                         -0.2479853              -6.7480
       172                         -0.2449365              -6.6651
       173                         -0.2446255              -6.6566
       174                         -0.2370211              -6.4497
       175                         -0.2333842              -6.3507
       176                         -0.2321026              -6.3158
       ...                                ...                  ...
       326                          0.7606702              20.6989
      -------------------------------------------------------------
                  HL-Gap            0.0653028 Eh            1.7770 eV

     #   Z          covCN         q      C6AA      α(0)
     1   6 C        2.920    -0.024    28.606     8.771
     2   6 C        2.918    -0.028    28.698     8.785
     3   6 C        2.924    -0.028    28.708     8.787
     4   6 C        2.985    -0.003    28.093     8.694
     5   6 C        2.950     0.192    23.910     8.020
     6   7 N        1.852    -0.294    28.469     7.908
     7   6 C        2.967     0.121    25.332     8.256
     8   6 C        2.979    -0.013    28.335     8.732
     9   6 C        2.922    -0.028    28.692     8.784
    10   6 C        2.921    -0.040    28.994     8.830
    11   6 C        2.914     0.075    26.322     8.413
    12   7 N        2.801    -0.044    22.092     6.981
    13   6 C        3.071     0.044    26.940     8.510
    14   6 C        2.910    -0.051    29.272     8.872
    15   6 C        2.924    -0.036    28.891     8.815
    16   6 C        2.920    -0.041    29.021     8.834
    17   6 C        2.913    -0.036    28.887     8.813
    18   6 C        3.067    -0.015    28.316     8.726
    19   6 C        3.066    -0.028    28.625     8.773
    20   6 C        2.916    -0.037    28.919     8.818
    21   6 C        2.911    -0.061    29.511     8.908
    22   6 C        3.079     0.045    26.918     8.506
    23   6 C        3.054    -0.038    28.901     8.817
    24   6 C        3.061    -0.018    28.405     8.740
    25   6 C        2.913    -0.038    28.956     8.824
    26   6 C        2.919    -0.041    29.030     8.835
    27   6 C        2.923    -0.035    28.868     8.811
    28   6 C        2.910    -0.052    29.286     8.874
    29   6 C        3.080     0.046    26.874     8.499
    30   7 N        2.803    -0.042    22.046     6.974
    31   6 C        2.914     0.064    26.576     8.453
    32   6 C        2.922    -0.041    29.017     8.834
    33   6 C        2.920    -0.028    28.689     8.783
    34   6 C        2.919    -0.032    28.796     8.800
    35   6 C        2.920    -0.028    28.691     8.784
    36   6 C        2.922    -0.041    29.020     8.834
    37   6 C        3.060     0.042    27.000     8.521
    38   6 C        2.923    -0.056    29.389     8.890
    39   6 C        2.916     0.073    26.368     8.421
    40   7 N        2.804    -0.046    22.121     6.985
    41   6 C        3.083     0.054    26.704     8.472
    42   6 C        2.910    -0.049    29.219     8.864
    43   6 C        2.924    -0.033    28.825     8.804
    44   6 C        2.921    -0.039    28.981     8.828
    45   6 C        2.912    -0.032    28.798     8.800
    46   6 C        3.066    -0.011    28.216     8.710
    47   6 C        3.064    -0.039    28.893     8.814
    48   6 C        3.097     0.122    25.205     8.228
    49   8 O        1.714    -0.239    17.963     5.722
    50   6 C        3.101     0.124    25.153     8.219
    51   6 C        2.908    -0.053    29.320     8.879
    52   6 C        2.926    -0.034    28.851     8.809
    53   6 C        2.920    -0.039    28.965     8.826
    54   6 C        2.913    -0.036    28.897     8.815
    55   6 C        3.059    -0.020    28.455     8.748
    56   6 C        3.051    -0.036    28.850     8.809
    57   6 C        2.916    -0.042    29.045     8.838
    58   6 C        2.911    -0.063    29.559     8.915
    59   6 C        3.078     0.055    26.682     8.469
    60   6 C        2.990    -0.001    28.052     8.688
    61  16 S        2.195    -0.098   145.165    20.278
    62   6 C        3.005     0.039    27.112     8.541
    63   6 C        2.933    -0.036    28.900     8.816
    64   6 C        2.924    -0.024    28.594     8.769
    65   6 C        2.919    -0.030    28.755     8.793
    66   6 C        2.916    -0.023    28.590     8.768
    67   6 C        3.101    -0.015    28.263     8.712
    68   6 C        3.112     0.108    25.478     8.269
    69   7 N        1.841    -0.298    28.565     7.921
    70   6 C        2.924    -0.026    28.659     8.779
    71   6 C        2.918    -0.027    28.677     8.781
    72   1 H        0.926     0.046     2.367     2.406
    73   1 H        0.926     0.043     2.407     2.426
    74   1 H        0.926     0.046     2.374     2.410
    75   1 H        0.926     0.050     2.318     2.381
    76   1 H        0.926     0.057     2.238     2.339
    77   1 H        0.926     0.027     2.631     2.536
    78   1 H        0.926     0.032     2.560     2.502
    79   1 H        0.926     0.030     2.583     2.513
    80   1 H        0.926     0.033     2.549     2.496
    81   1 H        0.926     0.036     2.502     2.474
    82   1 H        0.926     0.034     2.534     2.489
    83   1 H        0.926     0.018     2.768     2.602
    84   1 H        0.926     0.020     2.733     2.585
    85   1 H        0.926     0.030     2.583     2.513
    86   1 H        0.926     0.032     2.555     2.500
    87   1 H        0.926     0.043     2.414     2.429
    88   1 H        0.926     0.042     2.428     2.437
    89   1 H        0.926     0.041     2.441     2.443
    90   1 H        0.926     0.041     2.430     2.438
    91   1 H        0.926     0.042     2.422     2.434
    92   1 H        0.926     0.061     2.192     2.315
    93   1 H        0.926     0.030     2.581     2.512
    94   1 H        0.926     0.039     2.459     2.452
    95   1 H        0.926     0.037     2.492     2.469
    96   1 H        0.926     0.036     2.498     2.472
    97   1 H        0.926     0.047     2.354     2.399
    98   1 H        0.926     0.046     2.365     2.405
    99   1 H        0.926     0.043     2.406     2.426
   100   1 H        0.926     0.038     2.469     2.457
   101   1 H        0.926     0.035     2.511     2.478
   102   1 H        0.926     0.021     2.713     2.576
   103   1 H        0.926     0.053     2.281     2.362
   104   1 H        0.926     0.056     2.245     2.343
   105   1 H        0.926     0.053     2.279     2.360
   106   1 H        0.926     0.054     2.265     2.354
   107   1 H        0.926     0.045     2.382     2.414
   108   1 H        0.926     0.044     2.401     2.423

molecular dipole:
                 x           y           z       tot (Debye)
 q only:        1.240      -1.120      -0.168
   full:        1.368      -1.435      -0.223       5.072

 projected vibrational frequencies (cm⁻¹)
eigval :       -0.00    -0.00    -0.00    -0.00     0.00     0.00
eigval :      -15.89     7.29     7.92    11.65    15.88    17.34
eigval :       31.61    36.82    39.04    44.58    46.31    55.18
eigval :       56.73    61.05    63.29    65.92    70.41    77.95
eigval :       88.96    92.80   100.76   114.32   121.87   123.96
eigval :      134.45   137.88   142.37   157.03   165.36   168.61
eigval :      181.20   201.06   210.63   215.84   220.80   229.27
eigval :      234.68   241.30   244.66   256.90   261.97   265.80
eigval :      273.70   286.64   297.02   313.00   318.46   319.62
eigval :      329.77   350.24   355.05   370.10   377.58   378.28
eigval :      381.30   393.67   395.42   402.03   407.64   408.81
eigval :      416.60   419.81   426.66   435.13   438.17   440.76
eigval :      442.15   449.46   461.78   473.49   474.49   478.86
eigval :      492.87   502.80   507.39   515.33   531.01   535.98
eigval :      538.67   542.94   550.81   556.34   560.24   564.62
eigval :      569.14   578.27   586.95   587.34   594.66   597.78
eigval :      605.24   606.83   614.70   617.79   618.88   624.27
eigval :      629.59   637.26   646.68   661.22   665.51   669.23
eigval :      675.52   676.75   678.43   680.02   686.85   689.30
eigval :      697.08   698.87   701.10   701.51   707.37   708.84
eigval :      712.14   726.29   731.32   758.53   767.30   770.94
eigval :      772.93   774.02   775.68   776.29   777.36   819.74
eigval :      824.37   827.08   831.95   837.70   842.68   845.15
eigval :      856.90   859.64   861.07   867.41   867.82   868.79
eigval :      875.21   877.30   879.57   881.09   890.36   896.01
eigval :      898.37   900.26   901.69   902.93   904.24   906.58
eigval :      907.22   909.91   911.85   916.11   916.37   918.45
eigval :      919.81   920.26   923.56   924.40   930.80   931.15
eigval :      932.25   934.07   971.16   979.33   993.75  1002.34
eigval :     1007.86  1009.23  1040.84  1057.13  1061.11  1066.27
eigval :     1069.31  1071.53  1072.22  1075.48  1077.48  1084.69
eigval :     1092.77  1100.15  1102.36  1109.52  1114.52  1126.85
eigval :     1138.39  1140.53  1142.24  1146.27  1150.19  1164.66
eigval :     1171.29  1171.48  1171.80  1175.54  1176.49  1178.34
eigval :     1178.38  1180.40  1182.06  1185.47  1193.99  1198.65
eigval :     1200.43  1202.84  1212.21  1222.55  1226.46  1232.22
eigval :     1238.67  1239.93  1243.84  1259.34  1262.12  1271.13
eigval :     1271.46  1274.29  1286.15  1300.85  1302.70  1306.84
eigval :     1308.38  1312.74  1314.90  1325.96  1327.95  1334.62
eigval :     1338.31  1345.46  1351.77  1355.99  1358.99  1361.60
eigval :     1363.06  1377.80  1393.44  1394.43  1400.04  1402.02
eigval :     1406.09  1412.54  1416.08  1423.49  1427.87  1432.99
eigval :     1433.35  1434.18  1446.41  1456.81  1459.67  1463.76
eigval :     1470.66  1473.69  1477.25  1479.37  1481.46  1483.04
eigval :     1484.93  1503.73  1515.72  1544.75  1564.10  1568.12
eigval :     1569.86  1574.54  1577.42  1581.05  1581.60  1581.95
eigval :     1583.48  1588.75  1591.38  1592.65  1594.97  1596.21
eigval :     1601.55  1605.67  1607.35  1607.62  1626.97  3071.75
eigval :     3073.20  3073.73  3074.26  3076.21  3077.00  3078.43
eigval :     3079.08  3080.57  3080.81  3080.85  3083.03  3086.51
eigval :     3086.62  3087.06  3089.25  3089.91  3090.27  3090.60
eigval :     3091.15  3091.19  3091.50  3091.77  3094.20  3094.23
eigval :     3097.20  3097.64  3098.34  3099.99  3100.33  3101.50
eigval :     3102.48  3104.01  3104.45  3106.96  3109.63  3120.81

   temp. (K)  partition function   enthalpy   heat capacity  entropy
                                   cal/mol     cal/K/mol   cal/K/mol   J/K/mol
 298.15  VIB  0.224E+26            31900.831    202.853    199.217
         ROT  0.206E+09              888.752      2.981     41.025
         INT  0.461E+34            32789.583    205.834    240.242
         TR   0.272E+29             1481.254      4.968     46.325
         TOT                       34270.8372   210.8019   286.5668  1198.9956

       T/K    H(0)-H(T)+PV         H(T)/Eh          T*S/Eh         G(T)/Eh
   ------------------------------------------------------------------------
    298.15    0.546141E-01    0.859835E+00    0.136157E+00    0.723678E+00
   ------------------------------------------------------------------------

         :::::::::::::::::::::::::::::::::::::::::::::::::::::
         ::                  THERMODYNAMIC                  ::
         :::::::::::::::::::::::::::::::::::::::::::::::::::::
         :: total free energy        -177.384599823205 Eh   ::
         ::.................................................::
         :: total energy             -178.108277715019 Eh   ::
         :: zero point energy           0.805220977145 Eh   ::
         :: G(RRHO) w/o ZPVE           -0.081543085330 Eh   ::
         :: G(RRHO) contrib.            0.723677891815 Eh   ::
         :::::::::::::::::::::::::::::::::::::::::::::::::::::

           -------------------------------------------------
          | TOTAL ENERGY             -178.108277715019 Eh   |
          | TOTAL ENTHALPY           -177.248442682527 Eh   |
          | TOTAL FREE ENERGY        -177.384599823205 Eh   |
          | GRADIENT NORM               0.000036483284 Eh/α |
          | HOMO-LUMO GAP               1.776980820393 eV   |
           -------------------------------------------------

 * finished run on 2025/09/13 at 06:55:23.632
