   * xtb version 6.7.1 (edcfbbe) compiled by 'albert@albert-system' on 2024-07-22

   ID    Z sym.   atoms
    1    6 C      1-5, 7-11, 13-29, 31-39, 41-48, 50-60, 62-68, 70, 71
    2    7 N      6, 12, 30, 40, 69
    3    8 O      49
    4   16 S      61
    5    1 H      72-108

          program call               : xtb data2507/toluene/BTPBFCz-D3/BTPBFCz-D3_toluene_T1_crest.xyz --gfn 2 --uhf 2 --gbsa toluene --ohess vtight --parallel 40 --molden --ceasefiles --namespace data2507/toluene/BTPBFCz-D3/BTPBFCz-D3_toluene_T1_finalOpt
      * Solvation model:               GBSA
        Solvent                        toluene
        Solvent mass                       9.2140E+01 g/mol
          :  Hamiltonian                  GFN2-xTB          :
 * total energy  :  -178.0354539 Eh     change       -0.1870660E-08 Eh
 * total energy  :  -178.0356261 Eh     change       -0.1722666E-03 Eh
 * total energy  :  -178.0357845 Eh     change       -0.1584202E-03 Eh
 * total energy  :  -178.0358450 Eh     change       -0.6041361E-04 Eh
 * total energy  :  -178.0359443 Eh     change       -0.9936055E-04 Eh
 * total energy  :  -178.0360533 Eh     change       -0.1089713E-03 Eh
 * total energy  :  -178.0361476 Eh     change       -0.9430414E-04 Eh
 * total energy  :  -178.0362282 Eh     change       -0.8059939E-04 Eh
 * total energy  :  -178.0362897 Eh     change       -0.6152678E-04 Eh
 * total energy  :  -178.0363456 Eh     change       -0.5591721E-04 Eh
 * total energy  :  -178.0367985 Eh     change       -0.2317432E-06 Eh
 * total energy  :  -178.0367987 Eh     change       -0.2267700E-06 Eh
 * total energy  :  -178.0367990 Eh     change       -0.2690101E-06 Eh
 * total energy  :  -178.0367993 Eh     change       -0.3689389E-06 Eh
 * total energy  :  -178.0367998 Eh     change       -0.4988730E-06 Eh
 * total energy  :  -178.0368005 Eh     change       -0.6117315E-06 Eh
 * total energy  :  -178.0368012 Eh     change       -0.7099769E-06 Eh
 * total energy  :  -178.0368020 Eh     change       -0.7947082E-06 Eh
 * total energy  :  -178.0368020 Eh     change       -0.9623335E-08 Eh
   *** GEOMETRY OPTIMIZATION CONVERGED AFTER 94 ITERATIONS ***

 final structure:
================
108
 xtb: 6.7.1 (edcfbbe)
C           -3.73109576394779        4.92126087232840        0.70382001753837
C           -4.92209411099967        4.25217451104877        0.46870205266244
C           -4.96988264515981        2.87286178441168        0.54478596503880
C           -3.81896671955378        2.14862510367848        0.84201880362684
C           -3.86233735215807        0.68524781365894        0.90179374706318
N           -2.74568465087604        0.02984642841505        0.70122326011004
C           -2.67964967149995       -1.33215897364265        0.70212756738868
C           -1.44750508190721       -1.92696461237724        0.29550821421383
C           -1.03615938907497       -3.21396256730099        0.69820910848269
C            0.22177040759755       -3.68492384793682        0.41947023358026
C            1.13811305097966       -2.88646148687357       -0.27719998755196
N            2.43395404319747       -3.35077610439689       -0.55524424088165
C            2.69546109135875       -4.42860734370315       -1.38561889332616
C            1.81844566695714       -5.36089682032739       -1.91591474686734
C            2.34519630942721       -6.34742435796894       -2.73223978448225
C            3.70591319519626       -6.39870826717036       -3.02176376042536
C            4.58010339296273       -5.45568881891000       -2.51219088663730
C            4.07441170385935       -4.45884812811985       -1.68844998457699
C            4.66302889954508       -3.33440962629480       -1.01630384904567
C            5.96885164410931       -2.85294919042515       -0.98723042020618
C            6.25825881553283       -1.71576728245922       -0.26358304977476
C            5.23652317526332       -1.10828755150744        0.46829274790732
C            3.90863699993219       -1.60056136043934        0.51778737342950
C            3.22063898229226       -0.80770685391296        1.50052718128325
C            1.95709975303914       -0.84608663357540        2.08662239013417
C            1.62964233746494        0.09839172896684        3.03930459412921
C            2.53574267871475        1.08643382523541        3.42339543439377
C            3.80880427817442        1.12564162402833        2.89323573012624
C            4.15410516620481        0.16018869547926        1.95524694552825
N            5.35504576622544       -0.02935813265207        1.31683371545862
C            6.52242370065860        0.72938313368959        1.51674174576226
C            7.16924301676577        1.30849876266164        0.42916064424062
C            8.31804799500955        2.05268045057404        0.62808024317985
C            8.82264118454448        2.22967594963767        1.90629387225567
C            8.17701433449428        1.65517308506024        2.98929457214851
C            7.03189076146698        0.90268058047484        2.79981565857482
C            3.61142722799307       -2.69149728278872       -0.30849547340115
C            0.73546799497838       -1.64045275768667       -0.75774761738242
C           -0.53661134796956       -1.17134666919595       -0.50513908732744
N           -0.96713303836799        0.02374967925778       -1.09831002156815
C           -2.08322200275400        0.13009584082104       -1.90723511394766
C           -2.94962388468142       -0.85890716946512       -2.34986347187790
C           -4.01233516551115       -0.47338476023356       -3.14720500366800
C           -4.20240310092560        0.85717280426513       -3.51216064829593
C           -3.32014709891338        1.84206724747826       -3.10496284468362
C           -2.25088513777648        1.47591647202340       -2.30227974332355
C           -1.16085886333845        2.19907256251786       -1.71389186392214
C           -0.75826871393877        3.52247587694418       -1.67742537119559
O           -1.35900491891320        4.58898857307992       -2.26558360207696
C           -0.61247411841680        5.68010551006455       -1.92243508273127
C           -0.85788643834448        6.99078900053932       -2.28646702867179
C            0.02458772073843        7.95281774367361       -1.82386614147598
C            1.11451417706200        7.61514752074558       -1.02463175664321
C            1.35860954272842        6.30513977169102       -0.66165844614259
C            0.48572553348793        5.32148629099392       -1.11340495041493
C            0.39073606986076        3.89714318844570       -0.94984506456737
C            1.14079080255470        2.94847959249708       -0.24973985556336
C            0.75329014428347        1.62691084211749       -0.26298203053963
C           -0.38386651469648        1.26185472101939       -0.98805574262159
C           -3.87046841500933       -2.01046890047691        1.03380181189419
S           -4.18146095633541       -3.72411198883937        1.14690885497883
C           -5.87962550146589       -3.43316324760672        1.47394158272613
C           -6.84762809012534       -4.39234363301911        1.69640732008950
C           -8.14281660361801       -3.97172726785462        1.94918072376431
C           -8.45832421294177       -2.61266290870303        1.97526933841372
C           -7.49442345808352       -1.65548985130527        1.75294617852397
C           -6.17758617110551       -2.05562756621576        1.49934651010971
C           -5.03211868055548       -1.25293909583989        1.23794718316887
N           -5.02365756563831        0.09749151669092        1.16805293441347
C           -2.62542155863147        2.82594940388639        1.07763928255897
C           -2.58544465250612        4.20568420059786        1.01349407501137
H           -3.69560900402247        5.99950817866084        0.64732270160959
H           -5.81623427706888        4.80871649058219        0.22814343035327
H           -5.89003096629230        2.33620288419595        0.36713939818054
H           -1.70957563326926       -3.82160171423778        1.28117679540408
H            0.52886854289677       -4.65752939406882        0.77305726182987
H            0.76070147810903       -5.31805024276175       -1.70504280453403
H            1.68536124913733       -7.09096472505367       -3.15436065801548
H            4.08005584213373       -7.18469931313707       -3.66093148661021
H            5.63259979540754       -5.49166655688400       -2.74913011382020
H            6.74451133728182       -3.36681265374790       -1.53293337304382
H            7.26047822981375       -1.31843529945605       -0.23150752155280
H            1.24040179714550       -1.60239953215593        1.81568499614560
H            0.64804111006272        0.07444397392502        3.48969988954584
H            2.23904833997839        1.82261640914231        4.15544132827700
H            4.51717681720184        1.88060730260795        3.19816107285676
H            6.76164611361641        1.18063283184842       -0.56273180522126
H            8.81686364825621        2.50127646655834       -0.21816713319340
H            9.71791402122761        2.81348865608557        2.05832863114499
H            8.57035528510433        1.78655708655225        3.98637418442701
H            6.53550188942774        0.43613894904571        3.63771380010379
H            1.41329849584241       -1.05488321317816       -1.36161888530706
H           -2.80523517203337       -1.89419336955346       -2.07866962128438
H           -4.70903289414904       -1.22231088859663       -3.49456798977226
H           -5.04826429736515        1.11817759324078       -4.13047930838353
H           -3.45469641466124        2.87271030408865       -3.39553483991453
H           -1.70473525998972        7.24443512031614       -2.90411295019687
H           -0.13763687132064        8.98672363256122       -2.08842675221920
H            1.77850916716651        8.39566570132460       -0.68434462815258
H            2.20259507842517        6.04501550794686       -0.04171227913320
H            2.01203143048128        3.25650203738905        0.30580038027336
H            1.30221703922836        0.88531606093156        0.29464102459106
H           -6.59528286924912       -5.44163084813379        1.67212439762632
H           -8.91505986077173       -4.70472521163280        2.12622255704484
H           -9.47587560251851       -2.31036506612238        2.17520544341242
H           -7.72451284635021       -0.60121378519245        1.77181088971301
H           -1.73891962302981        2.25752296573360        1.31581519991678
H           -1.65787843447103        4.72563611240828        1.20513744037139

          :  Hamiltonian                  GFN2-xTB          :
         :: gradient norm              0.000053084863 Eh/a0 ::
         :: HOMO-LUMO gap              0.578850892230 eV    ::
         :: SCC energy              -181.248321903699 Eh    ::
         :: -> dispersion             -0.184359714174 Eh    ::
         :: -> Gsolv                  -0.071610815449 Eh    ::
         :: repulsion energy           3.211519936413 Eh    ::

    * Orbital Energies and Occupations

         #    Occupation            Energy/Eh            Energy/eV
      -------------------------------------------------------------
         1        2.0000           -0.7405974             -20.1527
       ...           ...                  ...                  ...
       154        2.0000           -0.4051590             -11.0249
       155        2.0000           -0.4028178             -10.9612
       156        2.0000           -0.3999150             -10.8822
       157        2.0000           -0.3988665             -10.8537
       158        2.0000           -0.3971172             -10.8061
       159        2.0000           -0.3916325             -10.6569
       160        2.0000           -0.3820835             -10.3970
       161        2.0000           -0.3756513             -10.2220
       162        2.0000           -0.3737727             -10.1709
       163        1.9975           -0.3678008             -10.0084
       164        1.8228           -0.3635697              -9.8932
       165        1.1797           -0.3606684              -9.8143
       166        1.0000           -0.2860778              -7.7846 (HOMO)
       167        0.0000           -0.2648056              -7.2057 (LUMO)
       168                         -0.2591138              -7.0508
       169                         -0.2551378              -6.9427
       170                         -0.2479802              -6.7479
       171                         -0.2455951              -6.6830
       172                         -0.2402964              -6.5388
       173                         -0.2377345              -6.4691
       174                         -0.2354410              -6.4067
       175                         -0.2351404              -6.3985
       176                         -0.2288813              -6.2282
       177                         -0.2261854              -6.1548
       ...                                ...                  ...
       326                          0.7582547              20.6332
      -------------------------------------------------------------
                  HL-Gap            0.0212722 Eh            0.5788 eV

     #   Z          covCN         q      C6AA      α(0)
     1   6 C        2.920    -0.027    28.673     8.781
     2   6 C        2.919    -0.029    28.716     8.788
     3   6 C        2.924    -0.028    28.705     8.786
     4   6 C        2.985    -0.001    28.036     8.685
     5   6 C        2.904     0.193    23.893     8.015
     6   7 N        1.856    -0.272    27.903     7.829
     7   6 C        2.938     0.072    26.381     8.424
     8   6 C        2.974    -0.015    28.375     8.738
     9   6 C        2.918    -0.045    29.113     8.848
    10   6 C        2.915    -0.043    29.080     8.843
    11   6 C        2.913     0.047    26.952     8.513
    12   7 N        2.802    -0.027    21.773     6.930
    13   6 C        3.080     0.045    26.914     8.505
    14   6 C        2.909    -0.046    29.144     8.852
    15   6 C        2.924    -0.033    28.821     8.804
    16   6 C        2.920    -0.038    28.956     8.824
    17   6 C        2.912    -0.032    28.798     8.800
    18   6 C        3.063    -0.015    28.313     8.726
    19   6 C        3.068    -0.021    28.466     8.749
    20   6 C        2.914    -0.034    28.848     8.808
    21   6 C        2.911    -0.053    29.315     8.878
    22   6 C        3.081     0.044    26.931     8.508
    23   6 C        3.051    -0.037    28.861     8.811
    24   6 C        3.062    -0.014    28.293     8.723
    25   6 C        2.912    -0.038    28.933     8.820
    26   6 C        2.919    -0.037    28.916     8.818
    27   6 C        2.922    -0.032    28.802     8.801
    28   6 C        2.909    -0.049    29.212     8.863
    29   6 C        3.080     0.047    26.866     8.498
    30   7 N        2.803    -0.028    21.785     6.932
    31   6 C        2.914     0.062    26.607     8.458
    32   6 C        2.922    -0.040    28.986     8.829
    33   6 C        2.920    -0.026    28.658     8.779
    34   6 C        2.919    -0.030    28.743     8.792
    35   6 C        2.920    -0.026    28.657     8.779
    36   6 C        2.922    -0.040    28.984     8.829
    37   6 C        3.061     0.047    26.894     8.504
    38   6 C        2.920    -0.052    29.300     8.877
    39   6 C        2.915     0.052    26.824     8.493
    40   7 N        2.806    -0.001    21.285     6.852
    41   6 C        3.085     0.057    26.637     8.460
    42   6 C        2.910    -0.044    29.095     8.845
    43   6 C        2.923    -0.034    28.841     8.807
    44   6 C        2.921    -0.037    28.929     8.820
    45   6 C        2.912    -0.032    28.796     8.799
    46   6 C        3.062    -0.010    28.193     8.707
    47   6 C        3.067    -0.033    28.752     8.792
    48   6 C        3.096     0.129    25.076     8.207
    49   8 O        1.714    -0.234    17.870     5.708
    50   6 C        3.102     0.127    25.094     8.209
    51   6 C        2.908    -0.052    29.280     8.873
    52   6 C        2.926    -0.031    28.780     8.798
    53   6 C        2.920    -0.037    28.930     8.820
    54   6 C        2.912    -0.034    28.837     8.806
    55   6 C        3.058    -0.017    28.373     8.735
    56   6 C        3.051    -0.025    28.579     8.768
    57   6 C        2.915    -0.036    28.901     8.816
    58   6 C        2.911    -0.053    29.326     8.880
    59   6 C        3.071     0.051    26.777     8.485
    60   6 C        2.987     0.012    27.748     8.641
    61  16 S        2.218    -0.135   146.739    20.388
    62   6 C        3.005     0.030    27.316     8.573
    63   6 C        2.932    -0.041    29.022     8.835
    64   6 C        2.923    -0.039    28.971     8.827
    65   6 C        2.917    -0.036    28.888     8.814
    66   6 C        2.915    -0.035    28.877     8.812
    67   6 C        3.113    -0.020    28.340     8.721
    68   6 C        3.101     0.085    25.985     8.353
    69   7 N        1.841    -0.311    28.905     7.968
    70   6 C        2.924    -0.029    28.721     8.789
    71   6 C        2.919    -0.028    28.708     8.786
    72   1 H        0.926     0.041     2.435     2.440
    73   1 H        0.926     0.041     2.434     2.440
    74   1 H        0.926     0.041     2.439     2.442
    75   1 H        0.926     0.046     2.369     2.407
    76   1 H        0.926     0.047     2.358     2.401
    77   1 H        0.926     0.034     2.530     2.487
    78   1 H        0.926     0.035     2.516     2.480
    79   1 H        0.926     0.035     2.522     2.484
    80   1 H        0.926     0.038     2.478     2.462
    81   1 H        0.926     0.043     2.408     2.427
    82   1 H        0.926     0.041     2.430     2.438
    83   1 H        0.926     0.030     2.583     2.513
    84   1 H        0.926     0.026     2.645     2.543
    85   1 H        0.926     0.035     2.517     2.481
    86   1 H        0.926     0.038     2.475     2.460
    87   1 H        0.926     0.046     2.372     2.408
    88   1 H        0.926     0.044     2.390     2.417
    89   1 H        0.926     0.043     2.409     2.427
    90   1 H        0.926     0.044     2.398     2.422
    91   1 H        0.926     0.045     2.384     2.415
    92   1 H        0.926     0.044     2.401     2.423
    93   1 H        0.926     0.027     2.625     2.533
    94   1 H        0.926     0.036     2.498     2.472
    95   1 H        0.926     0.040     2.452     2.449
    96   1 H        0.926     0.043     2.404     2.425
    97   1 H        0.926     0.048     2.344     2.394
    98   1 H        0.926     0.047     2.352     2.398
    99   1 H        0.926     0.045     2.378     2.412
   100   1 H        0.926     0.046     2.365     2.405
   101   1 H        0.926     0.052     2.300     2.372
   102   1 H        0.926     0.049     2.338     2.391
   103   1 H        0.926     0.037     2.483     2.464
   104   1 H        0.926     0.037     2.484     2.465
   105   1 H        0.926     0.036     2.502     2.474
   106   1 H        0.926     0.037     2.494     2.470
   107   1 H        0.926     0.038     2.480     2.463
   108   1 H        0.926     0.035     2.512     2.479

molecular dipole:
                 x           y           z       tot (Debye)
 q only:        4.429       1.421      -0.354
   full:        4.014       1.208      -0.277      10.678

 projected vibrational frequencies (cm⁻¹)
eigval :       -0.00    -0.00    -0.00    -0.00     0.00     0.00
eigval :        2.86     7.63    14.52    17.96    22.12    28.44
eigval :       30.25    38.69    39.71    42.81    49.27    54.59
eigval :       59.74    62.06    63.62    68.48    74.46    85.27
eigval :       90.22    99.96   111.37   117.11   121.48   127.17
eigval :      131.38   139.34   147.32   147.73   153.64   164.81
eigval :      176.15   197.53   207.96   214.26   215.64   225.22
eigval :      235.05   236.37   248.62   252.69   254.93   264.08
eigval :      269.41   283.43   289.21   309.89   319.11   320.28
eigval :      333.21   343.19   358.83   373.46   375.51   377.36
eigval :      381.13   383.66   392.51   394.80   405.44   408.25
eigval :      410.80   414.05   416.86   426.04   434.49   438.36
eigval :      447.69   452.04   454.74   469.67   471.57   476.83
eigval :      488.48   495.32   506.03   512.15   523.67   533.36
eigval :      535.77   541.72   543.85   546.20   552.58   559.41
eigval :      563.75   564.77   580.19   583.87   587.98   590.64
eigval :      598.88   599.91   600.77   608.70   612.50   615.54
eigval :      624.12   626.12   643.22   645.29   647.10   657.22
eigval :      664.95   669.73   672.91   674.76   675.32   680.28
eigval :      682.28   686.52   698.20   699.96   700.57   702.83
eigval :      707.70   711.74   726.56   756.31   764.51   768.27
eigval :      769.40   769.91   771.36   771.75   774.56   808.93
eigval :      815.58   820.74   822.84   831.85   838.62   840.35
eigval :      845.27   859.28   863.49   866.70   868.40   868.85
eigval :      869.47   870.73   878.35   879.28   880.92   892.83
eigval :      895.35   898.18   900.49   901.45   901.92   902.29
eigval :      903.60   905.65   907.48   909.46   914.96   916.21
eigval :      917.43   919.84   920.97   922.42   930.90   931.77
eigval :      933.52   935.22   956.54   979.25   990.20   991.59
eigval :     1003.48  1008.89  1029.59  1038.76  1060.60  1064.77
eigval :     1067.57  1068.49  1068.81  1075.77  1076.72  1080.20
eigval :     1082.30  1094.41  1099.96  1111.04  1115.42  1125.00
eigval :     1133.86  1135.50  1140.58  1143.05  1143.83  1163.27
eigval :     1164.66  1168.08  1171.60  1174.17  1177.35  1178.00
eigval :     1178.58  1179.15  1179.75  1180.85  1185.09  1194.30
eigval :     1197.49  1199.98  1206.19  1216.01  1219.59  1229.81
eigval :     1231.54  1233.84  1243.65  1254.64  1256.86  1270.56
eigval :     1272.64  1273.11  1279.86  1283.49  1296.88  1298.45
eigval :     1302.40  1304.89  1314.24  1316.77  1325.71  1329.19
eigval :     1336.17  1341.33  1342.61  1344.58  1349.40  1351.69
eigval :     1354.57  1356.84  1362.79  1385.23  1388.11  1392.45
eigval :     1392.78  1395.78  1404.97  1408.28  1412.26  1419.62
eigval :     1421.91  1429.10  1431.94  1432.12  1439.20  1446.60
eigval :     1451.74  1456.68  1469.03  1471.41  1473.51  1474.95
eigval :     1476.82  1476.90  1483.78  1490.41  1540.77  1546.53
eigval :     1552.28  1554.67  1558.80  1575.57  1576.90  1577.64
eigval :     1580.58  1583.61  1583.71  1585.88  1587.42  1589.65
eigval :     1589.91  1593.84  1595.69  1601.09  1618.97  3071.88
eigval :     3075.34  3076.01  3076.37  3076.49  3076.56  3079.53
eigval :     3081.52  3081.82  3082.27  3082.71  3084.16  3084.40
eigval :     3085.27  3086.00  3088.84  3089.29  3089.51  3089.85
eigval :     3091.09  3091.87  3092.58  3092.80  3093.68  3095.09
eigval :     3095.72  3095.89  3097.24  3098.08  3098.39  3099.18
eigval :     3102.91  3104.16  3105.10  3109.64  3115.22  3136.79

   temp. (K)  partition function   enthalpy   heat capacity  entropy
                                   cal/mol     cal/K/mol   cal/K/mol   J/K/mol
 298.15  VIB  0.181E+26            32087.552    204.775    200.149
         ROT  0.202E+09              888.752      2.981     40.981
         INT  0.364E+34            32976.305    207.756    241.130
         TR   0.272E+29             1481.254      4.968     46.325
         TOT                       34457.5585   212.7243   287.4549  1202.7114

       T/K    H(0)-H(T)+PV         H(T)/Eh          T*S/Eh         G(T)/Eh
   ------------------------------------------------------------------------
    298.15    0.549116E-01    0.856659E+00    0.136579E+00    0.720080E+00
   ------------------------------------------------------------------------

         :::::::::::::::::::::::::::::::::::::::::::::::::::::
         ::                  THERMODYNAMIC                  ::
         :::::::::::::::::::::::::::::::::::::::::::::::::::::
         :: total free energy        -177.316721945023 Eh   ::
         ::.................................................::
         :: total energy             -178.036801963682 Eh   ::
         :: zero point energy           0.801747518407 Eh   ::
         :: G(RRHO) w/o ZPVE           -0.081667499748 Eh   ::
         :: G(RRHO) contrib.            0.720080018659 Eh   ::
         :::::::::::::::::::::::::::::::::::::::::::::::::::::

           -------------------------------------------------
          | TOTAL ENERGY             -178.036801963682 Eh   |
          | TOTAL ENTHALPY           -177.180142830592 Eh   |
          | TOTAL FREE ENERGY        -177.316721945023 Eh   |
          | GRADIENT NORM               0.000053123366 Eh/α |
          | HOMO-LUMO GAP               0.578845639522 eV   |
           -------------------------------------------------

 * finished run on 2025/09/13 at 07:08:50.750
