   * xtb version 6.7.1 (edcfbbe) compiled by 'albert@albert-system' on 2024-07-22

   ID    Z sym.   atoms
    1    6 C      1-4, 6-22, 24-44
    2   14 Si     5, 23
    3    1 H      45-78

          program call               : xtb data2507/gas/UGH3/UGH3_gas_T1_crest.xyz --gfn 2 --spinpol --tblite --uhf 2 --ohess vtight --parallel 40 --molden --ceasefiles --namespace data2507/gas/UGH3/UGH3_gas_T1_finalOpt
 * total energy  :  -110.4795153 Eh     change       -0.7190692E-11 Eh
 * total energy  :  -110.4797273 Eh     change       -0.2120214E-03 Eh
 * total energy  :  -110.4799130 Eh     change       -0.1856664E-03 Eh
 * total energy  :  -110.4799657 Eh     change       -0.5268850E-04 Eh
 * total energy  :  -110.4800441 Eh     change       -0.7845452E-04 Eh
 * total energy  :  -110.4800842 Eh     change       -0.4003073E-04 Eh
 * total energy  :  -110.4801167 Eh     change       -0.3253893E-04 Eh
 * total energy  :  -110.4801436 Eh     change       -0.2685247E-04 Eh
 * total energy  :  -110.4801598 Eh     change       -0.1621376E-04 Eh
 * total energy  :  -110.4801798 Eh     change       -0.2007363E-04 Eh
 * total energy  :  -110.4802812 Eh     change       -0.2670593E-06 Eh
 * total energy  :  -110.4802815 Eh     change       -0.3111660E-06 Eh
 * total energy  :  -110.4802818 Eh     change       -0.2821157E-06 Eh
 * total energy  :  -110.4802821 Eh     change       -0.2868597E-06 Eh
 * total energy  :  -110.4802823 Eh     change       -0.1922597E-06 Eh
 * total energy  :  -110.4802824 Eh     change       -0.1244094E-06 Eh
 * total energy  :  -110.4802826 Eh     change       -0.1515549E-06 Eh
 * total energy  :  -110.4802826 Eh     change       -0.1884233E-07 Eh
 * total energy  :  -110.4802827 Eh     change       -0.9959652E-07 Eh
   *** GEOMETRY OPTIMIZATION CONVERGED AFTER 57 ITERATIONS ***

 final structure:
================
78
 xtb: 6.7.1 (edcfbbe)
C            1.70114359892053       -3.62088722944674       -2.41765463273338
C            2.88800427143028       -3.58969450755809       -1.70241766967339
C            3.20332651704405       -2.49072056796874       -0.92651221909819
C            2.34373966086584       -1.39469158705995       -0.84668707239423
Si           2.65704722730620        0.08082124785153        0.28590765175062
C            4.33195587363779       -0.04461792749863        1.15598627165691
C            5.28762640719914        0.95353499610136        1.00394880923574
C            6.52138265487046        0.85547599357889        1.62207849658483
C            6.81930171665249       -0.24709579600224        2.40488872860025
C            5.87696999613702       -1.24946974066297        2.56606329750664
C            4.64456436605809       -1.14481847476179        1.94740621866930
C            2.44717062396706        1.68941265047914       -0.69137514665825
C            2.32463661848458        2.90744435239658       -0.02754542161697
C            2.13698238104131        4.08579909247401       -0.72572305667249
C            2.07221878062604        4.06818309574379       -2.10894082701939
C            2.20014133434804        2.86670897163119       -2.78477803137507
C            2.38591962726246        1.69119715951323       -2.08055639439723
C            1.34890721472664        0.24112517039836        1.67488295084718
C            1.39009164052822       -0.63810848000730        2.81871941594422
C            0.34247475776061       -1.49282414471877        3.01012130233664
C           -0.83089801684774       -1.35247717239526        2.25541504148585
C           -0.96942077022003       -0.28087731822998        1.32686666480291
Si          -2.55140553359762       -0.03706823407114        0.31413340510502
C           -2.07389276324550        1.02918958690579       -1.17795753406140
C           -1.87543637158920        2.40007265889126       -1.03243926329450
C           -1.41742285740303        3.17163367091051       -2.08426856366609
C           -1.15056209662100        2.58304844059421       -3.30885734064916
C           -1.35549136117570        1.22433804131917       -3.47655528492819
C           -1.81289713600337        0.45822022847900       -2.41931327913308
C           -3.91252022482454        0.82837877441943        1.30838652963898
C           -3.95925816541260        0.74820106478380        2.69676614997927
C           -4.96884692469688        1.36566722431037        3.41272732839414
C           -5.95367633903670        2.07793466675675        2.74898964365283
C           -5.91926087825862        2.17259961949120        1.36766155786875
C           -4.90671471846620        1.55408527985646        0.65739154899774
C           -3.13424888226891       -1.74379904813004       -0.26702047481991
C           -4.48125617811592       -2.00923888766595       -0.49300087572429
C           -4.89650957636040       -3.24736692338978       -0.94942078871830
C           -3.96644762048209       -4.24470361916138       -1.19087429181198
C           -2.62204044493834       -3.99807689603683       -0.96730596617593
C           -2.21312406504101       -2.75952312304695       -0.50747235119771
C            0.06757258479185        0.58467344052091        1.14165006157801
C            1.14934650338946       -1.44624839064483       -1.57029030306566
C            0.83387774041980       -2.54153239050697       -2.34994606549573
H            1.45503689465488       -4.47928590293663       -3.02569935344780
H            3.57105659087032       -4.42591469581544       -1.75439874138832
H            4.13720181701395       -2.47101708204331       -0.38297314773016
H            5.06057859545081        1.81475675126749        0.39202393852153
H            7.25290013904211        1.64044878348219        1.49333119647247
H            7.78181622546928       -0.32502658631059        2.88936145082390
H            6.10429271984012       -2.11244691712099        3.17587293091072
H            3.91043901321671       -1.92710569960581        2.08017156701553
H            2.36998865268831        2.92722622786321        1.05267403070298
H            2.04031484883842        5.02052221027386       -0.19137054087111
H            1.92450561208679        4.98750436635845       -2.65729580782413
H            2.15561198344177        2.84556571339573       -3.86425094426515
H            2.48271729252154        0.75797804658661       -2.61615469879826
H            2.25112601156825       -0.63776294602704        3.46788687806876
H            0.37001327901907       -2.21148388712716        3.81884415279981
H           -1.68988614351988       -1.96472324402899        2.48112000652330
H           -2.08742635052328        2.86551092477590       -0.07958716070251
H           -1.26296011809977        4.23247126249647       -1.94912935604837
H           -0.78936485362241        3.18349340530735       -4.13082831685411
H           -1.15413337119806        0.76059621287003       -4.43172707044049
H           -1.97533654776295       -0.60191437388609       -2.55512245098817
H           -3.19006035488818        0.19873633213053        3.22008317273592
H           -4.98908494805996        1.29270719937052        4.49081318458293
H           -6.74376448586211        2.56035654631403        3.30612495182291
H           -6.68333376635919        2.73034030777092        0.84483276880278
H           -4.88049759545152        1.63609793197860       -0.42041132284729
H           -5.21162892230627       -1.23527553156791       -0.30350130325741
H           -5.94723583820273       -3.43624621548580       -1.11794291656986
H           -4.28900804971392       -5.21170693748395       -1.54929893998807
H           -1.89000515809105       -4.77174627352317       -1.15081511531598
H           -1.16283726008353       -2.57621430547636       -0.32972585548459
H           -0.01725135971824        1.42134949648032        0.46677753444965
H            0.46463747487844       -0.61127040368416       -1.51892111740741
H           -0.09310853369970       -2.55811766265484       -2.90575436235515

 projected vibrational frequencies (cm⁻¹)
eigval :       -0.00    -0.00     0.00     0.00     0.00     0.00
eigval :       11.45    14.65    22.00    24.06    25.23    26.00
eigval :       32.06    35.87    36.29    41.37    43.08    47.95
eigval :       51.99    55.55    57.81    61.43    68.46    81.16
eigval :       84.65   107.74   156.35   159.60   167.13   172.22
eigval :      177.19   180.30   195.23   208.13   210.09   217.92
eigval :      219.68   224.04   225.46   228.55   232.99   264.37
eigval :      337.93   358.31   360.04   361.47   362.59   363.60
eigval :      369.31   382.30   411.19   416.06   418.20   421.34
eigval :      421.87   428.34   455.28   467.72   472.61   474.69
eigval :      479.39   480.87   558.32   588.07   588.68   588.88
eigval :      589.07   589.32   589.71   605.19   640.62   655.68
eigval :      660.61   661.46   662.24   663.02   663.48   666.78
eigval :      676.77   703.49   705.64   707.33   709.16   712.20
eigval :      729.61   732.13   735.31   736.67   737.77   738.99
eigval :      741.02   803.53   877.46   879.92   881.80   882.69
eigval :      883.50   885.03   885.94   897.06   904.61   905.43
eigval :      908.11   908.91   909.48   924.10   928.24   929.56
eigval :      931.52   931.83   932.95   932.97   933.67   934.31
eigval :      934.71   936.11   938.12   939.83   965.51   972.36
eigval :      974.59   975.18   976.04   976.44   977.31  1060.75
eigval :     1083.87  1084.42  1084.77  1085.29  1085.54  1086.03
eigval :     1113.07  1120.07  1120.96  1121.29  1122.42  1123.21
eigval :     1123.85  1132.77  1137.60  1142.97  1144.71  1146.10
eigval :     1149.07  1151.17  1181.29  1181.98  1182.09  1182.37
eigval :     1182.78  1183.82  1189.54  1205.45  1206.57  1207.02
eigval :     1207.57  1209.77  1211.84  1258.02  1285.36  1287.19
eigval :     1288.37  1288.79  1290.32  1292.31  1311.49  1311.73
eigval :     1313.17  1313.39  1314.33  1315.46  1320.51  1339.83
eigval :     1417.10  1419.34  1419.91  1420.32  1421.45  1421.77
eigval :     1442.91  1452.77  1462.23  1463.73  1464.10  1464.82
eigval :     1465.67  1472.01  1557.48  1574.98  1575.19  1575.40
eigval :     1576.09  1577.01  1578.99  1585.61  1590.32  1590.84
eigval :     1592.37  1593.97  3047.17  3059.53  3060.70  3062.15
eigval :     3062.77  3063.21  3064.00  3064.23  3065.02  3066.00
eigval :     3066.39  3066.66  3066.83  3070.90  3072.40  3072.57
eigval :     3072.65  3072.75  3073.01  3076.42  3077.25  3078.21
eigval :     3078.28  3078.78  3079.25  3082.24  3082.60  3084.95
eigval :     3085.38  3085.75  3086.53  3087.00  3088.37  3089.02

   temp. (K)  partition function   enthalpy   heat capacity  entropy
                                   cal/mol     cal/K/mol   cal/K/mol   J/K/mol
 298.15  VIB  0.514E+21            24017.801    140.306    153.820
         ROT  0.497E+08              888.752      2.981     38.199
         INT  0.256E+29            24906.553    143.287    192.018
         TR   0.140E+29             1481.254      4.968     45.013
         TOT                       26387.8071   148.2550   237.0313   991.7388

       T/K    H(0)-H(T)+PV         H(T)/Eh          T*S/Eh         G(T)/Eh
   ------------------------------------------------------------------------
    298.15    0.420516E-01    0.646346E+00    0.112621E+00    0.533725E+00
   ------------------------------------------------------------------------

         :::::::::::::::::::::::::::::::::::::::::::::::::::::
         ::                  THERMODYNAMIC                  ::
         :::::::::::::::::::::::::::::::::::::::::::::::::::::
         :: total free energy        -109.946557371315 Eh   ::
         ::.................................................::
         :: total energy             -110.480282665420 Eh   ::
         :: zero point energy           0.604294846613 Eh   ::
         :: G(RRHO) w/o ZPVE           -0.070569552508 Eh   ::
         :: G(RRHO) contrib.            0.533725294105 Eh   ::
         :::::::::::::::::::::::::::::::::::::::::::::::::::::

           -------------------------------------------------
          | TOTAL ENERGY             -110.480282665420 Eh   |
          | TOTAL ENTHALPY           -109.833936171463 Eh   |
          | TOTAL FREE ENERGY        -109.946557371315 Eh   |
          | GRADIENT NORM               0.000146910768 Eh/α |
           -------------------------------------------------

 * finished run on 2025/09/14 at 14:40:33.863
