   * xtb version 6.7.1 (edcfbbe) compiled by 'albert@albert-system' on 2024-07-22

   ID    Z sym.   atoms
    1    6 C      1-4, 6-22, 24-44
    2   14 Si     5, 23
    3    1 H      45-78

          program call               : xtb data2507/gas/UGH3/UGH3.xyz --gfn 2 --ohess vtight --parallel 40 --molden --ceasefiles --namespace data2507/gas/UGH3/UGH3_gas_S0_preOpt
          :  Hamiltonian                  GFN2-xTB          :
 * total energy  :  -110.5826297 Eh     change       -0.9127632E-10 Eh
 * total energy  :  -110.5947751 Eh     change       -0.1214541E-01 Eh
 * total energy  :  -110.5959893 Eh     change       -0.1214131E-02 Eh
 * total energy  :  -110.5960958 Eh     change       -0.1065856E-03 Eh
 * total energy  :  -110.5961487 Eh     change       -0.5289217E-04 Eh
 * total energy  :  -110.5961773 Eh     change       -0.2854699E-04 Eh
 * total energy  :  -110.5962304 Eh     change       -0.5307160E-04 Eh
 * total energy  :  -110.5962987 Eh     change       -0.6838715E-04 Eh
 * total energy  :  -110.5964027 Eh     change       -0.1039577E-03 Eh
 * total energy  :  -110.5964962 Eh     change       -0.9349730E-04 Eh
 * total energy  :  -110.5971394 Eh     change       -0.2985466E-06 Eh
 * total energy  :  -110.5971396 Eh     change       -0.2906160E-06 Eh
 * total energy  :  -110.5971400 Eh     change       -0.3285481E-06 Eh
 * total energy  :  -110.5971404 Eh     change       -0.4460589E-06 Eh
 * total energy  :  -110.5971410 Eh     change       -0.6224173E-06 Eh
 * total energy  :  -110.5971417 Eh     change       -0.6655127E-06 Eh
 * total energy  :  -110.5971422 Eh     change       -0.4521205E-06 Eh
 * total energy  :  -110.5971425 Eh     change       -0.3800468E-06 Eh
 * total energy  :  -110.5971425 Eh     change       -0.3852477E-08 Eh
   *** GEOMETRY OPTIMIZATION CONVERGED AFTER 68 ITERATIONS ***

 final structure:
================
78
 xtb: 6.7.1 (edcfbbe)
C            6.34459350738220        1.66449611307807        2.87675384315651
C            5.92663471029409        0.35249600985954        3.02641956580821
C            4.89221892427118       -0.13579956924771        2.24943471373573
C            4.25452728586710        0.67115865070559        1.31079454637560
Si           2.82680172402234       -0.01434266459226        0.27477612737476
C            2.38950606617258        1.13602931960916       -1.16782978353725
C            1.65774785562696        2.29903879020698       -0.94271996843341
C            1.28277675319542        3.12180900153644       -1.98852538674732
C            1.63571889143794        2.79383463245293       -3.28717843109887
C            2.36353142108030        1.64139851113380       -3.52967260562133
C            2.73425466402834        0.82248944545643       -2.47801098124924
C            3.29125157939914       -1.71289769665974       -0.42637616405813
C            2.29933381715883       -2.61397878126301       -0.80308172702267
C            2.62224577721239       -3.84223782424179       -1.35037412734639
C            3.94985693875905       -4.19296441530981       -1.53123453275606
C            4.94934902297917       -3.30816757508610       -1.16306407471945
C            4.61976981207719       -2.08030056242382       -0.61766620527139
C            1.24990610633240       -0.16082820438676        1.31548138728304
C            1.24053707519938       -0.30095290087796        2.69861507960103
C            0.04373345141265       -0.40549569588280        3.38747942853506
C           -1.15974395884359       -0.35739464842936        2.70593643332435
C           -1.18545098470321       -0.20550623923541        1.32243026751315
Si          -2.80028566536488       -0.06424600959044        0.34233513267448
C           -2.37190909992377       -0.35392261135623       -1.48085374894161
C           -2.61179235227389       -1.57101436177622       -2.10909403068966
C           -2.20916495089126       -1.79119901285652       -3.41450333203306
C           -1.55004711312620       -0.79450205441863       -4.11400283634976
C           -1.30876889277587        0.42657652675463       -3.50653509525077
C           -1.72051836839213        0.64233560814558       -2.20470680905984
C           -3.52083808647546        1.67891067030672        0.52087914398172
C           -4.44578521425172        2.15373426841336       -0.40526128033878
C           -4.99260044246705        3.41816723758129       -0.28494372341935
C           -4.61947073444130        4.23592747408447        0.76883706511124
C           -3.69612809876965        3.78220514271453        1.69551962131285
C           -3.15422920818266        2.51548269575129        1.56990515749409
C           -4.03259978771742       -1.35858987875406        0.96894431715972
C           -3.59694305501962       -2.63850363294818        1.30198251491991
C           -4.48419006523104       -3.60179184729673        1.74592503104110
C           -5.83034573434958       -3.29935565505859        1.86707676294511
C           -6.28011606727739       -2.03007871305339        1.54457941951085
C           -5.38732178910486       -1.07143520019979        1.10002843174000
C            0.02806313889997       -0.11999061693942        0.65472404817523
C            4.68873684413411        1.98544566482059        1.17267688658840
C            5.72349652901107        2.48023616715935        1.94621545212622
H            7.15324927324749        2.04846827229892        3.48181312610275
H            6.41007715562858       -0.28956538785201        3.74918462599351
H            4.57562582645959       -1.16329999629042        2.36439133943398
H            1.37053539203783        2.55498461381941        0.06791185142103
H            0.71138751323509        4.01853618868821       -1.79324149994897
H            1.34273704443891        3.43458018312106       -4.10689404800958
H            2.63928810614305        1.37885321704623       -4.54127840481557
H            3.29598090523767       -0.07993218565036       -2.67457250685816
H            1.26124519357585       -2.34626035276397       -0.66432619869090
H            1.83795712641568       -4.52811977348461       -1.63762296593286
H            4.20479548501893       -5.15234725874647       -1.95804738237924
H            5.98708992163143       -3.57600501329854       -1.30311601435157
H            5.40435025407614       -1.39285720889586       -0.33375228588794
H            2.17628293367723       -0.32369768378455        3.23909857008434
H            0.04950860482433       -0.51972608085948        4.46273996061053
H           -2.09119654234387       -0.43919187223389        3.24940995836011
H           -3.12198248758880       -2.35427005705269       -1.56586350411267
H           -2.40497365877234       -2.74361244143637       -3.88663668745109
H           -1.22687715987996       -0.96785993154471       -5.13033097432735
H           -0.79313959330920        1.20885730775231       -4.04462614126496
H           -1.53154946774153        1.59917636738706       -1.73774707701262
H           -4.73400429153798        1.52192675414039       -1.23416378302525
H           -5.70999577910198        3.76880005918319       -1.01344000961339
H           -5.04490569032048        5.22449543504357        0.86536696415931
H           -3.39834612121690        4.41820862565643        2.51716221063568
H           -2.43032644863259        2.16869443111380        2.29376682916218
H           -2.54579278329430       -2.87698470535814        1.21535193339298
H           -4.12736728639772       -4.59004680517115        1.99950424921441
H           -6.52587111368210       -4.04980623685291        2.21428145554362
H           -7.32904556347917       -1.78812846936526        1.64096669653909
H           -5.74335654756739       -0.08101990715202        0.85418545692129
H            0.02405207458927       -0.00843346951626       -0.42013365833474
H            4.21016590085302        2.62548827664234        0.44501677455352
H            6.04805459740837        3.50382154751011        1.82352460634972

          :  Hamiltonian                  GFN2-xTB          :
         :: gradient norm              0.000041051737 Eh/a0 ::
         :: HOMO-LUMO gap              3.579914914843 eV    ::
         :: SCC energy              -112.748949976424 Eh    ::
         :: -> dispersion             -0.110106173940 Eh    ::
         :: repulsion energy           2.151807435032 Eh    ::

    * Orbital Energies and Occupations

         #    Occupation            Energy/Eh            Energy/eV
      -------------------------------------------------------------
         1        2.0000           -0.7513622             -20.4456
       ...           ...                  ...                  ...
        93        2.0000           -0.4002937             -10.8925
        94        2.0000           -0.3999049             -10.8820
        95        2.0000           -0.3994973             -10.8709
        96        2.0000           -0.3988748             -10.8539
        97        2.0000           -0.3973861             -10.8134
        98        2.0000           -0.3970842             -10.8052
        99        2.0000           -0.3967347             -10.7957
       100        2.0000           -0.3896141             -10.6019
       101        2.0000           -0.3827334             -10.4147
       102        2.0000           -0.3818197             -10.3898
       103        2.0000           -0.3806488             -10.3580
       104        2.0000           -0.3799284             -10.3384
       105        2.0000           -0.3724324             -10.1344 (HOMO)
       106                         -0.2408730              -6.5545 (LUMO)
       107                         -0.2365443              -6.4367
       108                         -0.2355505              -6.4097
       109                         -0.2337600              -6.3609
       110                         -0.2320912              -6.3155
       111                         -0.2298902              -6.2556
       112                         -0.2257357              -6.1426
       113                         -0.2208618              -6.0100
       114                         -0.2187191              -5.9516
       115                         -0.2184090              -5.9432
       116                         -0.2179458              -5.9306
       ...                                ...                  ...
       220                          0.6802682              18.5110
      -------------------------------------------------------------
                  HL-Gap            0.1315594 Eh            3.5799 eV

     #   Z          covCN         q      C6AA      α(0)
     1   6 C        2.921    -0.028    28.709     8.787
     2   6 C        2.917    -0.030    28.748     8.792
     3   6 C        2.939    -0.031    28.775     8.798
     4   6 C        2.863    -0.094    30.355     9.031
     5  14 Si       3.618     0.487    98.171    19.016
     6   6 C        2.863    -0.095    30.383     9.035
     7   6 C        2.938    -0.030    28.745     8.793
     8   6 C        2.917    -0.029    28.732     8.790
     9   6 C        2.921    -0.028    28.691     8.784
    10   6 C        2.918    -0.029    28.720     8.788
    11   6 C        2.936    -0.031    28.775     8.798
    12   6 C        2.863    -0.094    30.349     9.030
    13   6 C        2.938    -0.031    28.772     8.797
    14   6 C        2.917    -0.029    28.728     8.789
    15   6 C        2.921    -0.028    28.710     8.787
    16   6 C        2.917    -0.030    28.746     8.792
    17   6 C        2.936    -0.031    28.781     8.798
    18   6 C        2.861    -0.095    30.380     9.035
    19   6 C        2.932    -0.030    28.757     8.795
    20   6 C        2.915    -0.030    28.757     8.794
    21   6 C        2.934    -0.029    28.731     8.791
    22   6 C        2.861    -0.096    30.412     9.039
    23  14 Si       3.617     0.487    98.188    19.019
    24   6 C        2.863    -0.095    30.384     9.035
    25   6 C        2.935    -0.032    28.809     8.803
    26   6 C        2.918    -0.030    28.744     8.792
    27   6 C        2.921    -0.028    28.704     8.786
    28   6 C        2.917    -0.029    28.728     8.789
    29   6 C        2.940    -0.030    28.739     8.792
    30   6 C        2.863    -0.094    30.350     9.030
    31   6 C        2.939    -0.030    28.761     8.795
    32   6 C        2.917    -0.030    28.741     8.791
    33   6 C        2.921    -0.028    28.711     8.787
    34   6 C        2.918    -0.029    28.736     8.791
    35   6 C        2.936    -0.032    28.794     8.800
    36   6 C        2.863    -0.094    30.345     9.029
    37   6 C        2.939    -0.030    28.759     8.795
    38   6 C        2.917    -0.030    28.740     8.791
    39   6 C        2.921    -0.028    28.706     8.786
    40   6 C        2.918    -0.029    28.732     8.790
    41   6 C        2.936    -0.032    28.794     8.800
    42   6 C        2.969    -0.036    28.885     8.816
    43   6 C        2.936    -0.032    28.794     8.800
    44   6 C        2.918    -0.029    28.731     8.790
    45   1 H        0.926     0.028     2.612     2.527
    46   1 H        0.926     0.027     2.626     2.534
    47   1 H        0.925     0.020     2.736     2.587
    48   1 H        0.925     0.018     2.769     2.602
    49   1 H        0.926     0.026     2.651     2.546
    50   1 H        0.926     0.026     2.638     2.540
    51   1 H        0.926     0.026     2.638     2.540
    52   1 H        0.926     0.019     2.746     2.592
    53   1 H        0.926     0.019     2.744     2.590
    54   1 H        0.926     0.027     2.629     2.535
    55   1 H        0.926     0.028     2.613     2.528
    56   1 H        0.926     0.027     2.626     2.534
    57   1 H        0.926     0.020     2.726     2.582
    58   1 H        0.926     0.021     2.716     2.577
    59   1 H        0.925     0.026     2.650     2.546
    60   1 H        0.925     0.019     2.750     2.593
    61   1 H        0.926     0.020     2.727     2.583
    62   1 H        0.926     0.027     2.630     2.536
    63   1 H        0.926     0.028     2.618     2.530
    64   1 H        0.926     0.027     2.636     2.539
    65   1 H        0.925     0.018     2.769     2.602
    66   1 H        0.925     0.020     2.739     2.588
    67   1 H        0.926     0.027     2.628     2.535
    68   1 H        0.926     0.028     2.616     2.529
    69   1 H        0.926     0.027     2.629     2.536
    70   1 H        0.926     0.021     2.722     2.580
    71   1 H        0.925     0.020     2.738     2.588
    72   1 H        0.926     0.027     2.623     2.533
    73   1 H        0.926     0.028     2.610     2.526
    74   1 H        0.926     0.027     2.622     2.532
    75   1 H        0.926     0.021     2.716     2.577
    76   1 H        0.926     0.010     2.891     2.659
    77   1 H        0.926     0.022     2.707     2.573
    78   1 H        0.926     0.027     2.623     2.532

molecular dipole:
                 x           y           z       tot (Debye)
 q only:        0.007      -0.031       0.082
   full:        0.005      -0.005       0.017       0.046

 projected vibrational frequencies (cm⁻¹)
eigval :       -0.00    -0.00    -0.00     0.00     0.00     0.00
eigval :        5.33     6.77    17.73    20.06    22.05    24.00
eigval :       27.36    28.33    31.61    36.06    36.41    40.86
eigval :       41.95    44.43    46.50    48.03    53.51    57.56
eigval :      100.14   149.71   156.57   159.49   165.99   169.26
eigval :      173.42   187.45   192.88   212.49   214.07   217.81
eigval :      219.70   222.69   224.93   230.68   234.89   284.49
eigval :      357.73   358.14   358.67   359.20   361.34   362.03
eigval :      381.17   408.93   413.08   415.65   418.29   422.12
eigval :      424.04   438.64   471.76   473.40   480.11   483.11
eigval :      490.87   499.43   589.19   589.39   589.60   589.82
eigval :      589.87   590.09   640.68   661.38   662.56   663.09
eigval :      663.31   663.46   663.79   666.24   667.38   679.92
eigval :      705.88   706.35   709.08   710.28   734.16   735.13
eigval :      735.61   735.97   736.05   736.94   775.97   788.45
eigval :      881.41   881.94   882.36   882.44   884.08   884.74
eigval :      902.95   904.91   905.33   906.23   907.31   908.15
eigval :      910.58   911.74   930.99   931.55   931.95   932.24
eigval :      932.60   933.70   934.09   934.58   934.95   935.35
eigval :      935.60   936.10   937.07   975.52   975.67   977.12
eigval :      977.30   977.47   977.76   984.07  1084.66  1084.81
eigval :     1085.71  1085.73  1085.89  1086.06  1120.63  1120.81
eigval :     1121.67  1122.23  1122.66  1123.15  1129.51  1145.62
eigval :     1146.24  1151.47  1152.00  1152.37  1153.68  1154.89
eigval :     1179.04  1181.67  1182.75  1182.91  1183.02  1183.05
eigval :     1183.93  1200.71  1206.90  1207.20  1207.41  1208.59
eigval :     1210.38  1211.08  1287.29  1287.40  1287.99  1289.47
eigval :     1290.07  1290.55  1298.41  1307.38  1311.20  1311.51
eigval :     1312.06  1312.42  1312.65  1312.98  1390.98  1419.39
eigval :     1419.68  1420.29  1421.19  1421.76  1421.79  1456.29
eigval :     1464.67  1465.03  1465.77  1466.10  1466.19  1466.82
eigval :     1565.76  1576.56  1576.70  1577.06  1577.39  1577.55
eigval :     1577.86  1579.57  1593.79  1593.87  1594.13  1594.30
eigval :     1595.19  1595.46  3056.62  3059.49  3060.43  3060.70
eigval :     3060.82  3062.48  3062.77  3062.89  3063.18  3064.19
eigval :     3064.24  3064.98  3065.12  3065.44  3068.24  3070.40
eigval :     3070.58  3070.62  3070.77  3070.95  3071.12  3074.82
eigval :     3075.60  3076.12  3076.41  3076.82  3076.88  3077.55
eigval :     3082.76  3085.04  3085.23  3085.64  3085.91  3086.95

   temp. (K)  partition function   enthalpy   heat capacity  entropy
                                   cal/mol     cal/K/mol   cal/K/mol   J/K/mol
 298.15  VIB  0.199E+23            23844.113    136.042    154.311
         ROT  0.557E+08              888.752      2.981     38.424
         INT  0.111E+31            24732.865    139.023    192.734
         TR   0.140E+29             1481.254      4.968     45.013
         TOT                       26214.1188   143.9912   237.7472   994.7343

       T/K    H(0)-H(T)+PV         H(T)/Eh          T*S/Eh         G(T)/Eh
   ------------------------------------------------------------------------
    298.15    0.417749E-01    0.650331E+00    0.112961E+00    0.537369E+00
   ------------------------------------------------------------------------

         :::::::::::::::::::::::::::::::::::::::::::::::::::::
         ::                  THERMODYNAMIC                  ::
         :::::::::::::::::::::::::::::::::::::::::::::::::::::
         :: total free energy        -110.059773098382 Eh   ::
         ::.................................................::
         :: total energy             -110.597142541387 Eh   ::
         :: zero point energy           0.608555950988 Eh   ::
         :: G(RRHO) w/o ZPVE           -0.071186507984 Eh   ::
         :: G(RRHO) contrib.            0.537369443004 Eh   ::
         :::::::::::::::::::::::::::::::::::::::::::::::::::::

           -------------------------------------------------
          | TOTAL ENERGY             -110.597142541387 Eh   |
          | TOTAL ENTHALPY           -109.946811732999 Eh   |
          | TOTAL FREE ENERGY        -110.059773098382 Eh   |
          | GRADIENT NORM               0.000041056884 Eh/α |
          | HOMO-LUMO GAP               3.579913844418 eV   |
           -------------------------------------------------

 * finished run on 2025/09/14 at 14:18:03.297
