   * xtb version 6.7.1 (edcfbbe) compiled by 'albert@albert-system' on 2024-07-22

   ID    Z sym.   atoms
    1    6 C      1-4, 6-22, 24-44
    2   14 Si     5, 23
    3    1 H      45-78

          program call               : xtb data2507/gas/UGH3/UGH3_gas_S0_crest.xyz --gfn 2 --ohess vtight --parallel 40 --molden --ceasefiles --namespace data2507/gas/UGH3/UGH3_gas_S0_finalOpt
          :  Hamiltonian                  GFN2-xTB          :
 * total energy  :  -110.5983047 Eh     change       -0.5184120E-10 Eh
 * total energy  :  -110.5983063 Eh     change       -0.1580847E-05 Eh
 * total energy  :  -110.5983078 Eh     change       -0.1531444E-05 Eh
 * total energy  :  -110.5983104 Eh     change       -0.2565471E-05 Eh
 * total energy  :  -110.5983122 Eh     change       -0.1837259E-05 Eh
 * total energy  :  -110.5983132 Eh     change       -0.9507485E-06 Eh
 * total energy  :  -110.5983131 Eh     change        0.3614899E-07 Eh
 * total energy  :  -110.5983137 Eh     change       -0.5520892E-06 Eh
 * total energy  :  -110.5983142 Eh     change       -0.4765705E-06 Eh
 * total energy  :  -110.5983147 Eh     change       -0.5012724E-06 Eh
 * total energy  :  -110.5983174 Eh     change       -0.7989538E-06 Eh
 * total energy  :  -110.5983175 Eh     change       -0.8807223E-07 Eh
 * total energy  :  -110.5983178 Eh     change       -0.2938700E-06 Eh
 * total energy  :  -110.5983180 Eh     change       -0.2318526E-06 Eh
 * total energy  :  -110.5983183 Eh     change       -0.2707063E-06 Eh
 * total energy  :  -110.5983185 Eh     change       -0.2270111E-06 Eh
 * total energy  :  -110.5983187 Eh     change       -0.2185391E-06 Eh
 * total energy  :  -110.5983190 Eh     change       -0.2728550E-06 Eh
 * total energy  :  -110.5983190 Eh     change       -0.3444327E-08 Eh
   *** GEOMETRY OPTIMIZATION CONVERGED AFTER 22 ITERATIONS ***

 final structure:
================
78
 xtb: 6.7.1 (edcfbbe)
C            1.77674301241941        1.60828773663670       -4.02222551099128
C            1.45563631680491        0.31263389135887       -3.65472411638856
C            1.79811969018704       -0.15326449374420       -2.39915682401603
C            2.45774494218260        0.66210779182759       -1.48278923372538
Si           2.81663952273815        0.02751277600903        0.26821541133029
C            3.32272976110138       -1.79486120917158        0.16325202201799
C            4.23670747796521       -2.22045917046740       -0.79685170641012
C            4.61846792393614       -3.54694491251204       -0.88091513356992
C            4.08664374094976       -4.47696453373230       -0.00296770335678
C            3.17188677923811       -4.07216944389846        0.95443717566696
C            2.79628483990298       -2.74311134472700        1.03443516873700
C            4.17654905339359        1.05541834476293        1.09180933367652
C            3.89640349780045        2.33213367874803        1.57203883148194
C            4.87947329914615        3.10540804732036        2.16177223656474
C            6.16772942899251        2.61170436068481        2.28395694509780
C            6.46285297663240        1.34232452933550        1.81628155763796
C            5.47467277522190        0.57447665854893        1.22650858467967
C            1.21192382231832        0.18630106494899        1.26260985327993
C            1.19224779839375        0.40287610716828        2.63716341889036
C           -0.00867613042331        0.52620608719789        3.31414181590180
C           -1.20803683455447        0.43598371798087        2.62846252790932
C           -1.22298302707995        0.21318748102671        1.25602619480852
Si          -2.81226524333916        0.05798674943526        0.23771275311884
C           -3.28038531462395       -1.77328192092678        0.09458005993388
C           -2.30592474124392       -2.76457464533396        0.16332863503880
C           -2.63769919570799       -4.10123804254354        0.03572965203702
C           -3.95710491717154       -4.47157579085848       -0.16401566833070
C           -4.93979114929984       -3.49832026120538       -0.23505715872872
C           -4.60116078852637       -2.16331225619824       -0.10728158863357
C           -2.42206009723833        0.74682602257305       -1.48469037303651
C           -1.66794085280856        1.90932318547966       -1.62267141823959
C           -1.34679544221165        2.40981398851899       -2.87029022557864
C           -1.77719564712634        1.75203984768298       -4.01032416636781
C           -2.52677831258140        0.59436460559694       -3.89274159209211
C           -2.84394751756781        0.09883738313646       -2.64047034051447
C           -4.23148579339563        1.01049453577002        1.05214158689088
C           -4.63267347582375        2.25741257249127        0.58361258258552
C           -5.66022671683055        2.95274042208373        1.19551582237450
C           -6.30686460508793        2.41019208259570        2.29311415167352
C           -5.92211254015200        1.16871001728307        2.77169634625133
C           -4.89497343241739        0.47850428945924        2.15459452549856
C           -0.00433920973098        0.08938038260943        0.60040396343137
C            2.77443688506599        1.95947409662714       -1.87072652795452
C            2.44191239060815        2.42981739256462       -3.12851769043526
H            1.51249478816353        1.97474346495134       -5.00356343599056
H            0.93583873078444       -0.33347944897397       -4.34752067685564
H            1.55657591204685       -1.17091695464781       -2.12403880157044
H            4.64786997412679       -1.49929588110483       -1.48979587578722
H            5.33041045748810       -3.85840850990412       -1.63218942218736
H            4.38269943886237       -5.51418408107426       -0.06687392338525
H            2.75126972760411       -4.79477420843628        1.63938511904254
H            2.07995322306795       -2.43231269109260        1.78218597567008
H            2.89033718181890        2.71921464042091        1.48654085679326
H            4.64253997406537        4.09424499473787        2.52843541408429
H            6.93787615761237        3.21345078041013        2.74464955199530
H            7.46563240353339        0.95092764392117        1.91280815651612
H            5.71021360529377       -0.41740705643643        0.86767515079144
H            2.12601535565641        0.48208894631021        3.17661797374334
H           -0.00972526847074        0.69863980080932        4.38159114862143
H           -2.14246293886116        0.54658426381482        3.16040512393319
H           -1.27465044293571       -2.48170854089871        0.32220448861842
H           -1.86670480359868       -4.85659610912397        0.09229020149422
H           -4.21919315334348       -5.51517124247723       -0.26303568263086
H           -5.97121118254525       -3.78184286447739       -0.39022437884897
H           -5.37244824357054       -1.40747762567276       -0.16103146737106
H           -1.32155804207285        2.42268025558612       -0.73640468367619
H           -0.75607512733555        3.31051971514743       -2.95523736878352
H           -1.52731307686420        2.13996174343675       -4.98722419175294
H           -2.86308463614067        0.07552413542812       -4.77941676787537
H           -3.42437576286199       -0.80921450177624       -2.55474219403215
H           -4.13412687387585        2.68363567349735       -0.27549465269023
H           -5.95922918160991        3.91959884098259        0.81612550059756
H           -7.10980541586964        2.95131780894071        2.77265405270391
H           -6.42575658732367        0.73912098044986        3.62616982674722
H           -4.60457964476081       -0.49442705195187        2.52647391505549
H           -0.00433024682574       -0.07188423226984       -0.46817695673384
H            3.29430278501144        2.60640089043627       -1.17816856273455
H            2.70052470707345        3.44036555939141       -3.41242868105252

          :  Hamiltonian                  GFN2-xTB          :
         :: gradient norm              0.000043758308 Eh/a0 ::
         :: HOMO-LUMO gap              3.596365685256 eV    ::
         :: SCC energy              -112.750684796387 Eh    ::
         :: -> dispersion             -0.111427521574 Eh    ::
         :: repulsion energy           2.152365801279 Eh    ::

    * Orbital Energies and Occupations

         #    Occupation            Energy/Eh            Energy/eV
      -------------------------------------------------------------
         1        2.0000           -0.7513589             -20.4455
       ...           ...                  ...                  ...
        93        2.0000           -0.4001576             -10.8888
        94        2.0000           -0.3994092             -10.8685
        95        2.0000           -0.3991765             -10.8621
        96        2.0000           -0.3986399             -10.8475
        97        2.0000           -0.3980949             -10.8327
        98        2.0000           -0.3967319             -10.7956
        99        2.0000           -0.3955904             -10.7646
       100        2.0000           -0.3895196             -10.5994
       101        2.0000           -0.3827830             -10.4161
       102        2.0000           -0.3812484             -10.3743
       103        2.0000           -0.3811402             -10.3714
       104        2.0000           -0.3797256             -10.3329
       105        2.0000           -0.3723188             -10.1313 (HOMO)
       106                         -0.2401548              -6.5349 (LUMO)
       107                         -0.2372426              -6.4557
       108                         -0.2355093              -6.4085
       109                         -0.2340387              -6.3685
       110                         -0.2324123              -6.3243
       111                         -0.2293695              -6.2415
       112                         -0.2243618              -6.1052
       113                         -0.2212217              -6.0197
       114                         -0.2187898              -5.9536
       115                         -0.2183426              -5.9414
       116                         -0.2179711              -5.9313
       ...                                ...                  ...
       220                          0.6801469              18.5077
      -------------------------------------------------------------
                  HL-Gap            0.1321640 Eh            3.5964 eV

     #   Z          covCN         q      C6AA      α(0)
     1   6 C        2.921    -0.027    28.669     8.781
     2   6 C        2.917    -0.028    28.712     8.787
     3   6 C        2.939    -0.030    28.742     8.793
     4   6 C        2.862    -0.094    30.356     9.031
     5  14 Si       3.617     0.487    98.194    19.019
     6   6 C        2.863    -0.094    30.365     9.032
     7   6 C        2.938    -0.031    28.763     8.796
     8   6 C        2.917    -0.030    28.742     8.791
     9   6 C        2.921    -0.028    28.709     8.787
    10   6 C        2.917    -0.029    28.734     8.790
    11   6 C        2.936    -0.031    28.785     8.799
    12   6 C        2.863    -0.094    30.359     9.032
    13   6 C        2.939    -0.031    28.766     8.796
    14   6 C        2.917    -0.030    28.747     8.792
    15   6 C        2.921    -0.028    28.708     8.786
    16   6 C        2.918    -0.029    28.733     8.790
    17   6 C        2.936    -0.032    28.798     8.801
    18   6 C        2.861    -0.096    30.412     9.039
    19   6 C        2.934    -0.030    28.742     8.792
    20   6 C        2.915    -0.030    28.757     8.794
    21   6 C        2.933    -0.030    28.761     8.795
    22   6 C        2.861    -0.095    30.391     9.036
    23  14 Si       3.618     0.487    98.185    19.018
    24   6 C        2.863    -0.094    30.351     9.030
    25   6 C        2.937    -0.031    28.778     8.798
    26   6 C        2.917    -0.029    28.730     8.790
    27   6 C        2.921    -0.028    28.710     8.787
    28   6 C        2.917    -0.030    28.746     8.792
    29   6 C        2.936    -0.031    28.772     8.797
    30   6 C        2.863    -0.095    30.385     9.035
    31   6 C        2.939    -0.030    28.752     8.794
    32   6 C        2.917    -0.029    28.715     8.787
    33   6 C        2.921    -0.027    28.680     8.782
    34   6 C        2.918    -0.030    28.739     8.791
    35   6 C        2.936    -0.032    28.797     8.801
    36   6 C        2.863    -0.094    30.346     9.030
    37   6 C        2.936    -0.032    28.792     8.800
    38   6 C        2.918    -0.029    28.731     8.790
    39   6 C        2.921    -0.028    28.709     8.787
    40   6 C        2.917    -0.030    28.744     8.792
    41   6 C        2.938    -0.031    28.769     8.797
    42   6 C        2.968    -0.036    28.885     8.816
    43   6 C        2.935    -0.032    28.802     8.802
    44   6 C        2.918    -0.029    28.731     8.790
    45   1 H        0.926     0.028     2.620     2.531
    46   1 H        0.926     0.026     2.646     2.544
    47   1 H        0.925     0.017     2.780     2.607
    48   1 H        0.925     0.020     2.739     2.588
    49   1 H        0.926     0.027     2.628     2.535
    50   1 H        0.926     0.028     2.615     2.529
    51   1 H        0.926     0.027     2.628     2.535
    52   1 H        0.926     0.020     2.738     2.587
    53   1 H        0.925     0.020     2.740     2.589
    54   1 H        0.926     0.027     2.629     2.535
    55   1 H        0.926     0.028     2.613     2.528
    56   1 H        0.926     0.027     2.625     2.534
    57   1 H        0.926     0.021     2.716     2.577
    58   1 H        0.925     0.020     2.739     2.588
    59   1 H        0.925     0.026     2.651     2.546
    60   1 H        0.926     0.021     2.725     2.581
    61   1 H        0.926     0.020     2.735     2.586
    62   1 H        0.926     0.027     2.628     2.535
    63   1 H        0.926     0.028     2.615     2.529
    64   1 H        0.926     0.027     2.627     2.535
    65   1 H        0.925     0.020     2.736     2.587
    66   1 H        0.926     0.017     2.777     2.606
    67   1 H        0.926     0.026     2.647     2.544
    68   1 H        0.926     0.027     2.624     2.533
    69   1 H        0.926     0.027     2.634     2.538
    70   1 H        0.926     0.020     2.734     2.585
    71   1 H        0.926     0.022     2.710     2.575
    72   1 H        0.926     0.027     2.624     2.533
    73   1 H        0.926     0.028     2.612     2.527
    74   1 H        0.926     0.027     2.625     2.534
    75   1 H        0.925     0.020     2.739     2.588
    76   1 H        0.926     0.010     2.882     2.655
    77   1 H        0.926     0.021     2.713     2.576
    78   1 H        0.926     0.027     2.636     2.539

molecular dipole:
                 x           y           z       tot (Debye)
 q only:       -0.002       0.019       0.044
   full:        0.012       0.022      -0.014       0.072

 projected vibrational frequencies (cm⁻¹)
eigval :       -0.00    -0.00    -0.00    -0.00     0.00     0.00
eigval :        3.91     9.31    21.53    22.34    24.71    25.83
eigval :       29.10    31.94    33.13    35.49    39.67    40.25
eigval :       41.84    45.68    48.57    50.86    54.14    66.21
eigval :      101.84   149.54   158.89   159.14   163.78   168.09
eigval :      173.71   190.50   193.04   213.15   213.70   217.73
eigval :      217.93   223.57   226.04   229.93   235.20   282.13
eigval :      358.14   358.56   359.43   359.90   361.41   362.15
eigval :      380.55   410.31   412.54   414.61   418.69   422.41
eigval :      424.00   438.47   472.17   473.12   479.59   483.29
eigval :      491.94   498.34   589.04   589.25   589.53   589.82
eigval :      589.84   590.13   640.93   661.49   662.92   663.35
eigval :      663.45   663.57   663.92   666.37   666.56   679.90
eigval :      705.11   706.71   708.70   710.23   733.39   735.46
eigval :      735.85   736.39   736.61   736.69   775.33   788.92
eigval :      881.09   881.44   882.60   883.17   884.28   885.01
eigval :      902.12   905.28   905.35   906.16   907.75   907.91
eigval :      909.70   910.59   930.90   931.52   932.04   932.27
eigval :      932.74   933.08   934.08   934.64   935.02   935.33
eigval :      935.51   935.89   936.84   975.35   975.80   977.05
eigval :      977.29   977.60   977.61   984.28  1084.81  1084.83
eigval :     1085.75  1085.80  1086.21  1086.49  1120.53  1120.96
eigval :     1121.53  1121.95  1123.05  1123.36  1130.42  1145.60
eigval :     1146.28  1151.11  1151.64  1152.83  1153.06  1154.11
eigval :     1180.14  1181.30  1182.64  1182.96  1183.02  1183.09
eigval :     1184.59  1201.02  1206.55  1207.16  1207.59  1208.64
eigval :     1210.63  1211.49  1287.15  1287.69  1287.83  1288.95
eigval :     1289.94  1290.88  1296.92  1307.24  1311.22  1311.74
eigval :     1312.25  1312.41  1313.41  1313.59  1391.35  1419.58
eigval :     1419.90  1420.17  1421.04  1421.94  1422.13  1456.17
eigval :     1464.58  1465.23  1465.94  1466.04  1466.66  1466.99
eigval :     1566.12  1576.56  1576.98  1577.21  1577.37  1578.25
eigval :     1578.32  1579.59  1593.75  1593.93  1594.22  1594.41
eigval :     1595.54  1595.87  3057.98  3059.15  3060.56  3060.63
eigval :     3060.97  3062.05  3062.32  3062.49  3062.63  3062.70
eigval :     3063.04  3064.69  3065.28  3066.46  3069.65  3069.98
eigval :     3070.00  3070.47  3070.72  3070.97  3071.19  3075.28
eigval :     3075.69  3075.79  3076.08  3076.51  3076.86  3077.01
eigval :     3084.87  3085.05  3085.30  3085.68  3085.93  3087.19

   temp. (K)  partition function   enthalpy   heat capacity  entropy
                                   cal/mol     cal/K/mol   cal/K/mol   J/K/mol
 298.15  VIB  0.738E+22            23792.764    136.488    153.676
         ROT  0.560E+08              888.752      2.981     38.434
         INT  0.413E+30            24681.516    139.468    192.110
         TR   0.140E+29             1481.254      4.968     45.013
         TOT                       26162.7701   144.4365   237.1225   992.1206

       T/K    H(0)-H(T)+PV         H(T)/Eh          T*S/Eh         G(T)/Eh
   ------------------------------------------------------------------------
    298.15    0.416930E-01    0.650347E+00    0.112665E+00    0.537682E+00
   ------------------------------------------------------------------------

         :::::::::::::::::::::::::::::::::::::::::::::::::::::
         ::                  THERMODYNAMIC                  ::
         :::::::::::::::::::::::::::::::::::::::::::::::::::::
         :: total free energy        -110.060636755976 Eh   ::
         ::.................................................::
         :: total energy             -110.598318995105 Eh   ::
         :: zero point energy           0.608653764158 Eh   ::
         :: G(RRHO) w/o ZPVE           -0.070971525029 Eh   ::
         :: G(RRHO) contrib.            0.537682239129 Eh   ::
         :::::::::::::::::::::::::::::::::::::::::::::::::::::

           -------------------------------------------------
          | TOTAL ENERGY             -110.598318995105 Eh   |
          | TOTAL ENTHALPY           -109.947972202862 Eh   |
          | TOTAL FREE ENERGY        -110.060636755976 Eh   |
          | GRADIENT NORM               0.000043755468 Eh/α |
          | HOMO-LUMO GAP               3.596364869055 eV   |
           -------------------------------------------------

 * finished run on 2025/09/14 at 14:29:12.480
