   * xtb version 6.7.1 (edcfbbe) compiled by 'albert@albert-system' on 2024-07-22

   ID    Z sym.   atoms
    1    6 C      1-4, 6-22, 24-44
    2   14 Si     5, 23
    3    1 H      45-78

          program call               : xtb data2507/gas/UGH3/UGH3_gas_S0_finalOpt.xtbopt.xyz --gfn 2 --spinpol --tblite --uhf 2 --ohess vtight --parallel 40 --molden --ceasefiles --namespace data2507/gas/UGH3/UGH3_gas_T1_preOpt
 * total energy  :  -110.4673481 Eh     change       -0.6575306E-08 Eh
 * total energy  :  -110.4699311 Eh     change       -0.2583027E-02 Eh
 * total energy  :  -110.4708115 Eh     change       -0.8803610E-03 Eh
 * total energy  :  -110.4710482 Eh     change       -0.2366710E-03 Eh
 * total energy  :  -110.4712863 Eh     change       -0.2381530E-03 Eh
 * total energy  :  -110.4713815 Eh     change       -0.9514946E-04 Eh
 * total energy  :  -110.4714536 Eh     change       -0.7208370E-04 Eh
 * total energy  :  -110.4714931 Eh     change       -0.3951008E-04 Eh
 * total energy  :  -110.4715307 Eh     change       -0.3766626E-04 Eh
 * total energy  :  -110.4715727 Eh     change       -0.4192142E-04 Eh
 * total energy  :  -110.4768421 Eh     change       -0.2312497E-06 Eh
 * total energy  :  -110.4768424 Eh     change       -0.3192784E-06 Eh
 * total energy  :  -110.4768427 Eh     change       -0.2811385E-06 Eh
 * total energy  :  -110.4768430 Eh     change       -0.3791160E-06 Eh
 * total energy  :  -110.4768435 Eh     change       -0.4152488E-06 Eh
 * total energy  :  -110.4768438 Eh     change       -0.3674418E-06 Eh
 * total energy  :  -110.4768442 Eh     change       -0.3818779E-06 Eh
 * total energy  :  -110.4768445 Eh     change       -0.3456234E-06 Eh
 * total energy  :  -110.4768446 Eh     change       -0.1002911E-07 Eh
   *** GEOMETRY OPTIMIZATION CONVERGED AFTER 260 ITERATIONS ***

 final structure:
================
78
 xtb: 6.7.1 (edcfbbe)
C            1.34333080647027        0.42954424718261       -4.61272566712863
C            1.02819288307124       -0.79033264150762       -4.03897092502899
C            1.40430083401539       -1.05872654307074       -2.73594286387695
C            2.08130902529487       -0.11219425877104       -1.97208337028340
Si           2.57631555804666       -0.48715919546825       -0.18352970401042
C            3.57865037972490       -2.09787451197710       -0.15815716728433
C            4.41799060486873       -2.42208891496359       -1.22099484973348
C            5.17082906025671       -3.58200570624440       -1.20744251392989
C            5.09481396813576       -4.44430722088430       -0.12623849825407
C            4.26021655426895       -4.14037708459812        0.93627666302885
C            3.51055931900356       -2.97810445453843        0.91764104271381
C            3.62602190876500        0.93914897305315        0.49178450933829
C            3.02268637302663        2.14001409027743        0.85534342255984
C            3.77101547129278        3.19884322980745        1.33536306205577
C            5.14476115797461        3.07318724323113        1.46220693670205
C            5.76084777242945        1.88504819744213        1.10772245914793
C            5.00582483325188        0.82983640395580        0.62682815518842
C            1.05566233019235       -0.64918887024118        0.93423027265864
C            1.17991232667903       -0.45771235473591        2.34262637254725
C            0.09627803420096       -0.71116102393946        3.19856186158610
C           -1.10665376282050       -1.09933923391565        2.68694764539116
C           -1.30428903906322       -0.98752043872834        1.26031765499231
Si          -2.71409561106226        0.10877855028474        0.58642199987209
C           -4.00936011627447       -1.16086749523652        0.00107252422106
C           -3.63221267608119       -2.35882159242508       -0.59585630423799
C           -4.58269550978169       -3.24922900701210       -1.06254671395041
C           -5.92969510418647       -2.95478767873527       -0.93517407071985
C           -6.31907242324082       -1.76535922698711       -0.34240307588963
C           -5.36481125020948       -0.87726450666013        0.12131900096338
C           -2.05059860365970        1.07773906118353       -0.89137040322912
C           -0.96828503817307        1.93954161828160       -0.72578149745782
C           -0.43706942030287        2.63364115205406       -1.79516678301948
C           -0.97218871784501        2.46694640250402       -3.06163846277554
C           -2.03339300557984        1.59798606195856       -3.24895446637177
C           -2.56593542711463        0.91209909458934       -2.17278626488333
C           -3.45952536724580        1.23102080166179        1.90173104055668
C           -3.29959843471912        2.61555316292050        1.87629521748159
C           -3.81861625668234        3.41255800820352        2.87851889848099
C           -4.50987041288792        2.84122664512263        3.93535467911724
C           -4.68063468344227        1.46691308544249        3.97699362048241
C           -4.16044016220946        0.67429481075967        2.97227002218130
C           -0.14698261247960       -1.02515673632595        0.41605141717968
C            2.39438354584663        1.10500279819896       -2.56748681738363
C            2.03689192282016        1.37388151012964       -3.87598373580764
H            1.05545455743611        0.63946879122090       -5.63274792865112
H            0.49473106885252       -1.53534765549707       -4.61211422160536
H            1.18252189928521       -2.02569965729380       -2.30589099351160
H            4.47745995990891       -1.75376516685688       -2.06884986174541
H            5.81840170313339       -3.81555477012173       -2.04070112994607
H            5.68222938276790       -5.35106171461542       -0.11322879256851
H            4.19449765921828       -4.81190766232106        1.78053667974843
H            2.85713642472185       -2.74850810724501        1.74709049547586
H            1.95042477283485        2.23887262881622        0.76102504110556
H            3.28496462165350        4.12355582784575        1.61282314226443
H            5.73245162917817        3.89831533738634        1.83810246584496
H            6.83201501126307        1.78127648303759        1.20724385806684
H            5.49126261917710       -0.09664148561716        0.35392158281665
H            2.15725244723101       -0.27084220864674        2.75937953019876
H            0.25464599518286       -0.70737119594481        4.26889917704304
H           -1.91685114505732       -1.41821683604150        3.32191741666762
H           -2.58296677560975       -2.59652170969231       -0.69337878112883
H           -4.27303011462521       -4.17565946435168       -1.52501066374148
H           -6.67391147405285       -3.65024886320156       -1.29548127951756
H           -7.36874933089402       -1.52898753260317       -0.24133718774114
H           -5.67381597996139        0.05002726072262        0.58182772338585
H           -0.54165934420172        2.06091880595854        0.26028887910970
H            0.39714135843271        3.30385856525763       -1.64538516823211
H           -0.56095050496456        3.00934890795928       -3.89997699432103
H           -2.44866780495380        1.45790003063332       -4.23688150385161
H           -3.39780584625831        0.23824457743688       -2.32453811079860
H           -2.76950455688316        3.07038180013755        1.05182644858946
H           -3.68722105445795        4.48463205375363        2.83735280730755
H           -4.91581929805130        3.46347653819121        4.71960484088229
H           -5.22290405158903        1.01490100935900        4.79564615601791
H           -4.30751689666294       -0.39619782406489        3.00701697666560
H           -0.26660909658765       -1.19371281472271       -0.64227739802786
H            2.93396339444269        1.84756293929142       -1.99685460454997
H            2.29895184019858        2.32259177583512       -4.32272303053546

 projected vibrational frequencies (cm⁻¹)
eigval :       -0.00    -0.00    -0.00    -0.00     0.00     0.00
eigval :        4.90     9.79    16.30    18.39    19.86    22.15
eigval :       23.29    32.25    34.71    37.28    37.73    41.11
eigval :       44.27    46.56    51.41    55.62    58.06    81.13
eigval :       93.16   104.88   154.62   159.26   159.83   166.03
eigval :      175.35   177.57   190.04   210.04   212.02   215.63
eigval :      215.95   219.76   224.80   226.42   228.46   264.94
eigval :      335.93   357.60   357.71   358.38   360.79   363.27
eigval :      365.21   381.27   407.09   413.12   416.73   418.15
eigval :      420.68   423.91   451.58   466.32   470.76   473.77
eigval :      478.60   480.40   559.48   586.99   588.54   589.01
eigval :      589.18   589.66   590.05   601.09   638.89   657.76
eigval :      658.26   659.97   662.08   662.84   663.08   666.94
eigval :      672.56   696.84   703.50   707.31   711.66   713.53
eigval :      729.69   732.21   734.52   734.71   735.29   737.27
eigval :      738.28   788.34   876.83   878.09   881.27   881.42
eigval :      882.04   882.77   884.93   898.70   902.94   903.80
eigval :      904.37   905.78   907.76   923.77   927.68   928.81
eigval :      930.46   930.95   931.14   931.94   932.91   933.56
eigval :      933.95   934.46   934.72   936.38   961.19   970.51
eigval :      974.97   975.89   976.56   977.11   977.88  1050.30
eigval :     1083.82  1084.17  1084.58  1085.30  1085.95  1086.88
eigval :     1110.70  1120.10  1120.74  1121.04  1121.95  1122.65
eigval :     1123.37  1125.93  1132.75  1142.82  1143.99  1148.75
eigval :     1149.60  1152.49  1181.65  1182.15  1182.33  1182.66
eigval :     1182.95  1184.08  1184.73  1205.18  1205.84  1207.02
eigval :     1207.67  1209.67  1210.95  1252.29  1285.38  1287.25
eigval :     1287.79  1288.38  1290.30  1291.97  1311.39  1311.45
eigval :     1311.98  1314.79  1316.03  1316.86  1320.87  1335.71
eigval :     1418.21  1419.70  1420.06  1420.31  1421.80  1422.16
eigval :     1449.08  1456.18  1459.62  1463.36  1464.08  1464.74
eigval :     1467.21  1475.13  1563.32  1573.23  1574.95  1575.55
eigval :     1576.81  1578.36  1581.33  1584.10  1590.17  1590.68
eigval :     1593.05  1595.77  3049.83  3059.45  3059.64  3059.86
eigval :     3061.98  3062.02  3063.43  3063.90  3064.78  3065.19
eigval :     3066.22  3066.37  3068.88  3070.34  3071.10  3071.80
eigval :     3072.01  3072.12  3074.82  3076.54  3077.05  3077.31
eigval :     3077.62  3078.14  3079.96  3081.43  3085.06  3085.13
eigval :     3085.64  3085.94  3086.43  3087.33  3089.72  3092.46

   temp. (K)  partition function   enthalpy   heat capacity  entropy
                                   cal/mol     cal/K/mol   cal/K/mol   J/K/mol
 298.15  VIB  0.203E+23            24226.994    139.314    156.806
         ROT  0.535E+08              888.752      2.981     38.344
         INT  0.109E+31            25115.746    142.295    195.150
         TR   0.140E+29             1481.254      4.968     45.013
         TOT                       26597.0002   147.2635   240.1633  1004.8433

       T/K    H(0)-H(T)+PV         H(T)/Eh          T*S/Eh         G(T)/Eh
   ------------------------------------------------------------------------
    298.15    0.423850E-01    0.646067E+00    0.114109E+00    0.531957E+00
   ------------------------------------------------------------------------

         :::::::::::::::::::::::::::::::::::::::::::::::::::::
         ::                  THERMODYNAMIC                  ::
         :::::::::::::::::::::::::::::::::::::::::::::::::::::
         :: total free energy        -109.944887290257 Eh   ::
         ::.................................................::
         :: total energy             -110.476844518582 Eh   ::
         :: zero point energy           0.603681551262 Eh   ::
         :: G(RRHO) w/o ZPVE           -0.071724322936 Eh   ::
         :: G(RRHO) contrib.            0.531957228325 Eh   ::
         :::::::::::::::::::::::::::::::::::::::::::::::::::::

           -------------------------------------------------
          | TOTAL ENERGY             -110.476844518582 Eh   |
          | TOTAL ENTHALPY           -109.830777949527 Eh   |
          | TOTAL FREE ENERGY        -109.944887290257 Eh   |
          | GRADIENT NORM               0.000035249066 Eh/α |
           -------------------------------------------------

 * finished run on 2025/09/14 at 14:29:42.810
