   * xtb version 6.7.1 (edcfbbe) compiled by 'albert@albert-system' on 2024-07-22

   ID    Z sym.   atoms
    1    6 C      1-5, 7-13, 15-19, 21-29, 31-53, 55, 56
    2    7 N      6, 14, 20, 30, 54
    3    1 H      57-89

          program call               : xtb data2507/gas/1PCTRz/1PCTRz_gas_T1_crest.xyz --gfn 2 --spinpol --tblite --uhf 2 --ohess vtight --parallel 40 --molden --ceasefiles --namespace data2507/gas/1PCTRz/1PCTRz_gas_T1_finalOpt
 * total energy  :  -140.6681924 Eh     change       -0.1490650E-07 Eh
 * total energy  :  -140.6682646 Eh     change       -0.7219409E-04 Eh
 * total energy  :  -140.6682920 Eh     change       -0.2740763E-04 Eh
 * total energy  :  -140.6682948 Eh     change       -0.2728155E-05 Eh
 * total energy  :  -140.6682973 Eh     change       -0.2550989E-05 Eh
 * total energy  :  -140.6682991 Eh     change       -0.1765293E-05 Eh
 * total energy  :  -140.6683013 Eh     change       -0.2189715E-05 Eh
 * total energy  :  -140.6683035 Eh     change       -0.2232607E-05 Eh
 * total energy  :  -140.6683054 Eh     change       -0.1860656E-05 Eh
 * total energy  :  -140.6683069 Eh     change       -0.1535634E-05 Eh
 * total energy  :  -140.6683126 Eh     change       -0.2075499E-06 Eh
 * total energy  :  -140.6683128 Eh     change       -0.2106792E-06 Eh
 * total energy  :  -140.6683130 Eh     change       -0.1500203E-06 Eh
 * total energy  :  -140.6683133 Eh     change       -0.3111656E-06 Eh
 * total energy  :  -140.6683132 Eh     change        0.5088103E-07 Eh
 * total energy  :  -140.6683134 Eh     change       -0.1639039E-06 Eh
 * total energy  :  -140.6683136 Eh     change       -0.1950417E-06 Eh
 * total energy  :  -140.6683137 Eh     change       -0.1646134E-06 Eh
 * total energy  :  -140.6683138 Eh     change       -0.9699551E-07 Eh
   *** GEOMETRY OPTIMIZATION CONVERGED AFTER 30 ITERATIONS ***

 final structure:
================
89
 xtb: 6.7.1 (edcfbbe)
C           -7.00841863374155        5.43099083032683       -0.86628955316858
C           -5.70480061071644        5.00790332842619       -1.08288938663300
C           -5.33984306281799        3.70862669476401       -0.79691380216618
C           -6.28144063000129        2.81218482927831       -0.28785907252959
C           -5.90262386653789        1.44050125294370        0.01631223895548
N           -6.85286940207842        0.60338522903518        0.48828471348984
C           -6.47940554483376       -0.66495239301568        0.76797339288619
C           -7.48610527381360       -1.58262462416633        1.27951699637971
C           -8.80153615005839       -1.15269965725289        1.46130950913555
C           -9.75474726438365       -2.02431846376695        1.94817473528968
C           -9.41086824795566       -3.33102987128446        2.25915632569105
C           -8.10499256397798       -3.76471767412288        2.08034140762626
C           -7.14656723768329       -2.89979483110220        1.59415372215058
N           -5.25535283857516       -1.08195368648683        0.59852699396974
C           -4.32258601908469       -0.22168674482275        0.11810485195373
C           -2.98425243605591       -0.65493070574545       -0.07230928546301
C           -2.60178570502642       -1.98174907800085        0.21401713655842
C           -1.30209465011766       -2.38176189565245        0.03787183438493
C           -0.33788920155187       -1.48927719667447       -0.43574392166171
N            0.99419175046210       -1.91639023354369       -0.58725572887523
C            1.42452091226801       -2.92420464681064       -1.42454889700289
C            0.67925012006363       -3.81447582585747       -2.18439255777392
C            1.36626481054364       -4.72957351581627       -2.95959487725570
C            2.75900675650835       -4.75841435922696       -2.98773763739699
C            3.50630356359676       -3.86081986277281       -2.24866237004058
C            2.83949480090011       -2.93165731325946       -1.46274994102287
C            3.27126957720289       -1.85961508204948       -0.60926757186464
C            4.51103986405629       -1.33218921332672       -0.29152489951508
C            4.56309599902913       -0.23712472294212        0.56250508550695
N            5.79127712170154        0.36876390633177        0.85537130439911
C            6.93846077827497       -0.26520747619180        1.28316514362527
C            7.15013326523114       -1.60560911555611        1.57516332593334
C            8.40484187972137       -1.97768058801168        2.01947666228973
C            9.42547462201665       -1.04370253816822        2.18052911361085
C            9.21360324590365        0.29595194403673        1.91376772159171
C            7.96273440209776        0.69387646391264        1.46514625387564
C            7.39422424301475        1.96803401724297        1.11676576347846
C            7.89730811898501        3.26025125524592        1.07094458943811
C            7.06359542038413        4.27962621078647        0.65097902986409
C            5.75069036876904        4.02025687170961        0.26419374999578
C            5.22590260325217        2.74228477150221        0.30137469381495
C            6.05172872620723        1.71953964839132        0.74803916620195
C            3.39479833107588        0.28662676313391        1.13634919732498
C            2.15612015115037       -0.22742997940519        0.83094423521696
C            2.09274952402183       -1.27520179678635       -0.08114596671795
C           -0.69935966368310       -0.16261791088424       -0.74748118416788
C            0.29543849320690        0.78807011457776       -1.27873605156334
C            0.44082842092472        2.04300740004111       -0.69373145171324
C            1.40975607356120        2.92072755994714       -1.14291200877116
C            2.24383011162877        2.56071697690839       -2.18818437685750
C            2.08621390634898        1.32702434720964       -2.79698908269893
C            1.11746015556402        0.44824023625761       -2.35002016916734
C           -2.00428483423821        0.23504781276831       -0.55100940422876
N           -4.67076286019300        1.05701228416891       -0.17390022397991
C           -7.59120707194129        3.24391166368686       -0.07254201832987
C           -7.94831744362804        4.54570122358310       -0.36099386965150
H           -7.29064450893064        6.44900344971586       -1.09145789200017
H           -4.97330188700891        5.69827956699273       -1.47731998426138
H           -4.33032118571534        3.36467388113160       -0.96147586001613
H           -9.05432298439709       -0.13294184237782        1.21472422586481
H          -10.77167429756583       -1.68707445932738        2.08740552706510
H          -10.15864223182699       -4.01090727834023        2.64033492154479
H           -7.83820988750523       -4.78315149718506        2.32302599144013
H           -6.12678240353776       -3.22182633413655        1.45018037635737
H           -3.34833309800437       -2.66655500806804        0.58339615443467
H           -1.00052008787156       -3.39003470056656        0.28382636981994
H           -0.39958735358245       -3.78653602990537       -2.17481267585447
H            0.81172770131650       -5.43581155925127       -3.55928269346613
H            3.25864503490980       -5.49020384382819       -3.60464183884149
H            4.58523311948696       -3.87666249603612       -2.28286697835164
H            5.41493612352775       -1.73350532949032       -0.72330687078603
H            6.35856755457865       -2.33208216525904        1.47126295044349
H            8.59678628438032       -3.01484011967669        2.25093328597399
H           10.39279301747254       -1.37410819260456        2.52818759448316
H           10.00102416026602        1.02075291438432        2.05457042766147
H            8.91991688067798        3.46050186459614        1.35268326826765
H            7.43525331632777        5.29259785714309        0.61063596892235
H            5.12992507742592        4.83578717768692       -0.07603028628504
H            4.21388984720548        2.54454340485722       -0.01877006890694
H            3.48348079063620        1.09853802317120        1.84184827300986
H            1.26243923707508        0.16612838873737        1.28797220445664
H           -0.19917297070737        2.31909953913517        0.13217156705892
H            1.51891276687375        3.88708566945065       -0.67150387432245
H            3.00949010738421        3.24080350019597       -2.53217571441783
H            2.72292930070433        1.04661180195106       -3.62338920586989
H            0.99239020266261       -0.50549464561124       -2.84301611740010
H           -2.30345439988290        1.24294144247153       -0.79453674980892
H           -8.31172635366149        2.54368425741830        0.32130827757624
H           -8.96328478109342        4.87545264231135       -0.19264778202339

 projected vibrational frequencies (cm⁻¹)
eigval :       -0.00    -0.00    -0.00     0.00     0.00     0.00
eigval :        8.56    10.17    13.46    24.74    26.24    27.58
eigval :       30.21    32.08    37.92    45.81    49.72    53.05
eigval :       65.95    72.29    88.61    94.85   101.19   102.96
eigval :      111.97   113.68   138.32   138.93   150.06   156.25
eigval :      161.89   185.12   190.22   197.47   213.86   222.97
eigval :      244.87   246.94   258.28   267.09   272.05   281.17
eigval :      289.67   294.48   333.72   346.13   363.62   366.48
eigval :      367.23   368.93   376.58   383.17   397.12   399.67
eigval :      408.61   409.14   413.39   422.31   427.33   433.51
eigval :      437.49   441.80   468.81   507.42   516.86   529.87
eigval :      531.70   539.31   540.90   541.65   544.85   555.75
eigval :      558.26   564.68   582.60   584.14   587.17   588.26
eigval :      588.61   595.91   599.92   603.30   611.90   627.49
eigval :      635.09   644.65   652.42   661.28   667.63   673.55
eigval :      674.41   678.86   679.43   683.10   707.56   709.68
eigval :      720.68   726.40   754.85   760.35   761.99   762.70
eigval :      770.41   774.65   780.54   792.85   799.32   812.75
eigval :      827.32   855.57   861.44   865.77   869.14   871.25
eigval :      872.10   875.00   881.01   882.61   891.76   897.85
eigval :      898.41   899.83   902.77   903.45   904.78   908.43
eigval :      910.67   915.41   922.35   922.91   923.80   925.36
eigval :      925.65   926.30   928.45   928.69   933.53   935.43
eigval :      953.41   970.87   972.64   982.87   989.90  1012.10
eigval :     1024.68  1037.10  1065.02  1068.38  1069.49  1072.89
eigval :     1073.57  1075.62  1085.29  1105.68  1109.07  1109.67
eigval :     1117.43  1123.16  1134.39  1141.91  1146.76  1149.08
eigval :     1154.46  1171.86  1177.06  1179.32  1179.96  1180.00
eigval :     1180.51  1181.45  1185.66  1189.07  1189.93  1200.58
eigval :     1219.90  1222.06  1233.32  1236.76  1242.80  1251.22
eigval :     1266.55  1268.17  1272.54  1274.96  1283.40  1285.64
eigval :     1292.68  1298.18  1299.62  1317.16  1330.69  1331.52
eigval :     1332.41  1334.67  1347.97  1354.69  1357.14  1359.57
eigval :     1368.53  1388.45  1397.73  1412.98  1418.66  1420.73
eigval :     1424.38  1428.54  1435.12  1437.58  1439.40  1444.58
eigval :     1463.14  1466.98  1468.24  1470.63  1478.31  1485.03
eigval :     1485.88  1488.16  1502.06  1554.39  1557.60  1571.07
eigval :     1571.10  1571.76  1577.85  1582.12  1584.80  1585.22
eigval :     1586.72  1588.89  1593.13  1600.54  1602.55  1608.84
eigval :     3069.07  3071.31  3072.92  3073.05  3075.08  3077.47
eigval :     3077.67  3078.01  3079.23  3079.99  3080.70  3083.14
eigval :     3084.29  3085.48  3085.84  3088.41  3088.67  3090.63
eigval :     3091.09  3092.61  3093.51  3095.03  3096.35  3097.34
eigval :     3097.60  3098.33  3098.68  3099.36  3099.89  3100.26
eigval :     3100.79  3105.40  3108.04

   temp. (K)  partition function   enthalpy   heat capacity  entropy
                                   cal/mol     cal/K/mol   cal/K/mol   J/K/mol
 298.15  VIB  0.867E+21            26048.652    163.330    162.604
         ROT  0.152E+09              888.752      2.981     40.416
         INT  0.132E+30            26937.404    166.311    203.019
         TR   0.185E+29             1481.254      4.968     45.564
         TOT                       28418.6580   171.2787   248.5839  1040.0749

       T/K    H(0)-H(T)+PV         H(T)/Eh          T*S/Eh         G(T)/Eh
   ------------------------------------------------------------------------
    298.15    0.452880E-01    0.718464E+00    0.118110E+00    0.600353E+00
   ------------------------------------------------------------------------

         :::::::::::::::::::::::::::::::::::::::::::::::::::::
         ::                  THERMODYNAMIC                  ::
         :::::::::::::::::::::::::::::::::::::::::::::::::::::
         :: total free energy        -140.067960561948 Eh   ::
         ::.................................................::
         :: total energy             -140.668313851299 Eh   ::
         :: zero point energy           0.673175491942 Eh   ::
         :: G(RRHO) w/o ZPVE           -0.072822202590 Eh   ::
         :: G(RRHO) contrib.            0.600353289352 Eh   ::
         :::::::::::::::::::::::::::::::::::::::::::::::::::::

           -------------------------------------------------
          | TOTAL ENERGY             -140.668313851299 Eh   |
          | TOTAL ENTHALPY           -139.949850345148 Eh   |
          | TOTAL FREE ENERGY        -140.067960561948 Eh   |
          | GRADIENT NORM               0.000102513913 Eh/α |
           -------------------------------------------------

 * finished run on 2025/09/13 at 07:48:12.929
