   * xtb version 6.7.1 (edcfbbe) compiled by 'albert@albert-system' on 2024-07-22

   ID    Z sym.   atoms
    1    6 C      1-5, 7-13, 15-19, 21-29, 31-53, 55, 56
    2    7 N      6, 14, 20, 30, 54
    3    1 H      57-89

          program call               : xtb data2507/gas/1PCTRz/1PCTRz_gas_S0_crest.xyz --gfn 2 --ohess vtight --parallel 40 --molden --ceasefiles --namespace data2507/gas/1PCTRz/1PCTRz_gas_S0_finalOpt
          :  Hamiltonian                  GFN2-xTB          :
 * total energy  :  -140.7410374 Eh     change       -0.1733696E-08 Eh
 * total energy  :  -140.7410415 Eh     change       -0.4063748E-05 Eh
 * total energy  :  -140.7410440 Eh     change       -0.2533531E-05 Eh
 * total energy  :  -140.7410458 Eh     change       -0.1745372E-05 Eh
 * total energy  :  -140.7410483 Eh     change       -0.2522455E-05 Eh
 * total energy  :  -140.7410512 Eh     change       -0.2865570E-05 Eh
 * total energy  :  -140.7410529 Eh     change       -0.1772526E-05 Eh
 * total energy  :  -140.7410538 Eh     change       -0.8641331E-06 Eh
 * total energy  :  -140.7410545 Eh     change       -0.7296641E-06 Eh
 * total energy  :  -140.7410551 Eh     change       -0.6145700E-06 Eh
 * total energy  :  -140.7410568 Eh     change       -0.5528407E-06 Eh
 * total energy  :  -140.7410571 Eh     change       -0.3341325E-06 Eh
 * total energy  :  -140.7410574 Eh     change       -0.2514720E-06 Eh
 * total energy  :  -140.7410577 Eh     change       -0.3037083E-06 Eh
 * total energy  :  -140.7410580 Eh     change       -0.3274571E-06 Eh
 * total energy  :  -140.7410583 Eh     change       -0.3038109E-06 Eh
 * total energy  :  -140.7410586 Eh     change       -0.2976411E-06 Eh
 * total energy  :  -140.7410588 Eh     change       -0.2005800E-06 Eh
 * total energy  :  -140.7410588 Eh     change       -0.3034302E-08 Eh
   *** GEOMETRY OPTIMIZATION CONVERGED AFTER 22 ITERATIONS ***

 final structure:
================
89
 xtb: 6.7.1 (edcfbbe)
C           -9.02907250669523        2.71083458991007        2.20534363665264
C           -7.70863708955269        3.08036213572786        2.00111812981273
C           -6.81472580020478        2.18195961884273        1.45204475982583
C           -7.23880455992641        0.90141521333468        1.10198498056032
C           -6.29440018934021       -0.05256155110306        0.52047484681286
N           -6.74517708808070       -1.26034312526394        0.19415750726127
C           -5.85278338147131       -2.09608611464447       -0.32902881498869
C           -6.30214284648001       -3.43756257504444       -0.70100588970614
C           -7.63770543400757       -3.79977518404066       -0.53704201053916
C           -8.05868360425858       -5.06715917025946       -0.88958577052707
C           -7.15414372737954       -5.98177556711185       -1.40648183395717
C           -5.82426959064975       -5.62655132938050       -1.57105246186501
C           -5.39688309200028       -4.36064117876928       -1.22110210686274
N           -4.57556050344448       -1.78577416324525       -0.53504924398633
C           -4.21190296070754       -0.55660889017995       -0.18254629773468
C           -2.81946997534083       -0.16516973099390       -0.39623226701619
C           -1.92815327225617       -1.03845681443742       -1.01698441479443
C           -0.62285424084056       -0.64994104346553       -1.22997963287859
C           -0.18163894804183        0.60500176211369       -0.81801280918865
N            1.14485206474340        0.98264895495691       -1.07238738119911
C            1.55221109975904        2.13629963006743       -1.71083716595333
C            0.79358002327325        3.09186243578415       -2.37035251736563
C            1.45992856093914        4.15553396832044       -2.94581619838522
C            2.84790747088280        4.26368586429698       -2.88644418368799
C            3.61015523686259        3.29674465535408       -2.26310088703150
C            2.96195127797733        2.21979523129626       -1.67283919612787
C            3.42007848900025        1.05205511577828       -0.97383107344629
C            4.67648547302461        0.59422615919315       -0.60786385947924
C            4.76922654239295       -0.59901971212578        0.09395530668957
N            6.03056087035726       -1.09739734378203        0.45995775756327
C            7.09718864125155       -1.28569926925511       -0.39393122997131
C            7.17897057048319       -1.07968853184992       -1.76390665286824
C            8.37487530096553       -1.37354326935553       -2.38964133276482
C            9.46659362856953       -1.86740842922597       -1.67823682870555
C            9.38501118560592       -2.09317877055327       -0.31895551611226
C            8.19303322286114       -1.80580363067210        0.33322664972809
C            7.75596022723063       -1.92841715232165        1.69518491693789
C            8.37332030222267       -2.35680555670934        2.86303772305528
C            7.65429932582734       -2.32723758539174        4.04094873267752
C            6.34000899266404       -1.86509851384113        4.06677044054302
C            5.70398513035151       -1.43391079507564        2.91883242948164
C            6.41427508207062       -1.48164479082163        1.72748353216611
C            3.61828629320672       -1.31530709131466        0.44397722012219
C            2.35980820905764       -0.86423195817847        0.10161042504502
C            2.26504034777197        0.31419436775304       -0.62479564356351
C           -1.06084950206003        1.48312216088030       -0.16523066250989
C           -0.60879145028283        2.79470309616489        0.33373053036756
C            0.55404221078204        2.91005508085828        1.09039784307026
C            0.97858818078090        4.14784707877916        1.53504317342503
C            0.24800158703911        5.28484276615931        1.23452982351189
C           -0.92088745373834        5.17677005956591        0.50049948706475
C           -1.34947536879181        3.93997487109126        0.05658518716043
C           -2.37619490451931        1.08568002947803        0.02207737532891
N           -5.03560618574491        0.34164306014496        0.34898594475189
C           -8.56710885665791        0.53490592728836        1.30933539237881
C           -9.45589938035603        1.43816987236397        1.85888448220674
H           -9.72618915981243        3.41531568029624        2.63516446354411
H           -7.37819902800782        4.07245392639509        2.27218787095030
H           -5.78365151865921        2.45199976210240        1.28640375352035
H           -8.32702385367070       -3.07486456123414       -0.13370449102865
H           -9.09439203556120       -5.34630382033470       -0.76233500138300
H           -7.48590782305364       -6.97247978811576       -1.68111968573991
H           -5.12121533672591       -6.34115413507427       -1.97347880321620
H           -4.36607196042189       -4.06679160028100       -1.34115321928855
H           -2.28019814362375       -2.00600976935381       -1.33652385376450
H            0.06916833340977       -1.30698681386292       -1.73612595510390
H           -0.27960771022362        3.00510664590126       -2.43795486094397
H            0.89271493265044        4.91834656634221       -3.45808030925088
H            3.33074020123526        5.11245137318974       -3.34721143801412
H            4.68687797631650        3.36955070229402       -2.23519652677210
H            5.56484823720068        1.15702284189165       -0.84956856817071
H            6.33319651042345       -0.71136691418476       -2.32515787230834
H            8.46500042884261       -1.21979583071566       -3.45507999313909
H           10.38511254163091       -2.08226244362708       -2.20408797410725
H           10.22666968905285       -2.48841224464459        0.22984052293593
H            9.39645719956070       -2.70125228852217        2.84550566271604
H            8.11519061954027       -2.65793657036797        4.95994973032699
H            5.80765551982269       -1.84030871365904        5.00642998696460
H            4.69069115453097       -1.06228958680293        2.95095415686655
H            3.72767578240015       -2.24286548586669        0.98523348655301
H            1.47833377231741       -1.41629550450212        0.39075624491903
H            1.12175690512126        2.02667738530244        1.34528249041041
H            1.88482422624474        4.22454631060827        2.11750024834765
H            0.58636704339178        6.25193021032176        1.57550637587377
H           -1.49871867906656        6.05988051362040        0.27013672976913
H           -2.25460658103024        3.85829416234029       -0.52831378889776
H           -3.07079795578157        1.73915912610949        0.52641758828831
H           -8.88085514135900       -0.45967724368043        1.03420593964472
H          -10.48519809672105        1.15248728641346        2.01926065531396

          :  Hamiltonian                  GFN2-xTB          :
         :: gradient norm              0.000038668886 Eh/a0 ::
         :: HOMO-LUMO gap              1.745602597609 eV    ::
         :: SCC energy              -143.366725713209 Eh    ::
         :: -> dispersion             -0.128429573605 Eh    ::
         :: repulsion energy           2.625666911843 Eh    ::

    * Orbital Energies and Occupations

         #    Occupation            Energy/Eh            Energy/eV
      -------------------------------------------------------------
         1        2.0000           -0.6844216             -18.6241
       ...           ...                  ...                  ...
       119        2.0000           -0.4115806             -11.1997
       120        2.0000           -0.4099346             -11.1549
       121        2.0000           -0.4089432             -11.1279
       122        2.0000           -0.4087712             -11.1232
       123        2.0000           -0.4076149             -11.0918
       124        2.0000           -0.3988272             -10.8526
       125        2.0000           -0.3961213             -10.7790
       126        2.0000           -0.3845792             -10.4649
       127        2.0000           -0.3727250             -10.1424
       128        2.0000           -0.3720812             -10.1248
       129        2.0000           -0.3714556             -10.1078
       130        2.0000           -0.3711015             -10.0982
       131        2.0000           -0.3531051              -9.6085 (HOMO)
       132                         -0.2889553              -7.8629 (LUMO)
       133                         -0.2868554              -7.8057
       134                         -0.2537255              -6.9042
       135                         -0.2511152              -6.8332
       136                         -0.2454300              -6.6785
       137                         -0.2391859              -6.5086
       138                         -0.2302658              -6.2659
       139                         -0.2296267              -6.2485
       140                         -0.2294306              -6.2431
       141                         -0.2261175              -6.1530
       142                         -0.2185544              -5.9472
       ...                                ...                  ...
       257                          0.7528161              20.4852
      -------------------------------------------------------------
                  HL-Gap            0.0641497 Eh            1.7456 eV

     #   Z          covCN         q      C6AA      α(0)
     1   6 C        2.920    -0.023    28.585     8.768
     2   6 C        2.918    -0.027    28.685     8.783
     3   6 C        2.924    -0.023    28.588     8.768
     4   6 C        2.984    -0.000    28.025     8.684
     5   6 C        2.982     0.202    23.706     7.987
     6   7 N        1.844    -0.294    28.476     7.908
     7   6 C        2.982     0.202    23.706     7.987
     8   6 C        2.984    -0.000    28.025     8.684
     9   6 C        2.924    -0.023    28.585     8.768
    10   6 C        2.918    -0.027    28.682     8.782
    11   6 C        2.920    -0.023    28.584     8.767
    12   6 C        2.918    -0.027    28.684     8.783
    13   6 C        2.924    -0.023    28.589     8.768
    14   7 N        1.844    -0.296    28.511     7.913
    15   6 C        2.984     0.202    23.710     7.987
    16   6 C        2.982    -0.004    28.107     8.696
    17   6 C        2.922    -0.026    28.659     8.779
    18   6 C        2.920    -0.042    29.048     8.838
    19   6 C        2.916     0.063    26.591     8.456
    20   7 N        2.803    -0.039    21.993     6.965
    21   6 C        3.079     0.049    26.825     8.491
    22   6 C        2.910    -0.048    29.187     8.859
    23   6 C        2.925    -0.032    28.794     8.800
    24   6 C        2.920    -0.040    28.991     8.830
    25   6 C        2.913    -0.032    28.803     8.800
    26   6 C        3.069    -0.017    28.351     8.731
    27   6 C        3.069    -0.015    28.318     8.726
    28   6 C        2.916    -0.046    29.153     8.854
    29   6 C        2.913     0.053    26.806     8.490
    30   7 N        2.804    -0.044    22.091     6.981
    31   6 C        3.079     0.046    26.876     8.499
    32   6 C        2.910    -0.051    29.273     8.872
    33   6 C        2.924    -0.034    28.847     8.808
    34   6 C        2.920    -0.042    29.040     8.837
    35   6 C        2.912    -0.033    28.830     8.805
    36   6 C        3.068    -0.018    28.387     8.736
    37   6 C        3.069    -0.018    28.386     8.736
    38   6 C        2.912    -0.033    28.829     8.804
    39   6 C        2.920    -0.042    29.040     8.837
    40   6 C        2.924    -0.034    28.850     8.808
    41   6 C        2.910    -0.051    29.275     8.872
    42   6 C        3.078     0.046    26.878     8.500
    43   6 C        2.926    -0.046    29.151     8.854
    44   6 C        2.909    -0.051    29.256     8.869
    45   6 C        3.078     0.044    26.925     8.507
    46   6 C        2.976     0.001    27.997     8.679
    47   6 C        2.978     0.013    27.716     8.636
    48   6 C        2.924    -0.030    28.745     8.792
    49   6 C        2.919    -0.028    28.700     8.785
    50   6 C        2.920    -0.029    28.722     8.789
    51   6 C        2.919    -0.028    28.704     8.786
    52   6 C        2.925    -0.032    28.793     8.800
    53   6 C        2.930    -0.030    28.748     8.793
    54   7 N        1.844    -0.296    28.522     7.915
    55   6 C        2.924    -0.023    28.585     8.768
    56   6 C        2.918    -0.027    28.683     8.782
    57   1 H        0.926     0.037     2.489     2.467
    58   1 H        0.926     0.037     2.491     2.468
    59   1 H        0.926     0.054     2.267     2.355
    60   1 H        0.926     0.055     2.255     2.348
    61   1 H        0.926     0.037     2.487     2.466
    62   1 H        0.926     0.037     2.488     2.467
    63   1 H        0.926     0.037     2.488     2.467
    64   1 H        0.926     0.055     2.263     2.353
    65   1 H        0.926     0.061     2.187     2.313
    66   1 H        0.926     0.046     2.366     2.405
    67   1 H        0.926     0.028     2.621     2.532
    68   1 H        0.926     0.031     2.567     2.506
    69   1 H        0.926     0.031     2.574     2.509
    70   1 H        0.926     0.034     2.535     2.490
    71   1 H        0.926     0.042     2.420     2.433
    72   1 H        0.926     0.026     2.640     2.541
    73   1 H        0.926     0.027     2.628     2.535
    74   1 H        0.926     0.026     2.645     2.543
    75   1 H        0.926     0.029     2.599     2.521
    76   1 H        0.926     0.029     2.598     2.520
    77   1 H        0.926     0.026     2.646     2.544
    78   1 H        0.926     0.027     2.633     2.537
    79   1 H        0.926     0.025     2.655     2.548
    80   1 H        0.926     0.041     2.434     2.440
    81   1 H        0.926     0.033     2.539     2.492
    82   1 H        0.926     0.029     2.606     2.525
    83   1 H        0.926     0.033     2.548     2.496
    84   1 H        0.926     0.033     2.545     2.495
    85   1 H        0.926     0.033     2.542     2.493
    86   1 H        0.926     0.033     2.539     2.492
    87   1 H        0.926     0.062     2.171     2.304
    88   1 H        0.926     0.055     2.254     2.348
    89   1 H        0.926     0.037     2.487     2.466

molecular dipole:
                 x           y           z       tot (Debye)
 q only:       -1.135       0.333      -0.106
   full:       -1.283       0.323      -0.101       3.371

 projected vibrational frequencies (cm⁻¹)
eigval :       -0.00    -0.00    -0.00     0.00     0.00     0.00
eigval :        4.99    10.61    11.50    17.32    19.27    23.16
eigval :       29.75    33.90    36.32    37.65    49.67    57.33
eigval :       62.79    69.44    87.75    90.69   100.32   102.12
eigval :      108.60   118.93   131.16   138.41   144.07   156.43
eigval :      160.70   181.82   189.40   199.46   205.60   219.48
eigval :      246.39   254.35   262.39   270.25   271.60   283.80
eigval :      291.34   306.45   337.92   351.35   364.04   364.85
eigval :      373.98   375.12   388.29   398.49   400.50   401.89
eigval :      407.82   421.02   423.50   430.17   434.30   438.58
eigval :      447.56   467.00   472.13   516.79   519.13   529.10
eigval :      538.71   541.18   542.37   547.13   558.34   565.38
eigval :      584.32   587.52   587.98   588.41   588.87   601.30
eigval :      613.21   617.58   621.52   626.52   632.18   649.29
eigval :      651.44   668.04   673.70   674.00   677.96   678.66
eigval :      682.78   706.32   708.50   710.29   721.57   752.03
eigval :      753.59   755.62   762.78   769.25   775.14   775.60
eigval :      780.53   794.54   795.50   824.96   844.07   847.59
eigval :      867.03   871.78   872.50   875.28   877.32   879.30
eigval :      880.74   884.55   891.70   896.07   898.19   901.18
eigval :      902.92   903.70   909.10   909.78   911.09   913.38
eigval :      922.07   922.56   923.05   927.04   929.51   930.62
eigval :      932.32   933.68   933.95   934.22   937.15   968.35
eigval :      972.74   985.83   990.73  1012.13  1028.23  1045.46
eigval :     1049.83  1069.68  1071.01  1073.19  1074.99  1075.98
eigval :     1085.68  1092.47  1107.39  1108.23  1111.91  1118.56
eigval :     1124.70  1139.76  1150.53  1153.20  1165.53  1167.42
eigval :     1173.14  1178.84  1180.30  1181.30  1181.60  1182.56
eigval :     1184.01  1190.12  1193.78  1201.52  1204.20  1207.15
eigval :     1223.20  1229.51  1236.69  1239.95  1246.32  1267.20
eigval :     1268.62  1274.15  1279.59  1283.40  1296.83  1306.38
eigval :     1307.79  1318.19  1322.78  1327.95  1329.62  1341.25
eigval :     1346.45  1358.33  1360.86  1363.87  1369.77  1371.99
eigval :     1375.26  1389.37  1413.90  1422.59  1428.45  1429.04
eigval :     1432.60  1433.86  1434.26  1441.86  1468.20  1473.17
eigval :     1474.94  1478.13  1479.72  1489.21  1490.93  1493.15
eigval :     1512.27  1516.57  1558.24  1567.00  1574.42  1581.28
eigval :     1584.19  1585.06  1586.39  1587.24  1589.32  1595.18
eigval :     1595.74  1599.16  1600.17  1601.53  1615.32  1616.45
eigval :     3072.23  3073.93  3074.30  3074.63  3074.75  3074.90
eigval :     3079.12  3079.34  3080.29  3080.84  3080.91  3081.00
eigval :     3085.12  3085.24  3086.18  3086.75  3087.09  3087.96
eigval :     3090.03  3090.44  3093.37  3093.64  3095.06  3095.41
eigval :     3098.37  3099.54  3100.71  3106.23  3107.57  3108.11
eigval :     3108.26  3109.61  3114.55

   temp. (K)  partition function   enthalpy   heat capacity  entropy
                                   cal/mol     cal/K/mol   cal/K/mol   J/K/mol
 298.15  VIB  0.367E+22            25740.938    160.209    162.334
         ROT  0.166E+09              888.752      2.981     40.601
         INT  0.610E+30            26629.690    163.190    202.935
         TR   0.185E+29             1481.254      4.968     45.564
         TOT                       28110.9440   168.1580   248.4991  1039.7201

       T/K    H(0)-H(T)+PV         H(T)/Eh          T*S/Eh         G(T)/Eh
   ------------------------------------------------------------------------
    298.15    0.447976E-01    0.723325E+00    0.118070E+00    0.605255E+00
   ------------------------------------------------------------------------

         :::::::::::::::::::::::::::::::::::::::::::::::::::::
         ::                  THERMODYNAMIC                  ::
         :::::::::::::::::::::::::::::::::::::::::::::::::::::
         :: total free energy        -140.135803609131 Eh   ::
         ::.................................................::
         :: total energy             -140.741058801366 Eh   ::
         :: zero point energy           0.678527474324 Eh   ::
         :: G(RRHO) w/o ZPVE           -0.073272282089 Eh   ::
         :: G(RRHO) contrib.            0.605255192235 Eh   ::
         :::::::::::::::::::::::::::::::::::::::::::::::::::::

           -------------------------------------------------
          | TOTAL ENERGY             -140.741058801366 Eh   |
          | TOTAL ENTHALPY           -140.017733686218 Eh   |
          | TOTAL FREE ENERGY        -140.135803609131 Eh   |
          | GRADIENT NORM               0.000038664260 Eh/α |
          | HOMO-LUMO GAP               1.745602907012 eV   |
           -------------------------------------------------

 * finished run on 2025/09/13 at 07:37:38.702
