   * xtb version 6.7.1 (edcfbbe) compiled by 'albert@albert-system' on 2024-07-22

   ID    Z sym.   atoms
    1    6 C      1-5, 7-13, 15-19, 21-29, 31-53, 55, 56
    2    7 N      6, 14, 20, 30, 54
    3    1 H      57-89

          program call               : xtb data2507/gas/1PCTRz/1PCTRz.xyz --gfn 2 --ohess vtight --parallel 40 --molden --ceasefiles --namespace data2507/gas/1PCTRz/1PCTRz_gas_S0_preOpt
          :  Hamiltonian                  GFN2-xTB          :
 * total energy  :  -140.7171028 Eh     change       -0.2120714E-08 Eh
 * total energy  :  -140.7327996 Eh     change       -0.1569674E-01 Eh
 * total energy  :  -140.7371582 Eh     change       -0.4358627E-02 Eh
 * total energy  :  -140.7385090 Eh     change       -0.1350798E-02 Eh
 * total energy  :  -140.7393384 Eh     change       -0.8294441E-03 Eh
 * total energy  :  -140.7396727 Eh     change       -0.3342512E-03 Eh
 * total energy  :  -140.7399069 Eh     change       -0.2342474E-03 Eh
 * total energy  :  -140.7401127 Eh     change       -0.2058036E-03 Eh
 * total energy  :  -140.7402994 Eh     change       -0.1866581E-03 Eh
 * total energy  :  -140.7404789 Eh     change       -0.1794741E-03 Eh
 * total energy  :  -140.7410425 Eh     change       -0.8527858E-06 Eh
 * total energy  :  -140.7410432 Eh     change       -0.6969627E-06 Eh
 * total energy  :  -140.7410436 Eh     change       -0.4634088E-06 Eh
 * total energy  :  -140.7410440 Eh     change       -0.3471790E-06 Eh
 * total energy  :  -140.7410443 Eh     change       -0.3759768E-06 Eh
 * total energy  :  -140.7410449 Eh     change       -0.5167024E-06 Eh
 * total energy  :  -140.7410456 Eh     change       -0.7044730E-06 Eh
 * total energy  :  -140.7410464 Eh     change       -0.8323660E-06 Eh
 * total energy  :  -140.7410464 Eh     change       -0.1698533E-07 Eh
   *** GEOMETRY OPTIMIZATION CONVERGED AFTER 44 ITERATIONS ***

 final structure:
================
89
 xtb: 6.7.1 (edcfbbe)
C           -9.06229488328090        2.59406141073474        2.15600683078014
C           -7.73531090234296        2.95739314501797        1.98599953257176
C           -6.83594940200056        2.06164869058622        1.44149348574587
C           -7.26101649218897        0.78979781776355        1.06216468809721
C           -6.31093025992363       -0.16144150774439        0.48547979230468
N           -6.75490657121976       -1.37297704854080        0.16382805898775
C           -5.85757990110142       -2.20602896458716       -0.35525396711686
C           -6.30046317280013       -3.54986303125394       -0.72653866689705
C           -7.62726213963017       -3.92888992904488       -0.53220585982967
C           -8.04274550929872       -5.19789338374125       -0.88543791886446
C           -7.14148010576387       -6.09729168946036       -1.43379269940827
C           -5.82034609787972       -5.72528547446627       -1.62883203403679
C           -5.39837714509966       -4.45785150438657       -1.27781413330782
N           -4.58125252326558       -1.89056021561020       -0.55861930529546
C           -4.22464925024619       -0.65769382238006       -0.21171496042584
C           -2.83384359033391       -0.26058172047200       -0.42562445210102
C           -1.92459685268227       -1.15344895801119       -0.99000810172354
C           -0.62109788920022       -0.76069308125343       -1.20534235638378
C           -0.19994938605025        0.51922822704935       -0.85342678379265
N            1.12530987481128        0.89804121190343       -1.11230737364608
C            1.52924893693562        2.01569361459540       -1.81364616905706
C            0.76840184013623        2.92904510152156       -2.52811478563942
C            1.43182760907024        3.96128433945502       -3.16129452368544
C            2.81916927576359        4.07871870948461       -3.10464325853832
C            3.58375636877522        3.15232026898168       -2.42509596056485
C            2.93857112484173        2.10773949329448       -1.77622073561336
C            3.39982591543068        0.98340710750303       -1.01113600071349
C            4.65701715154400        0.55150955114770       -0.61708465403293
C            4.75191578310919       -0.59934609770682        0.15191252282859
N            6.01386156600187       -1.07277747160087        0.54811688962792
C            7.07900479323419       -1.31790723362707       -0.29290369306494
C            7.16037607735880       -1.19719945052030       -1.67300430291200
C            8.35446808684476       -1.53438056044908       -2.28007005711884
C            9.44470421205829       -1.98784443105527       -1.54004407555214
C            9.36361720821598       -2.12813735996150       -0.16925646604875
C            8.17344872493339       -1.79590480520230        0.46467303260402
C            7.73699268129410       -1.83155844466640        1.83190279804888
C            8.35327888491988       -2.18829844202700        3.02416861752818
C            7.63496158772266       -2.08208743751117        4.19810725385255
C            6.32228820861926       -1.61459595537861        4.19539146508786
C            5.68713684566637       -1.25422259948625        3.02283869025365
C            6.39693714289516       -1.37882922627638        1.83679596361379
C            3.60277739863664       -1.29853717756975        0.54028930328947
C            2.34371203245845       -0.87310163769324        0.16890162468282
C            2.24686145828461        0.26133320503409       -0.62426758853595
C           -1.09754308731677        1.41907152545913       -0.25794663696255
C           -0.66814757679896        2.76110996213739        0.17575222758543
C            0.48603778386158        2.93295995097843        0.93494570527867
C            0.88877004232631        4.19842587239545        1.31781300121300
C            0.14478898122631        5.30735267503145        0.95230499564112
C           -1.01561974589239        5.14393338332471        0.21505677861528
C           -1.42237675552895        3.87949754243341       -0.16721813261818
C           -2.41031804245708        1.01503228886241       -0.06577747961996
N           -5.05430829457164        0.23917471460770        0.31277366491159
C           -8.59583973368980        0.42935488344792        1.23551923135812
C           -9.49016312718151        1.33011984593363        1.78014930866474
H           -9.76371375064110        3.29657550407328        2.58202981822565
H           -7.40398969640278        3.94257729856838        2.28017796982723
H           -5.79962829149001        2.32686148184569        1.30300019510500
H           -8.31399480904549       -3.21579396616148       -0.10416834527629
H           -9.07161358656742       -5.49010937382980       -0.73429121838236
H           -7.46900434501446       -7.08913744961548       -1.70941172465181
H           -5.11993330795794       -6.42791978194414       -2.05617667190672
H           -4.37456827308813       -4.15089451386587       -1.42240068500926
H           -2.26113819812660       -2.14039307497257       -1.26352992512579
H            0.08542227218093       -1.43445511559299       -1.66759989589097
H           -0.30419917138878        2.83395901237623       -2.59348665012415
H            0.86276969234374        4.69124106738792       -3.71751207695804
H            3.29968917393339        4.90189376253648       -3.61191390658630
H            4.66006383519938        3.23147223303838       -2.39852793633972
H            5.54430141879023        1.10211936604366       -0.88899561130981
H            6.31562672715563       -0.86034465113945       -2.25520575604126
H            8.44435021924697       -1.44737317894713       -3.35304579366861
H           10.36176630667139       -2.23902633986660       -2.05216906831056
H           10.20421142968045       -2.49193032835030        0.40244021104373
H            9.37506101247403       -2.53716848688559        3.02805152986581
H            8.09517459036881       -2.35608173060178        5.13591646749981
H            5.79064304844553       -1.52890354161815        5.13186941738984
H            4.67495719135558       -0.87822500593246        3.03138265376285
H            3.71442177716990       -2.19251764105591        1.13499614381965
H            1.46333735122584       -1.41113550223918        0.48648162029599
H            1.06398311546704        2.07262937664063        1.24054387068212
H            1.78842142607257        4.31878786145322        1.90309951065061
H            0.46610736136985        6.29579077427972        1.24520296212316
H           -1.60399873073876        6.00516387153963       -0.06592632597627
H           -2.32089420804798        3.75431486760898       -0.75463312212107
H           -3.11925092875612        1.68495941537185        0.39514540292441
H           -8.91045505712190       -0.55826073107890        0.93726551262407
H          -10.52462175398645        1.04929864394097        1.91365009777634

          :  Hamiltonian                  GFN2-xTB          :
         :: gradient norm              0.000075407602 Eh/a0 ::
         :: HOMO-LUMO gap              1.744163534190 eV    ::
         :: SCC energy              -143.366722004722 Eh    ::
         :: -> dispersion             -0.128330922247 Eh    ::
         :: repulsion energy           2.625675596705 Eh    ::

    * Orbital Energies and Occupations

         #    Occupation            Energy/Eh            Energy/eV
      -------------------------------------------------------------
         1        2.0000           -0.6844402             -18.6246
       ...           ...                  ...                  ...
       119        2.0000           -0.4115446             -11.1987
       120        2.0000           -0.4099804             -11.1561
       121        2.0000           -0.4089445             -11.1279
       122        2.0000           -0.4087850             -11.1236
       123        2.0000           -0.4076313             -11.0922
       124        2.0000           -0.3987797             -10.8513
       125        2.0000           -0.3961950             -10.7810
       126        2.0000           -0.3846126             -10.4658
       127        2.0000           -0.3727411             -10.1428
       128        2.0000           -0.3720313             -10.1235
       129        2.0000           -0.3714748             -10.1083
       130        2.0000           -0.3710345             -10.0964
       131        2.0000           -0.3531242              -9.6090 (HOMO)
       132                         -0.2890274              -7.8648 (LUMO)
       133                         -0.2868696              -7.8061
       134                         -0.2538254              -6.9069
       135                         -0.2511214              -6.8334
       136                         -0.2454965              -6.6803
       137                         -0.2391241              -6.5069
       138                         -0.2302482              -6.2654
       139                         -0.2296252              -6.2484
       140                         -0.2294477              -6.2436
       141                         -0.2261972              -6.1551
       142                         -0.2185116              -5.9460
       ...                                ...                  ...
       257                          0.7528834              20.4870
      -------------------------------------------------------------
                  HL-Gap            0.0640968 Eh            1.7442 eV

     #   Z          covCN         q      C6AA      α(0)
     1   6 C        2.920    -0.023    28.585     8.768
     2   6 C        2.918    -0.027    28.685     8.783
     3   6 C        2.924    -0.023    28.587     8.768
     4   6 C        2.984    -0.000    28.025     8.684
     5   6 C        2.982     0.202    23.706     7.987
     6   7 N        1.844    -0.294    28.476     7.908
     7   6 C        2.982     0.202    23.706     7.987
     8   6 C        2.984    -0.000    28.025     8.684
     9   6 C        2.924    -0.023    28.585     8.768
    10   6 C        2.918    -0.027    28.682     8.782
    11   6 C        2.920    -0.023    28.584     8.767
    12   6 C        2.918    -0.027    28.684     8.783
    13   6 C        2.924    -0.023    28.588     8.768
    14   7 N        1.844    -0.296    28.510     7.913
    15   6 C        2.984     0.202    23.711     7.987
    16   6 C        2.982    -0.004    28.107     8.696
    17   6 C        2.922    -0.026    28.659     8.779
    18   6 C        2.920    -0.042    29.047     8.838
    19   6 C        2.916     0.063    26.592     8.456
    20   7 N        2.804    -0.039    21.990     6.965
    21   6 C        3.079     0.049    26.826     8.491
    22   6 C        2.910    -0.048    29.188     8.859
    23   6 C        2.925    -0.032    28.794     8.800
    24   6 C        2.920    -0.040    28.990     8.830
    25   6 C        2.913    -0.032    28.803     8.800
    26   6 C        3.069    -0.017    28.351     8.731
    27   6 C        3.069    -0.015    28.319     8.726
    28   6 C        2.916    -0.046    29.151     8.854
    29   6 C        2.913     0.053    26.806     8.490
    30   7 N        2.804    -0.044    22.094     6.981
    31   6 C        3.079     0.046    26.875     8.499
    32   6 C        2.910    -0.051    29.273     8.872
    33   6 C        2.924    -0.034    28.847     8.808
    34   6 C        2.920    -0.042    29.040     8.837
    35   6 C        2.912    -0.033    28.830     8.805
    36   6 C        3.069    -0.018    28.388     8.736
    37   6 C        3.069    -0.018    28.387     8.736
    38   6 C        2.912    -0.033    28.829     8.804
    39   6 C        2.920    -0.042    29.041     8.837
    40   6 C        2.924    -0.034    28.850     8.808
    41   6 C        2.910    -0.051    29.275     8.872
    42   6 C        3.078     0.046    26.877     8.500
    43   6 C        2.926    -0.046    29.148     8.854
    44   6 C        2.909    -0.051    29.255     8.869
    45   6 C        3.078     0.044    26.925     8.507
    46   6 C        2.976     0.001    27.997     8.679
    47   6 C        2.978     0.013    27.715     8.636
    48   6 C        2.924    -0.030    28.745     8.792
    49   6 C        2.919    -0.028    28.700     8.785
    50   6 C        2.920    -0.029    28.722     8.789
    51   6 C        2.919    -0.028    28.704     8.786
    52   6 C        2.925    -0.032    28.794     8.800
    53   6 C        2.930    -0.030    28.749     8.793
    54   7 N        1.844    -0.296    28.521     7.915
    55   6 C        2.924    -0.023    28.585     8.768
    56   6 C        2.918    -0.027    28.683     8.782
    57   1 H        0.926     0.037     2.489     2.467
    58   1 H        0.926     0.037     2.491     2.468
    59   1 H        0.926     0.054     2.267     2.355
    60   1 H        0.926     0.055     2.255     2.348
    61   1 H        0.926     0.037     2.487     2.466
    62   1 H        0.926     0.037     2.488     2.467
    63   1 H        0.926     0.037     2.488     2.467
    64   1 H        0.926     0.055     2.264     2.353
    65   1 H        0.926     0.061     2.186     2.312
    66   1 H        0.926     0.046     2.367     2.406
    67   1 H        0.926     0.028     2.621     2.532
    68   1 H        0.926     0.031     2.567     2.506
    69   1 H        0.926     0.031     2.574     2.509
    70   1 H        0.926     0.034     2.534     2.489
    71   1 H        0.926     0.042     2.420     2.433
    72   1 H        0.926     0.026     2.641     2.542
    73   1 H        0.926     0.027     2.629     2.535
    74   1 H        0.926     0.026     2.645     2.543
    75   1 H        0.926     0.029     2.599     2.521
    76   1 H        0.926     0.029     2.598     2.521
    77   1 H        0.926     0.026     2.646     2.544
    78   1 H        0.926     0.027     2.633     2.538
    79   1 H        0.926     0.025     2.656     2.549
    80   1 H        0.926     0.041     2.435     2.440
    81   1 H        0.926     0.033     2.539     2.492
    82   1 H        0.926     0.029     2.605     2.524
    83   1 H        0.926     0.033     2.548     2.496
    84   1 H        0.926     0.033     2.545     2.495
    85   1 H        0.926     0.033     2.542     2.493
    86   1 H        0.926     0.033     2.539     2.492
    87   1 H        0.926     0.062     2.170     2.304
    88   1 H        0.926     0.055     2.254     2.348
    89   1 H        0.926     0.037     2.486     2.466

molecular dipole:
                 x           y           z       tot (Debye)
 q only:       -1.144       0.322      -0.134
   full:       -1.292       0.311      -0.131       3.393

 projected vibrational frequencies (cm⁻¹)
eigval :       -0.00    -0.00     0.00     0.00     0.00     0.00
eigval :        4.78    10.58    11.37    16.99    19.18    23.14
eigval :       29.56    33.87    36.24    37.41    49.59    57.24
eigval :       62.61    70.10    87.39    90.41   100.22   101.69
eigval :      108.31   119.25   130.68   139.14   143.90   155.62
eigval :      160.61   181.72   189.30   199.53   205.15   219.89
eigval :      246.39   254.44   262.13   269.93   271.52   283.61
eigval :      290.88   306.48   337.68   351.60   364.00   364.83
eigval :      374.12   375.12   388.33   398.49   400.38   401.76
eigval :      406.94   421.26   423.79   430.57   434.18   438.61
eigval :      447.11   467.24   472.25   516.91   519.24   529.06
eigval :      538.41   541.20   542.83   546.92   558.00   564.94
eigval :      584.24   587.52   587.97   588.39   588.89   601.22
eigval :      613.25   617.76   621.52   626.51   632.16   649.38
eigval :      651.39   668.08   673.66   673.97   677.90   678.69
eigval :      682.79   706.37   708.45   710.24   721.52   752.40
eigval :      753.28   755.60   762.80   769.22   775.06   775.59
eigval :      780.50   794.50   795.48   824.89   844.12   847.51
eigval :      867.04   871.61   872.43   875.23   877.28   879.34
eigval :      880.70   884.21   891.70   896.10   898.21   901.19
eigval :      902.87   903.57   909.06   909.78   911.11   913.30
eigval :      922.04   922.48   922.94   927.01   929.52   930.62
eigval :      932.40   933.69   933.96   934.19   937.18   968.36
eigval :      972.76   985.82   990.72  1012.14  1028.21  1045.48
eigval :     1049.81  1069.56  1071.05  1073.06  1074.99  1075.98
eigval :     1085.71  1092.49  1107.35  1108.20  1111.93  1118.57
eigval :     1124.74  1139.70  1150.55  1153.08  1165.49  1167.40
eigval :     1173.15  1178.84  1180.30  1181.30  1181.62  1182.58
eigval :     1183.94  1190.10  1193.77  1201.58  1204.21  1207.18
eigval :     1223.11  1229.59  1236.73  1239.86  1246.36  1267.18
eigval :     1268.61  1274.13  1279.51  1283.41  1296.89  1306.50
eigval :     1307.94  1318.17  1322.90  1327.95  1329.62  1341.37
eigval :     1346.48  1358.31  1360.83  1363.91  1369.76  1371.99
eigval :     1375.27  1389.47  1413.79  1422.61  1428.52  1429.12
eigval :     1432.60  1433.85  1434.25  1442.04  1468.20  1473.21
eigval :     1475.01  1478.14  1479.76  1489.22  1490.97  1493.14
eigval :     1512.31  1516.57  1558.36  1567.03  1574.40  1581.27
eigval :     1584.19  1585.04  1586.36  1587.24  1589.38  1595.19
eigval :     1595.75  1599.17  1600.14  1601.46  1615.30  1616.44
eigval :     3072.17  3073.86  3074.24  3074.65  3074.73  3074.98
eigval :     3079.03  3079.34  3080.19  3080.86  3080.90  3081.02
eigval :     3085.00  3085.27  3086.07  3086.74  3087.00  3087.83
eigval :     3090.03  3090.44  3093.32  3093.72  3095.00  3095.33
eigval :     3098.19  3099.38  3100.82  3106.30  3107.62  3108.19
eigval :     3108.37  3109.67  3114.91

   temp. (K)  partition function   enthalpy   heat capacity  entropy
                                   cal/mol     cal/K/mol   cal/K/mol   J/K/mol
 298.15  VIB  0.408E+22            25746.430    160.203    162.450
         ROT  0.167E+09              888.752      2.981     40.604
         INT  0.681E+30            26635.183    163.184    203.055
         TR   0.185E+29             1481.254      4.968     45.564
         TOT                       28116.4367   168.1518   248.6189  1040.2215

       T/K    H(0)-H(T)+PV         H(T)/Eh          T*S/Eh         G(T)/Eh
   ------------------------------------------------------------------------
    298.15    0.448064E-01    0.723320E+00    0.118127E+00    0.605193E+00
   ------------------------------------------------------------------------

         :::::::::::::::::::::::::::::::::::::::::::::::::::::
         ::                  THERMODYNAMIC                  ::
         :::::::::::::::::::::::::::::::::::::::::::::::::::::
         :: total free energy        -140.135853664475 Eh   ::
         ::.................................................::
         :: total energy             -140.741046408014 Eh   ::
         :: zero point energy           0.678513209339 Eh   ::
         :: G(RRHO) w/o ZPVE           -0.073320465800 Eh   ::
         :: G(RRHO) contrib.            0.605192743539 Eh   ::
         :::::::::::::::::::::::::::::::::::::::::::::::::::::

           -------------------------------------------------
          | TOTAL ENERGY             -140.741046408014 Eh   |
          | TOTAL ENTHALPY           -140.017726804771 Eh   |
          | TOTAL FREE ENERGY        -140.135853664475 Eh   |
          | GRADIENT NORM               0.000075408003 Eh/α |
          | HOMO-LUMO GAP               1.744163488940 eV   |
           -------------------------------------------------

 * finished run on 2025/09/13 at 07:32:45.163
