   * xtb version 6.7.1 (edcfbbe) compiled by 'albert@albert-system' on 2024-07-22

   ID    Z sym.   atoms
    1    6 C      1-5, 7-13, 15-19, 21-29, 31-53, 55, 56
    2    7 N      6, 14, 20, 30, 54
    3    1 H      57-89

          program call               : xtb data2507/gas/1PCTRz/1PCTRz_gas_S0_finalOpt.xtbopt.xyz --gfn 2 --spinpol --tblite --uhf 2 --ohess vtight --parallel 40 --molden --ceasefiles --namespace data2507/gas/1PCTRz/1PCTRz_gas_T1_preOpt
 * total energy  :  -140.6617984 Eh     change        0.1078124E-06 Eh
 * total energy  :  -140.6644983 Eh     change       -0.2699962E-02 Eh
 * total energy  :  -140.6660957 Eh     change       -0.1597398E-02 Eh
 * total energy  :  -140.6662628 Eh     change       -0.1670972E-03 Eh
 * total energy  :  -140.6663992 Eh     change       -0.1363513E-03 Eh
 * total energy  :  -140.6664165 Eh     change       -0.1730760E-04 Eh
 * total energy  :  -140.6664315 Eh     change       -0.1501339E-04 Eh
 * total energy  :  -140.6664364 Eh     change       -0.4940561E-05 Eh
 * total energy  :  -140.6664410 Eh     change       -0.4503204E-05 Eh
 * total energy  :  -140.6664450 Eh     change       -0.4019201E-05 Eh
 * total energy  :  -140.6664862 Eh     change       -0.3831285E-06 Eh
 * total energy  :  -140.6664867 Eh     change       -0.4842937E-06 Eh
 * total energy  :  -140.6664874 Eh     change       -0.7108228E-06 Eh
 * total energy  :  -140.6664882 Eh     change       -0.8451789E-06 Eh
 * total energy  :  -140.6664891 Eh     change       -0.8489677E-06 Eh
 * total energy  :  -140.6664897 Eh     change       -0.6558145E-06 Eh
 * total energy  :  -140.6664901 Eh     change       -0.4075572E-06 Eh
 * total energy  :  -140.6664901 Eh     change        0.3352793E-07 Eh
 * total energy  :  -140.6664902 Eh     change       -0.3889843E-07 Eh
   *** GEOMETRY OPTIMIZATION CONVERGED AFTER 45 ITERATIONS ***

 final structure:
================
89
 xtb: 6.7.1 (edcfbbe)
C           -9.04090540024803        2.67678396524486        2.29589049696579
C           -7.71123573377614        3.04007161773762        2.13678031299413
C           -6.81322443746222        2.15788734006087        1.57249836968102
C           -7.23831632424616        0.89397557241597        1.15878555196020
C           -6.29610724503034       -0.03937649905806        0.55982349089568
N           -6.74789445731738       -1.25813692700758        0.19053656984920
C           -5.85754982363932       -2.10642398854327       -0.37103826557697
C           -6.32048217291083       -3.42691703475209       -0.76923689731870
C           -7.64932221981087       -3.79914369014880       -0.55922353208242
C           -8.08547351798494       -5.05376216391114       -0.93476680497158
C           -7.20659119348223       -5.95067038818695       -1.52266576197077
C           -5.88444618591109       -5.58666474205037       -1.73453215571538
C           -5.44067945002362       -4.33483642188064       -1.36180634505360
N           -4.61071092762176       -1.77631198880626       -0.56481903294640
C           -4.18208427659026       -0.54914180492965       -0.17699981225763
C           -2.82882445907681       -0.16988169509522       -0.37711033273027
C           -1.90998807742112       -1.04808677488518       -0.98816111761059
C           -0.61085544775027       -0.65978550238870       -1.19057374757032
C           -0.17038398826895        0.60281553508949       -0.78555203204144
N            1.16022854382002        0.98433474769894       -1.03731959056100
C            1.56055780673706        2.10994177307094       -1.72363252942027
C            0.79208199642612        3.04658602169563       -2.40013137815533
C            1.45059037017877        4.09339502068630       -3.01470217487560
C            2.83911415227158        4.20411705900902       -2.97427458006760
C            3.61154416599046        3.25664802457458       -2.33034633528734
C            2.97211470070630        2.19722894950963       -1.70243972952904
C            3.43555898125189        1.04992278132493       -0.97294702778606
C            4.69103170785178        0.58943446635532       -0.61731201792164
C            4.78365951888745       -0.58337865077497        0.12441198529332
N            6.04338335746698       -1.08098792996391        0.48262586068953
C            7.10532405887023       -1.27038060706396       -0.37839727372528
C            7.17759310157648       -1.06964380229168       -1.75007403219084
C            8.36915907701261       -1.36839060032353       -2.38335119263774
C            9.46320721355035       -1.86407073124311       -1.67825633178989
C            9.38900199482332       -2.08996957251700       -0.31680171871763
C            8.20339872721091       -1.79663009316984        0.34117905047311
C            7.77283889408239       -1.92160963525816        1.70708118166338
C            8.39694282989346       -2.35246438666011        2.86872577993873
C            7.68497428845895       -2.32073363084463        4.05284977845539
C            6.37438939533925       -1.85087497289777        4.08875451989360
C            5.73187186500006       -1.41617863202785        2.94493260656700
C            6.43262637750494       -1.47100441464463        1.74785004366127
C            3.63018687092217       -1.27679960283521        0.51936987736403
C            2.37292079901999       -0.82773596962963        0.17869814624140
C            2.27564992468324        0.33190561365114       -0.58262722242112
C           -1.06223946695354        1.48796757580889       -0.14886914581018
C           -0.60808528000921        2.80223748597557        0.33977757117254
C            0.55186025020195        2.92402649270689        1.10006437630521
C            0.98096215430120        4.16536839951963        1.53048145300871
C            0.25686685350618        5.30188039104393        1.21333349616407
C           -0.90980611634858        5.18871035583367        0.47632018597387
C           -1.34127640345802        3.94844622526645        0.04556988152178
C           -2.37215548259559        1.09699815017002        0.03154513725230
N           -5.05279937319428        0.31902215408304        0.39757712255970
C           -8.57704692307159        0.53445756527282        1.32196498716092
C           -9.46946890248897        1.42311295333379        1.88709933101545
H           -9.74132968412882        3.37011139186886        2.73792512597291
H           -7.37812562678646        4.01699095291531        2.45601880136429
H           -5.77595033649375        2.42582149607438        1.44292461075840
H           -8.32163707188171       -3.09083501764966       -0.09998894447118
H           -9.11477453987166       -5.33765058738171       -0.76981009545173
H           -7.55049249924599       -6.93185912806181       -1.81539945065299
H           -5.20050191167728       -6.28631743498394       -2.19278876771196
H           -4.41561393183241       -4.03705590911853       -1.51977837814127
H           -2.25491013729048       -2.01984308517840       -1.30363031481526
H            0.08731411476286       -1.31885354987570       -1.68719030691709
H           -0.28131728951988        2.95532310543893       -2.44900914438118
H            0.87726949599394        4.84092332311689       -3.54207938497079
H            3.31595318307988        5.03993722647145       -3.46394200052499
H            4.68823663717848        3.33499268154540       -2.31508395252342
H            5.58101408327413        1.13753751113949       -0.88563860986618
H            6.32889986425616       -0.70452114233276       -2.30824029427639
H            8.45194224431296       -1.21795972075998       -3.44948188993497
H           10.37769660270041       -2.08310062070720       -2.20879926018310
H           10.23167595954443       -2.49048964790050        0.22600975751120
H            9.41866189556519       -2.69984079805727        2.84460590958429
H            8.15119063705677       -2.65458560112209        4.96766449608817
H            5.84940669664642       -1.82165110298028        5.03195111262592
H            4.72275286373075       -1.03556965810321        2.98634715470090
H            3.74052154870816       -2.19030538740686        1.08352381019253
H            1.48932467886620       -1.36344946110668        0.48959748279484
H            1.11336403993278        2.04110783062644        1.37096001891528
H            1.88501725648509        4.24552391864430        2.11655277796598
H            0.59772271785973        6.27178814916728        1.54419935562144
H           -1.48339792793421        6.07138144772663        0.23315176102530
H           -2.24517154089626        3.86267967413519       -0.54055550952600
H           -3.06831305966798        1.75581967339286        0.52737403936731
H           -8.89613224403268       -0.44438595128493        0.99848762712775
H          -10.50489745285617        1.14074896690680        2.01109516513892

 projected vibrational frequencies (cm⁻¹)
eigval :       -0.00    -0.00    -0.00    -0.00     0.00     0.00
eigval :        7.07     9.78    11.48    19.86    24.17    25.86
eigval :       28.58    32.82    36.36    36.93    48.06    54.24
eigval :       62.42    68.51    88.62    95.44   100.23   107.69
eigval :      111.48   117.63   129.96   137.52   142.62   155.75
eigval :      160.61   183.70   188.53   196.01   214.74   222.86
eigval :      244.84   247.70   257.39   267.40   270.95   279.70
eigval :      287.80   299.41   337.98   344.11   354.83   366.00
eigval :      366.70   368.37   375.14   383.89   396.54   398.71
eigval :      405.52   408.58   410.50   421.14   425.98   434.39
eigval :      436.17   447.08   466.30   504.31   516.82   529.76
eigval :      531.51   538.77   539.26   541.20   544.36   554.84
eigval :      558.75   568.94   582.14   583.77   587.01   587.54
eigval :      588.20   596.22   599.65   601.99   611.58   626.59
eigval :      633.51   646.10   651.83   660.88   665.26   672.88
eigval :      674.13   674.89   679.78   686.39   707.25   709.27
eigval :      719.70   726.85   755.00   759.73   759.98   761.36
eigval :      768.69   772.52   778.85   792.92   799.18   811.25
eigval :      827.72   855.80   860.93   865.23   868.32   869.44
eigval :      870.39   871.53   880.62   882.67   891.90   897.53
eigval :      897.65   899.27   901.09   901.79   904.35   905.36
eigval :      907.08   916.17   919.76   921.61   923.70   924.16
eigval :      924.74   925.50   927.33   927.75   930.94   932.53
eigval :      953.50   970.59   972.96   982.90   987.20  1011.84
eigval :     1025.33  1037.99  1064.74  1068.37  1069.33  1072.63
eigval :     1073.68  1075.53  1085.82  1105.96  1108.31  1108.95
eigval :     1117.42  1123.32  1133.94  1143.41  1145.87  1149.08
eigval :     1154.36  1171.50  1176.83  1179.07  1179.46  1179.65
eigval :     1179.79  1181.44  1182.80  1188.40  1189.36  1200.30
eigval :     1219.68  1222.04  1232.65  1236.18  1242.93  1250.53
eigval :     1266.47  1267.93  1272.08  1273.91  1283.18  1285.68
eigval :     1293.03  1297.03  1300.00  1318.72  1331.11  1332.15
eigval :     1333.10  1333.84  1346.47  1355.18  1357.60  1359.58
eigval :     1369.71  1387.90  1396.41  1412.46  1417.83  1420.58
eigval :     1423.37  1428.24  1434.74  1436.56  1439.45  1442.86
eigval :     1462.93  1465.36  1468.26  1470.99  1478.52  1484.85
eigval :     1485.89  1487.71  1502.43  1552.93  1557.32  1570.86
eigval :     1571.47  1571.58  1577.15  1583.01  1584.99  1585.23
eigval :     1587.20  1589.53  1592.86  1601.04  1603.41  1609.21
eigval :     3069.87  3071.04  3072.60  3072.76  3072.91  3077.15
eigval :     3077.65  3078.50  3079.84  3080.04  3080.32  3083.24
eigval :     3084.35  3085.71  3086.47  3088.21  3088.73  3091.06
eigval :     3091.81  3092.02  3093.28  3095.04  3096.70  3097.62
eigval :     3098.15  3098.21  3098.92  3099.51  3100.10  3101.10
eigval :     3102.36  3105.18  3105.60

   temp. (K)  partition function   enthalpy   heat capacity  entropy
                                   cal/mol     cal/K/mol   cal/K/mol   J/K/mol
 298.15  VIB  0.279E+22            26129.028    163.114    163.651
         ROT  0.167E+09              888.752      2.981     40.611
         INT  0.466E+30            27017.781    166.094    204.262
         TR   0.185E+29             1481.254      4.968     45.564
         TOT                       28499.0347   171.0626   249.8267  1045.2748

       T/K    H(0)-H(T)+PV         H(T)/Eh          T*S/Eh         G(T)/Eh
   ------------------------------------------------------------------------
    298.15    0.454161E-01    0.718274E+00    0.118701E+00    0.599574E+00
   ------------------------------------------------------------------------

         :::::::::::::::::::::::::::::::::::::::::::::::::::::
         ::                  THERMODYNAMIC                  ::
         :::::::::::::::::::::::::::::::::::::::::::::::::::::
         :: total free energy        -140.066916587489 Eh   ::
         ::.................................................::
         :: total energy             -140.666490158855 Eh   ::
         :: zero point energy           0.672858183310 Eh   ::
         :: G(RRHO) w/o ZPVE           -0.073284611944 Eh   ::
         :: G(RRHO) contrib.            0.599573571366 Eh   ::
         :::::::::::::::::::::::::::::::::::::::::::::::::::::

           -------------------------------------------------
          | TOTAL ENERGY             -140.666490158855 Eh   |
          | TOTAL ENTHALPY           -139.948215872960 Eh   |
          | TOTAL FREE ENERGY        -140.066916587489 Eh   |
          | GRADIENT NORM               0.000050831254 Eh/α |
           -------------------------------------------------

 * finished run on 2025/09/13 at 07:37:57.816
