   * xtb version 6.7.1 (edcfbbe) compiled by 'albert@albert-system' on 2024-07-22

   ID    Z sym.   atoms
    1    8 O      1
    2    6 C      2-12, 14-26, 28-46
    3    7 N      13, 27
    4    1 H      47-76

          program call               : xtb data2507/toluene/TCB/TCB_toluene_S0_crest.xyz --gfn 2 --gbsa toluene --ohess vtight --parallel 40 --molden --ceasefiles --namespace data2507/toluene/TCB/TCB_toluene_S0_finalOpt
      * Solvation model:               GBSA
        Solvent                        toluene
        Solvent mass                       9.2140E+01 g/mol
          :  Hamiltonian                  GFN2-xTB          :
 * total energy  :  -117.3564629 Eh     change       -0.5327280E-08 Eh
 * total energy  :  -117.3565261 Eh     change       -0.6319703E-04 Eh
 * total energy  :  -117.3565426 Eh     change       -0.1648581E-04 Eh
 * total energy  :  -117.3565473 Eh     change       -0.4718761E-05 Eh
 * total energy  :  -117.3565514 Eh     change       -0.4163847E-05 Eh
 * total energy  :  -117.3565549 Eh     change       -0.3493980E-05 Eh
 * total energy  :  -117.3565573 Eh     change       -0.2326302E-05 Eh
 * total energy  :  -117.3565592 Eh     change       -0.1972663E-05 Eh
 * total energy  :  -117.3565613 Eh     change       -0.2009395E-05 Eh
 * total energy  :  -117.3565637 Eh     change       -0.2436916E-05 Eh
 * total energy  :  -117.3565730 Eh     change       -0.1123277E-05 Eh
 * total energy  :  -117.3565739 Eh     change       -0.9214242E-06 Eh
 * total energy  :  -117.3565748 Eh     change       -0.8934793E-06 Eh
 * total energy  :  -117.3565759 Eh     change       -0.1078308E-05 Eh
 * total energy  :  -117.3565767 Eh     change       -0.8422094E-06 Eh
 * total energy  :  -117.3565771 Eh     change       -0.4096754E-06 Eh
 * total energy  :  -117.3565775 Eh     change       -0.3586274E-06 Eh
 * total energy  :  -117.3565779 Eh     change       -0.4222807E-06 Eh
 * total energy  :  -117.3565779 Eh     change       -0.9752924E-08 Eh
   *** GEOMETRY OPTIMIZATION CONVERGED AFTER 22 ITERATIONS ***

 final structure:
================
76
 xtb: 6.7.1 (edcfbbe)
O            9.03596713096990        0.26099405079736       -0.66218937304753
C            8.01981221025098        0.86148168481890       -0.34063735534386
C            8.04782876376778        2.31149609440335       -0.03079410031442
C            9.18716619178834        2.84964502404662        0.56602258035908
C            9.25535901400587        4.20038744764952        0.84982477538943
C            8.19574529738000        5.03123300157199        0.51989739178170
C            7.07047303642398        4.50844492253126       -0.09820815069948
C            6.99055066852912        3.15479502004370       -0.37028795696600
C            6.71501508086454        0.17039104111366       -0.24633807205650
C            5.72847645007624        0.56571606859652        0.65837263205351
C            4.53825009148949       -0.12649830481632        0.73901930617209
C            4.30094979855333       -1.22245098271526       -0.09199477393249
N            3.08689434133700       -1.90716612072689       -0.02095936031865
C            2.92974189032270       -3.28030922750305        0.06175026682125
C            3.89008768000189       -4.27752475189562        0.15472198253754
C            3.45504747678720       -5.58573530506194        0.25993854540523
C            2.09867813882421       -5.90205500062176        0.28507501317469
C            1.13833308383581       -4.91133604388575        0.22322075291972
C            1.55170675196570       -3.58986419625497        0.11732228086752
C            0.84721740734891       -2.33790120285807        0.05594247434882
C           -0.49892751473864       -2.00728102427002        0.04918669264810
C           -0.87127156092844       -0.67108964635660       -0.04170157980943
C           -2.29061742794230       -0.29114950069288       -0.03962397100437
C           -2.73011677819371        0.84054585410113        0.64684374208738
C           -4.06287714222241        1.19417229128743        0.66098304807908
C           -5.00562664686774        0.42950772010151       -0.02681182944688
N           -6.35871099567391        0.78705217163428       -0.01755997128622
C           -6.72417762852406        2.13773973799371       -0.06173401173971
C           -7.81760266583237        2.60138057518302        0.67039027816637
C           -8.17653530774122        3.93454920101281        0.61839411573138
C           -7.45039102151209        4.82819168867250       -0.15251704831600
C           -6.35933598194811        4.37457190073848       -0.87638711482364
C           -5.99854393022093        3.04146470338755       -0.83851237552305
C           -7.34370456166838       -0.20557422058543        0.04597759606567
C           -8.54036889905900       -0.06272707151390       -0.65696036455459
C           -9.51302215164446       -1.04122948975470       -0.58352870498473
C           -9.30854395400734       -2.17935311775859        0.18008822970140
C           -8.11869353628770       -2.33021446947878        0.87401476069746
C           -7.14410261031389       -1.35277813740630        0.81457155358043
C           -4.57202282847468       -0.69939210802328       -0.72271753392379
C           -3.23923092478167       -1.05335164983502       -0.72106828833784
C            0.12079364868566        0.31426304065434       -0.14754669154355
C            1.46607157750473        0.00647876751781       -0.14691362121081
C            1.83086883736330       -1.32669772056042       -0.02261198915411
C            5.28925168237379       -1.62771411530135       -0.99042225986967
C            6.48497311900701       -0.94570147919838       -1.05271629322219
H           10.00615935523972        2.18791555292623        0.80908586846006
H           10.13669142789783        4.60670071245468        1.32353647148058
H            8.25068405418313        6.08769874038768        0.73717444996573
H            6.25207350893641        5.15872887302937       -0.36983156853463
H            6.12146194437910        2.75256457208940       -0.86955405283930
H            5.90968733471620        1.39659234052281        1.32330582783169
H            3.79023546025675        0.16285379159162        1.46140999244211
H            4.94424297831941       -4.04536432566848        0.15738615218434
H            4.18436577923088       -6.37965776380502        0.32897976869947
H            1.79894709944957       -6.93669447013650        0.36493718612197
H            0.08701180716318       -5.15414920361497        0.26278621968645
H           -1.24777763034291       -2.78033194752298        0.13114222860607
H           -2.02121344542612        1.43538966161583        1.20406650856053
H           -4.38632183001031        2.06525950615856        1.21247476594583
H           -8.38028033219177        1.90960027334067        1.28047791822957
H           -9.02492813891464        4.27922615702535        1.19187623773389
H           -7.73229924475414        5.86989701456368       -0.18845772497612
H           -5.78933125001794        5.06247757683387       -1.48412618687090
H           -5.15372605927073        2.68929253211664       -1.41256039626322
H           -8.69975484230012        0.81903107290659       -1.26066774443417
H          -10.43464280638345       -0.91703506608722       -1.13365910075429
H          -10.07014209666375       -2.94288128772626        0.23343265194195
H           -7.95123020989701       -3.21207622816335        1.47552421328880
H           -6.22207125707485       -1.46894042324128        1.36558742666947
H           -5.28970950577052       -1.29414358694985       -1.26927377831720
H           -2.92304349377601       -1.91991143936318       -1.28336168952233
H           -0.17975001801492        1.34569049941168       -0.25779425673638
H            2.20668007033103        0.78411393264699       -0.25576753595930
H            5.10549172047220       -2.46576652255842       -1.64522814860392
H            7.25713222205815       -1.25044277266674       -1.74408534199561

          :  Hamiltonian                  GFN2-xTB          :
         :: gradient norm              0.000156270617 Eh/a0 ::
         :: HOMO-LUMO gap              1.468723443846 eV    ::
         :: SCC energy              -119.535235358906 Eh    ::
         :: -> dispersion             -0.101351532073 Eh    ::
         :: -> Gsolv                  -0.052216470537 Eh    ::
         :: repulsion energy           2.178657464971 Eh    ::

    * Orbital Energies and Occupations

         #    Occupation            Energy/Eh            Energy/eV
      -------------------------------------------------------------
         1        2.0000           -0.7100052             -19.3202
       ...           ...                  ...                  ...
        97        2.0000           -0.4166621             -11.3380
        98        2.0000           -0.4165106             -11.3338
        99        2.0000           -0.4161249             -11.3233
       100        2.0000           -0.4105733             -11.1723
       101        2.0000           -0.4072026             -11.0805
       102        2.0000           -0.4065558             -11.0629
       103        2.0000           -0.4041682             -10.9980
       104        2.0000           -0.4031514             -10.9703
       105        2.0000           -0.3976267             -10.8200
       106        2.0000           -0.3950977             -10.7512
       107        2.0000           -0.3809414             -10.3659
       108        2.0000           -0.3666011              -9.9757
       109        2.0000           -0.3467838              -9.4365 (HOMO)
       110                         -0.2928092              -7.9677 (LUMO)
       111                         -0.2487749              -6.7695
       112                         -0.2442847              -6.6473
       113                         -0.2409788              -6.5574
       114                         -0.2394668              -6.5162
       115                         -0.2341556              -6.3717
       116                         -0.2297682              -6.2523
       117                         -0.2263857              -6.1603
       118                         -0.2211650              -6.0182
       119                         -0.2203192              -5.9952
       120                         -0.2177376              -5.9249
       ...                                ...                  ...
       214                          0.7434710              20.2309
      -------------------------------------------------------------
                  HL-Gap            0.0539746 Eh            1.4687 eV

     #   Z          covCN         q      C6AA      α(0)
     1   8 O        0.858    -0.424    22.173     6.313
     2   6 C        2.829     0.226    23.249     7.901
     3   6 C        2.972    -0.013    28.343     8.733
     4   6 C        2.924    -0.017    28.441     8.746
     5   6 C        2.917    -0.026    28.650     8.777
     6   6 C        2.920    -0.022    28.547     8.762
     7   6 C        2.918    -0.026    28.656     8.778
     8   6 C        2.921    -0.026    28.651     8.778
     9   6 C        2.971    -0.018    28.446     8.749
    10   6 C        2.920    -0.025    28.616     8.772
    11   6 C        2.920    -0.041    29.029     8.835
    12   6 C        2.912     0.072    26.381     8.422
    13   7 N        2.801    -0.038    21.973     6.962
    14   6 C        3.071     0.046    26.894     8.503
    15   6 C        2.910    -0.051    29.261     8.870
    16   6 C        2.924    -0.034    28.842     8.807
    17   6 C        2.920    -0.041    29.013     8.833
    18   6 C        2.912    -0.034    28.839     8.806
    19   6 C        3.067    -0.016    28.342     8.730
    20   6 C        3.063    -0.017    28.360     8.733
    21   6 C        2.918    -0.039    28.972     8.827
    22   6 C        2.975     0.000    28.022     8.683
    23   6 C        2.976     0.001    27.993     8.679
    24   6 C        2.924    -0.036    28.898     8.816
    25   6 C        2.920    -0.049    29.218     8.864
    26   6 C        2.924     0.063    26.585     8.455
    27   7 N        2.752    -0.080    22.799     7.092
    28   6 C        2.923     0.066    26.525     8.446
    29   6 C        2.922    -0.048    29.200     8.862
    30   6 C        2.919    -0.030    28.761     8.794
    31   6 C        2.919    -0.040    28.988     8.829
    32   6 C        2.919    -0.030    28.761     8.794
    33   6 C        2.922    -0.048    29.198     8.861
    34   6 C        2.923     0.066    26.525     8.446
    35   6 C        2.922    -0.048    29.201     8.862
    36   6 C        2.919    -0.030    28.761     8.794
    37   6 C        2.919    -0.040    28.989     8.829
    38   6 C        2.919    -0.030    28.761     8.794
    39   6 C        2.922    -0.048    29.200     8.862
    40   6 C        2.920    -0.049    29.214     8.864
    41   6 C        2.924    -0.036    28.892     8.815
    42   6 C        2.929    -0.039    28.966     8.826
    43   6 C        2.908    -0.052    29.285     8.873
    44   6 C        3.072     0.044    26.941     8.510
    45   6 C        2.919    -0.041    29.021     8.834
    46   6 C        2.924    -0.016    28.411     8.741
    47   1 H        0.926     0.043     2.406     2.426
    48   1 H        0.926     0.045     2.387     2.416
    49   1 H        0.926     0.047     2.358     2.401
    50   1 H        0.926     0.047     2.361     2.403
    51   1 H        0.926     0.043     2.406     2.426
    52   1 H        0.926     0.052     2.301     2.372
    53   1 H        0.926     0.055     2.257     2.349
    54   1 H        0.926     0.032     2.561     2.502
    55   1 H        0.926     0.032     2.557     2.500
    56   1 H        0.926     0.030     2.580     2.512
    57   1 H        0.926     0.033     2.539     2.492
    58   1 H        0.926     0.035     2.517     2.481
    59   1 H        0.926     0.035     2.520     2.482
    60   1 H        0.926     0.031     2.575     2.510
    61   1 H        0.926     0.031     2.576     2.510
    62   1 H        0.926     0.033     2.551     2.497
    63   1 H        0.926     0.031     2.569     2.506
    64   1 H        0.926     0.033     2.547     2.496
    65   1 H        0.926     0.031     2.569     2.507
    66   1 H        0.926     0.031     2.575     2.510
    67   1 H        0.926     0.032     2.551     2.498
    68   1 H        0.926     0.031     2.571     2.507
    69   1 H        0.926     0.033     2.549     2.497
    70   1 H        0.926     0.031     2.570     2.507
    71   1 H        0.926     0.031     2.577     2.510
    72   1 H        0.926     0.034     2.527     2.486
    73   1 H        0.926     0.035     2.510     2.478
    74   1 H        0.926     0.034     2.535     2.490
    75   1 H        0.926     0.053     2.283     2.363
    76   1 H        0.926     0.051     2.302     2.373

molecular dipole:
                 x           y           z       tot (Debye)
 q only:       -1.163       0.954       0.427
   full:       -1.145       0.991       0.436       4.005

 projected vibrational frequencies (cm⁻¹)
eigval :       -0.00    -0.00     0.00     0.00     0.00     0.00
eigval :       10.84    12.40    15.35    23.05    26.49    35.43
eigval :       46.08    49.71    57.01    61.51    62.83    71.26
eigval :       77.53    92.88    98.65   111.42   113.60   134.34
eigval :      147.70   160.11   171.68   192.72   203.25   210.01
eigval :      232.22   243.22   260.16   275.60   279.76   307.02
eigval :      319.39   340.09   349.77   364.18   370.48   376.11
eigval :      377.63   380.13   385.78   387.61   396.13   402.73
eigval :      409.80   421.57   435.86   455.80   465.79   475.98
eigval :      486.43   491.37   514.12   536.10   544.70   556.49
eigval :      581.09   582.59   585.97   588.07   592.23   596.12
eigval :      602.88   608.53   616.88   619.60   646.81   654.35
eigval :      658.18   665.35   676.59   680.73   693.11   694.51
eigval :      708.65   715.15   728.86   751.36   754.04   757.73
eigval :      775.89   777.18   808.03   818.81   828.13   833.88
eigval :      868.25   870.10   871.67   873.40   878.30   879.84
eigval :      883.79   888.85   889.53   899.50   902.65   905.17
eigval :      909.14   910.45   914.13   918.46   921.46   924.35
eigval :      924.85   926.01   926.66   927.39   929.32   930.14
eigval :      933.61   935.82   939.18   948.78   982.56   994.23
eigval :     1003.70  1008.04  1022.46  1027.44  1071.96  1074.80
eigval :     1080.62  1081.85  1082.81  1119.62  1120.13  1121.63
eigval :     1122.45  1132.87  1141.02  1156.23  1174.94  1177.28
eigval :     1178.26  1179.37  1179.53  1180.02  1184.66  1192.73
eigval :     1193.81  1196.54  1205.50  1214.90  1221.96  1243.17
eigval :     1258.56  1261.52  1264.22  1270.65  1276.83  1278.32
eigval :     1279.52  1285.94  1305.44  1310.30  1315.48  1319.32
eigval :     1322.10  1323.76  1324.52  1327.83  1348.00  1357.95
eigval :     1366.71  1404.93  1407.92  1420.21  1426.75  1426.88
eigval :     1434.14  1441.04  1460.51  1464.10  1470.06  1472.93
eigval :     1480.80  1483.73  1499.26  1551.28  1555.21  1568.01
eigval :     1575.20  1575.95  1577.27  1579.08  1583.36  1588.32
eigval :     1590.35  1591.31  1596.41  1600.49  1611.93  1647.24
eigval :     3070.22  3070.67  3071.11  3071.50  3072.57  3073.11
eigval :     3074.30  3076.80  3078.48  3079.19  3079.64  3080.85
eigval :     3081.63  3082.95  3083.83  3084.00  3084.14  3085.25
eigval :     3086.95  3087.16  3087.49  3088.99  3089.25  3092.15
eigval :     3092.43  3093.35  3094.71  3096.11  3098.85  3100.40

   temp. (K)  partition function   enthalpy   heat capacity  entropy
                                   cal/mol     cal/K/mol   cal/K/mol   J/K/mol
 298.15  VIB  0.119E+18            21449.762    135.496    134.314
         ROT  0.123E+09              888.752      2.981     39.995
         INT  0.147E+26            22338.514    138.477    174.309
         TR   0.139E+29             1481.254      4.968     44.992
         TOT                       23819.7683   143.4449   219.3005   917.5532

       T/K    H(0)-H(T)+PV         H(T)/Eh          T*S/Eh         G(T)/Eh
   ------------------------------------------------------------------------
    298.15    0.379592E-01    0.624626E+00    0.104197E+00    0.520429E+00
   ------------------------------------------------------------------------

         :::::::::::::::::::::::::::::::::::::::::::::::::::::
         ::                  THERMODYNAMIC                  ::
         :::::::::::::::::::::::::::::::::::::::::::::::::::::
         :: total free energy        -116.836149043369 Eh   ::
         ::.................................................::
         :: total energy             -117.356577891887 Eh   ::
         :: zero point energy           0.586666362736 Eh   ::
         :: G(RRHO) w/o ZPVE           -0.066237514219 Eh   ::
         :: G(RRHO) contrib.            0.520428848518 Eh   ::
         :::::::::::::::::::::::::::::::::::::::::::::::::::::

           -------------------------------------------------
          | TOTAL ENERGY             -117.356577891887 Eh   |
          | TOTAL ENTHALPY           -116.731952312083 Eh   |
          | TOTAL FREE ENERGY        -116.836149043369 Eh   |
          | GRADIENT NORM               0.000156131325 Eh/α |
          | HOMO-LUMO GAP               1.468723281672 eV   |
           -------------------------------------------------

 * finished run on 2025/08/30 at 20:30:49.879
