   * xtb version 6.7.1 (edcfbbe) compiled by 'albert@albert-system' on 2024-07-22

   ID    Z sym.   atoms
    1    8 O      1
    2    6 C      2-12, 14-26, 28-46
    3    7 N      13, 27
    4    1 H      47-76

          program call               : xtb data2507/toluene/TCB/TCB_toluene_T1_crest.xyz --gfn 2 --uhf 2 --gbsa toluene --ohess vtight --parallel 40 --molden --ceasefiles --namespace data2507/toluene/TCB/TCB_toluene_T1_finalOpt
      * Solvation model:               GBSA
        Solvent                        toluene
        Solvent mass                       9.2140E+01 g/mol
          :  Hamiltonian                  GFN2-xTB          :
 * total energy  :  -117.2764221 Eh     change       -0.9933387E-11 Eh
 * total energy  :  -117.2766114 Eh     change       -0.1893200E-03 Eh
 * total energy  :  -117.2766755 Eh     change       -0.6412482E-04 Eh
 * total energy  :  -117.2766915 Eh     change       -0.1597627E-04 Eh
 * total energy  :  -117.2767024 Eh     change       -0.1092144E-04 Eh
 * total energy  :  -117.2767221 Eh     change       -0.1964319E-04 Eh
 * total energy  :  -117.2767079 Eh     change        0.1417220E-04 Eh
 * total energy  :  -117.2767261 Eh     change       -0.1818671E-04 Eh
 * total energy  :  -117.2767341 Eh     change       -0.8032457E-05 Eh
 * total energy  :  -117.2767383 Eh     change       -0.4187309E-05 Eh
 * total energy  :  -117.2767942 Eh     change       -0.8086605E-06 Eh
 * total energy  :  -117.2767949 Eh     change       -0.7207188E-06 Eh
 * total energy  :  -117.2767956 Eh     change       -0.7292797E-06 Eh
 * total energy  :  -117.2767965 Eh     change       -0.8429710E-06 Eh
 * total energy  :  -117.2767975 Eh     change       -0.1070393E-05 Eh
 * total energy  :  -117.2767988 Eh     change       -0.1302407E-05 Eh
 * total energy  :  -117.2768002 Eh     change       -0.1381211E-05 Eh
 * total energy  :  -117.2768016 Eh     change       -0.1424343E-05 Eh
 * total energy  :  -117.2768016 Eh     change       -0.6863047E-08 Eh
   *** GEOMETRY OPTIMIZATION CONVERGED AFTER 44 ITERATIONS ***

 final structure:
================
76
 xtb: 6.7.1 (edcfbbe)
O            7.42800309154358        3.18707793746476       -1.16980781141898
C            7.53520049599951        2.07102817232005       -0.56848544807568
C            8.83191796838691        1.67689079885003       -0.01052217101517
C            9.26022066147097        0.34327019872839        0.03285212958343
C           10.51031286135466        0.02501012934662        0.52226267855672
C           11.36846030712353        1.01987069447214        0.97060790398202
C           10.96926267600453        2.34759884857963        0.90080104352167
C            9.72411998661706        2.67425241912215        0.40834673961371
C            6.39037480273725        1.20788334864372       -0.42485938130101
C            6.27679777674118        0.20921960243179        0.56972301639741
C            5.15043472684125       -0.56489380535742        0.66952029521141
C            4.06833872024970       -0.37040665685425       -0.20208294707831
N            2.92388469556403       -1.16760839667338       -0.10103578782071
C            2.90665298551216       -2.55248846826821       -0.05895465089745
C            3.96301049283103       -3.44917988866316       -0.11809539501261
C            3.66547697513404       -4.80084287593948       -0.08125333282435
C            2.35134070453887       -5.25250095166931        0.00344560190111
C            1.29186337091620       -4.36240826825208        0.03875050525049
C            1.56661418809499       -3.00373373616422        0.00098129665281
C            0.74168006365987       -1.82443248530615       -0.00354662968459
C           -0.62097265006091       -1.62227890209470        0.04312933591822
C           -1.12641750708817       -0.31604243391669        0.02983430636947
C           -2.56037849580959       -0.08032571363686        0.05052402792506
C           -3.12340528625696        1.04069432966037       -0.58039115352261
C           -4.47890125099793        1.26040189096136       -0.57547520475804
C           -5.34541180337735        0.36398398330871        0.06679996797454
N           -6.71440937308884        0.57802099383821        0.07011043167882
C           -7.59859526597603       -0.50866064004194        0.04303398999199
C           -8.77830216088566       -0.47605062774398        0.78833470744290
C           -9.65057143327006       -1.54654644969815        0.74981060633545
C           -9.36174663867897       -2.65949271637173       -0.02521369679950
C           -8.19082799629708       -2.69564882590787       -0.76692432969683
C           -7.31257534659529       -1.62988692507023       -0.73823591116704
C           -7.22749450080724        1.88117012007950        0.09276375358614
C           -6.60907251096880        2.86872614990335        0.86208370328866
C           -7.12134631839128        4.15130102827939        0.88345978373968
C           -8.25320418182510        4.46689560092574        0.14732706739374
C           -8.87260043516703        3.48792187440885       -0.61473725144220
C           -8.36717898874470        2.20279175963801       -0.64646036376831
C           -4.79312031645184       -0.75643352670542        0.70470182771287
C           -3.43672987585943       -0.96898259096355        0.69408993104614
C           -0.22124987567483        0.76821879234168        0.00160396347976
C            1.14042716852722        0.58754975592337       -0.03607019729018
C            1.63308933798136       -0.71707825428758       -0.06578878472369
C            4.14215720771431        0.65306178036401       -1.15993678162836
C            5.26522565153144        1.42739135488454       -1.25754143009052
H            8.62075131596765       -0.43614007686737       -0.35577667315875
H           10.82653666370170       -1.00881500134482        0.54449177219314
H           12.34452747313433        0.76394328088786        1.35597106533408
H           11.63636649850118        3.13163432488667        1.23158222103258
H            9.40506596653752        3.70528788951229        0.34273874543162
H            7.07322102523842        0.08272899189530        1.28752061521375
H            5.07006043653307       -1.30436139983769        1.45360418650651
H            4.98280338679133       -3.10620782687130       -0.20003555296651
H            4.47117813420663       -5.51856619067787       -0.12379418597418
H            2.15904898790848       -6.31469444551741        0.03205717644241
H            0.27350492794279       -4.71645149045965        0.08766435463423
H           -1.28910784955847       -2.46891102169432        0.05621141862714
H           -2.48533808089500        1.72331703313609       -1.11979767659515
H           -4.88995468673722        2.11332875824600       -1.09480497569221
H           -8.99735139574084        0.38532574758946        1.40165211244277
H          -10.55818529932992       -1.51506488451080        1.33381432270135
H          -10.04650527304308       -3.49333518608352       -0.05222379966160
H           -7.96420425115293       -3.55582761412709       -1.37904433822289
H           -6.40941784599196       -1.65010983889038       -1.32993824050215
H           -5.73834169818246        2.61877840196812        1.44996056934543
H           -6.63928719759114        4.90687320393243        1.48569502003098
H           -8.65089496116618        5.47006437047107        0.16839935663172
H           -9.75093581953269        3.72902403113632       -1.19464364959618
H           -8.84188905363927        1.44427884285327       -1.25096625670374
H           -5.44361393027214       -1.43956935292000        1.23024775479867
H           -3.03672579999417       -1.81548496103082        1.23018121561586
H           -0.60878886248573        1.77391011340960        0.05093496157236
H            1.81360836844652        1.43113987363320       -0.02543149330914
H            3.31762479381435        0.79966590078746       -1.84290363377828
H            5.33837073798561        2.21300094180012       -1.99602783922831

          :  Hamiltonian                  GFN2-xTB          :
         :: gradient norm              0.000066568006 Eh/a0 ::
         :: HOMO-LUMO gap              0.310784422945 eV    ::
         :: SCC energy              -119.439727791785 Eh    ::
         :: -> dispersion             -0.101117299293 Eh    ::
         :: -> Gsolv                  -0.069024365355 Eh    ::
         :: repulsion energy           2.162926149629 Eh    ::

    * Orbital Energies and Occupations

         #    Occupation            Energy/Eh            Energy/eV
      -------------------------------------------------------------
         1        2.0000           -0.6868757             -18.6908
       ...           ...                  ...                  ...
        98        2.0000           -0.4184473             -11.3865
        99        2.0000           -0.4156906             -11.3115
       100        2.0000           -0.4122264             -11.2173
       101        2.0000           -0.4086684             -11.1204
       102        2.0000           -0.4021497             -10.9431
       103        2.0000           -0.3973910             -10.8136
       104        2.0000           -0.3944693             -10.7341
       105        2.0000           -0.3903737             -10.6226
       106        2.0000           -0.3889976             -10.5852
       107        2.0000           -0.3730696             -10.1517
       108        1.8225           -0.3632859              -9.8855
       109        1.1775           -0.3603718              -9.8062
       110        0.9976           -0.2723218              -7.4103 (HOMO)
       111        0.0024           -0.2608999              -7.0994 (LUMO)
       112        0.0000           -0.2536583              -6.9024
       113                         -0.2457341              -6.6868
       114                         -0.2407538              -6.5512
       115                         -0.2353571              -6.4044
       116                         -0.2345952              -6.3837
       117                         -0.2284848              -6.2174
       118                         -0.2239822              -6.0949
       119                         -0.2164426              -5.8897
       120                         -0.2129685              -5.7952
       121                         -0.2116753              -5.7600
       ...                                ...                  ...
       214                          0.7382259              20.0881
      -------------------------------------------------------------
                  HL-Gap            0.0114220 Eh            0.3108 eV

     #   Z          covCN         q      C6AA      α(0)
     1   8 O        0.857    -0.523    24.298     6.609
     2   6 C        2.833     0.164    24.459     8.104
     3   6 C        2.969    -0.015    28.381     8.739
     4   6 C        2.920    -0.041    29.022     8.834
     5   6 C        2.917    -0.034    28.853     8.808
     6   6 C        2.919    -0.042    29.040     8.837
     7   6 C        2.916    -0.034    28.854     8.808
     8   6 C        2.924    -0.031    28.764     8.795
     9   6 C        2.966    -0.023    28.585     8.770
    10   6 C        2.917    -0.044    29.105     8.847
    11   6 C        2.915    -0.045    29.111     8.847
    12   6 C        2.912     0.035    27.221     8.555
    13   7 N        2.799    -0.008    21.405     6.871
    14   6 C        3.080     0.046    26.886     8.501
    15   6 C        2.909    -0.041    29.027     8.834
    16   6 C        2.923    -0.032    28.794     8.800
    17   6 C        2.920    -0.035    28.870     8.811
    18   6 C        2.912    -0.030    28.756     8.793
    19   6 C        3.062    -0.013    28.282     8.721
    20   6 C        3.061    -0.012    28.251     8.716
    21   6 C        2.916    -0.033    28.821     8.803
    22   6 C        2.974     0.008    27.825     8.653
    23   6 C        2.974     0.015    27.667     8.628
    24   6 C        2.922    -0.030    28.752     8.793
    25   6 C        2.917    -0.042    29.042     8.837
    26   6 C        2.925     0.064    26.562     8.452
    27   7 N        2.753    -0.030    21.815     6.937
    28   6 C        2.927     0.062    26.600     8.458
    29   6 C        2.921    -0.040    29.003     8.831
    30   6 C        2.919    -0.025    28.632     8.775
    31   6 C        2.919    -0.029    28.728     8.789
    32   6 C        2.919    -0.025    28.635     8.775
    33   6 C        2.921    -0.040    29.006     8.832
    34   6 C        2.926     0.063    26.599     8.458
    35   6 C        2.921    -0.041    29.008     8.832
    36   6 C        2.919    -0.025    28.635     8.775
    37   6 C        2.919    -0.029    28.729     8.789
    38   6 C        2.919    -0.025    28.633     8.775
    39   6 C        2.921    -0.041    29.008     8.832
    40   6 C        2.917    -0.042    29.047     8.838
    41   6 C        2.922    -0.030    28.757     8.794
    42   6 C        2.925    -0.038    28.952     8.824
    43   6 C        2.906    -0.042    29.031     8.835
    44   6 C        3.077     0.047    26.873     8.499
    45   6 C        2.914    -0.045    29.123     8.849
    46   6 C        2.922    -0.033    28.829     8.805
    47   1 H        0.926     0.026     2.648     2.545
    48   1 H        0.925     0.028     2.620     2.531
    49   1 H        0.926     0.027     2.634     2.538
    50   1 H        0.925     0.025     2.661     2.551
    51   1 H        0.925     0.022     2.708     2.573
    52   1 H        0.926     0.030     2.591     2.517
    53   1 H        0.926     0.035     2.515     2.480
    54   1 H        0.926     0.038     2.473     2.459
    55   1 H        0.926     0.038     2.472     2.459
    56   1 H        0.926     0.040     2.453     2.449
    57   1 H        0.926     0.044     2.399     2.422
    58   1 H        0.926     0.051     2.310     2.377
    59   1 H        0.926     0.049     2.337     2.390
    60   1 H        0.926     0.046     2.365     2.405
    61   1 H        0.926     0.044     2.394     2.420
    62   1 H        0.926     0.045     2.387     2.416
    63   1 H        0.926     0.043     2.406     2.425
    64   1 H        0.926     0.045     2.382     2.414
    65   1 H        0.926     0.045     2.381     2.413
    66   1 H        0.926     0.045     2.384     2.415
    67   1 H        0.926     0.044     2.391     2.418
    68   1 H        0.926     0.043     2.410     2.428
    69   1 H        0.926     0.045     2.387     2.416
    70   1 H        0.926     0.044     2.391     2.418
    71   1 H        0.926     0.047     2.352     2.398
    72   1 H        0.926     0.050     2.314     2.379
    73   1 H        0.926     0.045     2.383     2.414
    74   1 H        0.926     0.040     2.455     2.450
    75   1 H        0.926     0.035     2.519     2.482
    76   1 H        0.926     0.028     2.608     2.525

molecular dipole:
                 x           y           z       tot (Debye)
 q only:      -10.865      -2.910       0.996
   full:      -10.649      -2.835       1.007      28.127

 projected vibrational frequencies (cm⁻¹)
eigval :       -0.00    -0.00    -0.00     0.00     0.00     0.00
eigval :        5.02    10.95    14.99    20.83    27.72    34.82
eigval :       43.96    47.38    53.29    56.00    68.75    70.02
eigval :       81.28    96.91    99.07   111.80   119.07   136.05
eigval :      145.17   162.66   179.89   198.37   205.17   214.37
eigval :      231.34   238.37   265.94   274.83   285.16   305.93
eigval :      315.46   336.96   340.46   350.52   371.71   375.93
eigval :      377.07   378.39   385.81   390.49   393.26   405.90
eigval :      409.76   417.58   425.82   448.69   454.06   459.84
eigval :      483.08   495.15   517.12   530.55   545.35   546.11
eigval :      565.67   580.30   581.38   584.71   586.66   589.58
eigval :      593.25   598.57   607.19   611.71   613.24   645.52
eigval :      652.56   657.70   662.81   667.26   675.32   691.19
eigval :      692.77   707.39   725.03   740.76   751.25   755.94
eigval :      759.07   773.30   800.45   808.11   817.76   829.98
eigval :      843.52   850.13   864.20   865.35   869.87   870.92
eigval :      872.05   883.05   893.19   894.89   897.04   899.04
eigval :      901.29   903.72   908.20   912.25   914.49   915.64
eigval :      917.58   918.76   921.93   924.83   927.91   928.53
eigval :      929.73   931.92   932.20   938.04   978.99   980.26
eigval :     1000.73  1001.65  1002.00  1020.66  1056.45  1068.65
eigval :     1076.33  1078.74  1079.89  1115.99  1117.35  1119.61
eigval :     1121.82  1132.77  1140.18  1149.24  1165.32  1167.82
eigval :     1173.80  1175.53  1175.70  1176.75  1177.51  1187.26
eigval :     1189.75  1190.58  1208.35  1213.74  1220.77  1235.19
eigval :     1251.94  1257.16  1258.88  1268.03  1272.63  1274.53
eigval :     1276.54  1278.91  1284.18  1293.89  1313.81  1314.32
eigval :     1323.02  1324.75  1326.68  1330.42  1345.06  1352.25
eigval :     1362.93  1383.65  1413.73  1416.89  1420.40  1423.93
eigval :     1430.27  1431.49  1436.40  1446.66  1448.19  1451.34
eigval :     1456.31  1456.59  1462.66  1470.84  1476.78  1510.00
eigval :     1526.81  1531.86  1541.95  1551.71  1566.75  1570.47
eigval :     1574.04  1578.90  1579.25  1582.63  1586.30  1593.92
eigval :     3058.67  3059.19  3069.03  3070.77  3072.54  3074.34
eigval :     3079.69  3080.83  3081.32  3081.76  3082.14  3082.69
eigval :     3083.79  3085.26  3085.61  3086.63  3087.53  3088.14
eigval :     3089.64  3090.57  3092.86  3093.25  3093.75  3096.95
eigval :     3099.10  3099.40  3100.40  3100.70  3101.11  3102.97

   temp. (K)  partition function   enthalpy   heat capacity  entropy
                                   cal/mol     cal/K/mol   cal/K/mol   J/K/mol
 298.15  VIB  0.354E+18            21608.493    136.673    135.702
         ROT  0.116E+09              888.752      2.981     39.880
         INT  0.411E+26            22497.245    139.654    175.582
         TR   0.139E+29             1481.254      4.968     44.992
         TOT                       23978.4988   144.6219   220.5740   922.8815

       T/K    H(0)-H(T)+PV         H(T)/Eh          T*S/Eh         G(T)/Eh
   ------------------------------------------------------------------------
    298.15    0.382122E-01    0.621463E+00    0.104802E+00    0.516661E+00
   ------------------------------------------------------------------------

         :::::::::::::::::::::::::::::::::::::::::::::::::::::
         ::                  THERMODYNAMIC                  ::
         :::::::::::::::::::::::::::::::::::::::::::::::::::::
         :: total free energy        -116.760140486825 Eh   ::
         ::.................................................::
         :: total energy             -117.276801649960 Eh   ::
         :: zero point energy           0.583250802186 Eh   ::
         :: G(RRHO) w/o ZPVE           -0.066589639052 Eh   ::
         :: G(RRHO) contrib.            0.516661163135 Eh   ::
         :::::::::::::::::::::::::::::::::::::::::::::::::::::

           -------------------------------------------------
          | TOTAL ENERGY             -117.276801649960 Eh   |
          | TOTAL ENTHALPY           -116.655338677653 Eh   |
          | TOTAL FREE ENERGY        -116.760140486825 Eh   |
          | GRADIENT NORM               0.000064365168 Eh/α |
          | HOMO-LUMO GAP               0.310807850358 eV   |
           -------------------------------------------------

 * finished run on 2025/08/30 at 20:39:52.624
