   * xtb version 6.7.1 (edcfbbe) compiled by 'albert@albert-system' on 2024-07-22

   ID    Z sym.   atoms
    1    8 O      1
    2    6 C      2-12, 14-26, 28-46
    3    7 N      13, 27
    4    1 H      47-76

          program call               : xtb data2507/toluene/TCB/TCB_toluene_S0_finalOpt.xtbopt.xyz --gfn 2 --uhf 2 --gbsa toluene --ohess vtight --parallel 40 --molden --ceasefiles --namespace data2507/toluene/TCB/TCB_toluene_T1_preOpt
      * Solvation model:               GBSA
        Solvent                        toluene
        Solvent mass                       9.2140E+01 g/mol
          :  Hamiltonian                  GFN2-xTB          :
 * total energy  :  -117.2708484 Eh     change       -0.3771120E-08 Eh
 * total energy  :  -117.2744710 Eh     change       -0.3622601E-02 Eh
 * total energy  :  -117.2755393 Eh     change       -0.1068315E-02 Eh
 * total energy  :  -117.2757365 Eh     change       -0.1971841E-03 Eh
 * total energy  :  -117.2759170 Eh     change       -0.1804435E-03 Eh
 * total energy  :  -117.2760776 Eh     change       -0.1606028E-03 Eh
 * total energy  :  -117.2762196 Eh     change       -0.1420145E-03 Eh
 * total energy  :  -117.2763258 Eh     change       -0.1062498E-03 Eh
 * total energy  :  -117.2763886 Eh     change       -0.6272771E-04 Eh
 * total energy  :  -117.2764416 Eh     change       -0.5302898E-04 Eh
 * total energy  :  -117.2767352 Eh     change       -0.1837004E-05 Eh
 * total energy  :  -117.2767371 Eh     change       -0.1949090E-05 Eh
 * total energy  :  -117.2767394 Eh     change       -0.2246997E-05 Eh
 * total energy  :  -117.2767417 Eh     change       -0.2340764E-05 Eh
 * total energy  :  -117.2767434 Eh     change       -0.1708511E-05 Eh
 * total energy  :  -117.2767444 Eh     change       -0.9354563E-06 Eh
 * total energy  :  -117.2767449 Eh     change       -0.5322472E-06 Eh
 * total energy  :  -117.2767452 Eh     change       -0.3185805E-06 Eh
 * total energy  :  -117.2767452 Eh     change       -0.5695952E-08 Eh
   *** GEOMETRY OPTIMIZATION CONVERGED AFTER 44 ITERATIONS ***

 final structure:
================
76
 xtb: 6.7.1 (edcfbbe)
O            8.92391637259244        0.34956811757625       -1.05619413678336
C            7.93037182621611        0.94175098882848       -0.52489210730892
C            8.08456026365623        2.32087288799073       -0.05552014612427
C            9.35077736828892        2.76032892240330        0.35795962142056
C            9.54947180199251        4.06182021546787        0.76509114305083
C            8.49758302573938        4.96774177400378        0.75339305451516
C            7.24819791576233        4.55647438215089        0.30934742173354
C            7.03983033161471        3.25444756126163       -0.09633713348800
C            6.66885220627695        0.26036125333523       -0.38026751985088
C            5.67947935341052        0.62489157048785        0.56177766636740
C            4.50707337639841       -0.07734504008005        0.66255314011238
C            4.26550318171992       -1.19204761841162       -0.15477070134786
N            3.05508898177338       -1.88678006382278       -0.06193512115461
C            2.91675067574453       -3.25896913182752        0.06530130936154
C            3.89422135824849       -4.23711325103206        0.17561880687983
C            3.48009843565061       -5.55101589581225        0.31331809700933
C            2.12928379294561       -5.88605200672512        0.35034790994791
C            1.14979092734566       -4.91126317063192        0.26908818844141
C            1.54160401829981       -3.58795756974299        0.13375613339964
C            0.82267957307528       -2.34425124852792        0.04647485554914
C           -0.51825661081779       -2.02254089146943        0.04865106010447
C           -0.90510623851389       -0.68134620199575       -0.05781024294169
C           -2.31172748644129       -0.31365542716473       -0.03930036929535
C           -2.73798787116239        0.90178815778968        0.51809313497368
C           -4.06494374995817        1.25476942426019        0.53650136669894
C           -5.03780786045655        0.40710616219138       -0.01366614330895
N           -6.37555861700071        0.76411168529467       -0.00697491804016
C           -6.75269706540734        2.11178123266995       -0.08588255992587
C           -7.83033725288652        2.58360769332294        0.66544151172139
C           -8.20565905280569        3.91023633591051        0.58002382512159
C           -7.51590470342802        4.78220265180665       -0.24859231006620
C           -6.44547409676682        4.31718396391953       -0.99719406883750
C           -6.06342931239430        2.99177469565775       -0.92223230123717
C           -7.37377305980049       -0.21629131419379        0.07994899957361
C           -8.54804363758515       -0.08903646621935       -0.66363576879913
C           -9.53620727886021       -1.04940693162235       -0.56638891824157
C           -9.36953868585671       -2.14510771850227        0.26689970226591
C           -8.20388597632617       -2.27556593274970        1.00630418975424
C           -7.21006293952704       -1.32007073355898        0.91870006859144
C           -4.62147326135148       -0.81050495203102       -0.57214377174417
C           -3.29330863775461       -1.15950031448943       -0.57829191989461
C            0.08892942286910        0.31171036337992       -0.19683879327774
C            1.42943202830129        0.00972793195132       -0.21763851670391
C            1.80777174624224       -1.32452526395189       -0.07158887810674
C            5.26102104337990       -1.60237514791324       -1.05506225273266
C            6.43280618710746       -0.90353858094687       -1.15292639555847
H           10.16390820670844        2.04754794752423        0.35612690656746
H           10.53095900562387        4.37644672080948        1.09209061535891
H            8.65389144708600        5.98809653359253        1.07136587176219
H            6.43215314862795        5.26477104280934        0.26811983414151
H            6.07553391503241        2.96036005223805       -0.48469309545737
H            5.86850746677722        1.44327003388471        1.24005122668338
H            3.77393156398684        0.19764205222438        1.40758966877554
H            4.94300630538422       -3.98308251512697        0.16614874504490
H            4.22239691246883       -6.33068131013037        0.39835961030656
H            1.84556146452259       -6.92266912092984        0.45521360035250
H            0.10379888379771       -5.17314110481780        0.31622192349902
H           -1.25845623014841       -2.79864989034973        0.16463927849321
H           -2.01544637373381        1.55569595145807        0.98138788167472
H           -4.37057838555593        2.18037743017417        1.00104372457814
H           -8.35947424501475        1.90755196193619        1.32052040982287
H           -9.03659054090339        4.26750738877181        1.16968859511455
H           -7.81194279550767        5.81824381463515       -0.31183570445573
H           -5.90969461241775        4.98922118501347       -1.65084486256154
H           -5.24166987497888        2.62572961519988       -1.51974269560340
H           -8.67256135065659        0.75836643929126       -1.32133864823903
H          -10.43916346017176       -0.94520587218759       -1.14916466967615
H          -10.14458818061602       -2.89270252401193        0.34054867793975
H           -8.07169171025111       -3.12238064945421        1.66309301655218
H           -6.31012459801587       -1.41155457980400        1.50857129713819
H           -5.35302005273665       -1.46250342671434       -1.02556152480107
H           -2.99718970981618       -2.08315545889243       -1.05095844367825
H           -0.21474660686223        1.33816943402263       -0.33246526014787
H            2.17094104300665        0.78109088333978       -0.35840118799888
H            5.08054602160884       -2.45319622890988       -1.69609733889891
H            7.20341393988148       -1.20400859080953       -1.84849396592868

          :  Hamiltonian                  GFN2-xTB          :
         :: gradient norm              0.000051982619 Eh/a0 ::
         :: HOMO-LUMO gap              0.325775778943 eV    ::
         :: SCC energy              -119.439569084440 Eh    ::
         :: -> dispersion             -0.101127450945 Eh    ::
         :: -> Gsolv                  -0.069493946411 Eh    ::
         :: repulsion energy           2.162823851103 Eh    ::

    * Orbital Energies and Occupations

         #    Occupation            Energy/Eh            Energy/eV
      -------------------------------------------------------------
         1        2.0000           -0.6868664             -18.6906
       ...           ...                  ...                  ...
        98        2.0000           -0.4186155             -11.3911
        99        2.0000           -0.4155428             -11.3075
       100        2.0000           -0.4120253             -11.2118
       101        2.0000           -0.4090918             -11.1320
       102        2.0000           -0.4019850             -10.9386
       103        2.0000           -0.3975322             -10.8174
       104        2.0000           -0.3943679             -10.7313
       105        2.0000           -0.3902623             -10.6196
       106        2.0000           -0.3890382             -10.5863
       107        2.0000           -0.3731149             -10.1530
       108        1.7976           -0.3631906              -9.8829
       109        1.2024           -0.3605852              -9.8120
       110        0.9982           -0.2723510              -7.4110 (HOMO)
       111        0.0018           -0.2603791              -7.0853 (LUMO)
       112        0.0000           -0.2537237              -6.9042
       113                         -0.2459638              -6.6930
       114                         -0.2409330              -6.5561
       115                         -0.2355390              -6.4093
       116                         -0.2347755              -6.3886
       117                         -0.2287810              -6.2254
       118                         -0.2241573              -6.0996
       119                         -0.2163419              -5.8870
       120                         -0.2130882              -5.7984
       121                         -0.2114839              -5.7548
       ...                                ...                  ...
       214                          0.7378625              20.0783
      -------------------------------------------------------------
                  HL-Gap            0.0119718 Eh            0.3258 eV

     #   Z          covCN         q      C6AA      α(0)
     1   8 O        0.857    -0.523    24.305     6.610
     2   6 C        2.833     0.163    24.469     8.106
     3   6 C        2.969    -0.015    28.383     8.739
     4   6 C        2.924    -0.031    28.766     8.796
     5   6 C        2.916    -0.034    28.856     8.809
     6   6 C        2.919    -0.042    29.049     8.838
     7   6 C        2.917    -0.034    28.857     8.809
     8   6 C        2.920    -0.042    29.033     8.836
     9   6 C        2.966    -0.023    28.576     8.768
    10   6 C        2.916    -0.045    29.111     8.848
    11   6 C        2.915    -0.045    29.116     8.848
    12   6 C        2.912     0.035    27.220     8.555
    13   7 N        2.799    -0.008    21.404     6.871
    14   6 C        3.079     0.046    26.886     8.501
    15   6 C        2.909    -0.041    29.020     8.833
    16   6 C        2.923    -0.032    28.793     8.800
    17   6 C        2.920    -0.035    28.867     8.811
    18   6 C        2.912    -0.030    28.755     8.793
    19   6 C        3.063    -0.013    28.284     8.721
    20   6 C        3.061    -0.012    28.250     8.716
    21   6 C        2.915    -0.033    28.819     8.803
    22   6 C        2.975     0.009    27.824     8.652
    23   6 C        2.974     0.015    27.667     8.628
    24   6 C        2.922    -0.030    28.750     8.793
    25   6 C        2.918    -0.042    29.053     8.839
    26   6 C        2.924     0.065    26.551     8.450
    27   7 N        2.753    -0.030    21.817     6.937
    28   6 C        2.927     0.062    26.601     8.458
    29   6 C        2.921    -0.040    29.003     8.831
    30   6 C        2.919    -0.025    28.632     8.775
    31   6 C        2.919    -0.029    28.726     8.789
    32   6 C        2.919    -0.025    28.636     8.775
    33   6 C        2.921    -0.040    29.005     8.832
    34   6 C        2.927     0.062    26.602     8.458
    35   6 C        2.921    -0.040    29.000     8.831
    36   6 C        2.919    -0.025    28.631     8.775
    37   6 C        2.919    -0.029    28.726     8.789
    38   6 C        2.919    -0.025    28.635     8.775
    39   6 C        2.921    -0.040    29.004     8.832
    40   6 C        2.918    -0.043    29.057     8.840
    41   6 C        2.922    -0.030    28.750     8.793
    42   6 C        2.926    -0.038    28.950     8.824
    43   6 C        2.906    -0.042    29.037     8.836
    44   6 C        3.077     0.047    26.873     8.499
    45   6 C        2.914    -0.045    29.119     8.849
    46   6 C        2.922    -0.033    28.826     8.805
    47   1 H        0.925     0.021     2.718     2.578
    48   1 H        0.925     0.024     2.669     2.555
    49   1 H        0.926     0.027     2.636     2.539
    50   1 H        0.925     0.028     2.613     2.528
    51   1 H        0.926     0.026     2.638     2.540
    52   1 H        0.926     0.030     2.580     2.512
    53   1 H        0.926     0.036     2.502     2.474
    54   1 H        0.926     0.037     2.483     2.464
    55   1 H        0.926     0.038     2.479     2.462
    56   1 H        0.926     0.040     2.453     2.449
    57   1 H        0.926     0.044     2.396     2.421
    58   1 H        0.926     0.050     2.316     2.380
    59   1 H        0.926     0.049     2.333     2.388
    60   1 H        0.926     0.047     2.361     2.403
    61   1 H        0.926     0.044     2.393     2.419
    62   1 H        0.926     0.045     2.386     2.416
    63   1 H        0.926     0.043     2.409     2.427
    64   1 H        0.926     0.045     2.389     2.417
    65   1 H        0.926     0.045     2.380     2.413
    66   1 H        0.926     0.044     2.397     2.421
    67   1 H        0.926     0.045     2.388     2.416
    68   1 H        0.926     0.043     2.406     2.425
    69   1 H        0.926     0.045     2.381     2.413
    70   1 H        0.926     0.046     2.375     2.410
    71   1 H        0.926     0.047     2.352     2.398
    72   1 H        0.926     0.050     2.319     2.382
    73   1 H        0.926     0.046     2.376     2.410
    74   1 H        0.926     0.041     2.441     2.443
    75   1 H        0.926     0.034     2.530     2.487
    76   1 H        0.926     0.028     2.620     2.531

molecular dipole:
                 x           y           z       tot (Debye)
 q only:      -11.875      -0.621       0.885
   full:      -11.672      -0.537       0.896      29.785

 projected vibrational frequencies (cm⁻¹)
eigval :       -0.00    -0.00    -0.00    -0.00     0.00     0.00
eigval :       11.87    13.32    15.42    21.68    27.95    32.20
eigval :       44.60    50.23    54.80    64.95    65.86    70.11
eigval :       80.05   100.13   101.67   112.14   118.03   131.56
eigval :      147.77   160.83   175.88   201.17   206.72   215.94
eigval :      233.44   242.45   261.01   274.29   285.03   306.65
eigval :      320.15   329.64   341.62   358.06   368.44   372.95
eigval :      375.96   378.03   385.45   391.44   394.42   403.51
eigval :      413.54   416.45   428.31   448.85   451.22   460.89
eigval :      483.76   496.25   518.56   528.51   542.53   550.80
eigval :      561.16   580.57   581.75   584.11   588.11   590.51
eigval :      593.62   599.76   601.40   613.71   618.38   639.66
eigval :      656.93   658.95   665.14   666.10   674.55   691.04
eigval :      692.24   707.76   724.89   741.84   755.07   755.65
eigval :      758.32   773.84   803.18   810.07   816.68   831.24
eigval :      845.17   854.37   866.77   867.61   869.16   872.00
eigval :      872.49   884.47   893.12   895.15   898.21   900.94
eigval :      901.90   905.75   908.88   913.47   916.51   918.88
eigval :      920.57   924.33   924.48   924.97   925.89   927.78
eigval :      928.76   931.44   932.68   938.45   979.47   980.01
eigval :     1001.22  1001.63  1002.31  1020.54  1058.14  1067.74
eigval :     1077.73  1078.74  1079.97  1115.64  1118.88  1119.38
eigval :     1121.19  1134.70  1140.35  1148.49  1166.73  1168.49
eigval :     1173.54  1176.59  1177.65  1177.88  1178.24  1186.92
eigval :     1189.12  1189.75  1208.30  1212.19  1220.81  1234.62
eigval :     1253.29  1256.63  1258.08  1267.08  1272.22  1275.41
eigval :     1277.67  1280.43  1285.53  1293.08  1314.11  1314.57
eigval :     1322.91  1325.27  1327.15  1330.86  1345.02  1350.43
eigval :     1362.69  1387.17  1412.80  1418.10  1420.51  1424.02
eigval :     1430.95  1431.84  1436.51  1446.95  1448.90  1451.01
eigval :     1456.19  1456.72  1462.53  1471.34  1478.11  1512.09
eigval :     1528.56  1533.15  1541.38  1551.46  1567.27  1570.90
eigval :     1573.40  1578.31  1579.25  1583.06  1586.19  1593.50
eigval :     3058.86  3059.36  3069.62  3071.78  3072.17  3074.77
eigval :     3078.65  3080.92  3081.10  3081.72  3082.40  3082.64
eigval :     3083.59  3084.88  3085.39  3086.84  3087.14  3088.51
eigval :     3089.46  3090.39  3092.56  3092.88  3093.48  3096.43
eigval :     3098.40  3098.82  3100.23  3100.41  3100.61  3102.19

   temp. (K)  partition function   enthalpy   heat capacity  entropy
                                   cal/mol     cal/K/mol   cal/K/mol   J/K/mol
 298.15  VIB  0.103E+18            21569.678    136.751    134.454
         ROT  0.124E+09              888.752      2.981     40.010
         INT  0.127E+26            22458.430    139.732    174.464
         TR   0.139E+29             1481.254      4.968     44.992
         TOT                       23939.6838   144.7000   219.4560   918.2041

       T/K    H(0)-H(T)+PV         H(T)/Eh          T*S/Eh         G(T)/Eh
   ------------------------------------------------------------------------
    298.15    0.381503E-01    0.621601E+00    0.104271E+00    0.517330E+00
   ------------------------------------------------------------------------

         :::::::::::::::::::::::::::::::::::::::::::::::::::::
         ::                  THERMODYNAMIC                  ::
         :::::::::::::::::::::::::::::::::::::::::::::::::::::
         :: total free energy        -116.759414750402 Eh   ::
         ::.................................................::
         :: total energy             -117.276745229619 Eh   ::
         :: zero point energy           0.583450808948 Eh   ::
         :: G(RRHO) w/o ZPVE           -0.066120329731 Eh   ::
         :: G(RRHO) contrib.            0.517330479217 Eh   ::
         :::::::::::::::::::::::::::::::::::::::::::::::::::::

           -------------------------------------------------
          | TOTAL ENERGY             -117.276745229619 Eh   |
          | TOTAL ENTHALPY           -116.655144106105 Eh   |
          | TOTAL FREE ENERGY        -116.759414750402 Eh   |
          | GRADIENT NORM               0.000053581777 Eh/α |
          | HOMO-LUMO GAP               0.325769427772 eV   |
           -------------------------------------------------

 * finished run on 2025/08/30 at 20:30:57.324
