   * xtb version 6.7.1 (edcfbbe) compiled by 'albert@albert-system' on 2024-07-22

   ID    Z sym.   atoms
    1    8 O      1, 3, 15, 16
    2    7 N      2, 14, 19, 32
    3    6 C      4-13, 17, 18, 20-31, 33-46
    4    1 H      47-70

          program call               : xtb data2507/toluene/DCBNPE/DCBNPE_toluene_S0_finalOpt.xtbopt.xyz --gfn 2 --uhf 2 --gbsa toluene --ohess vtight --parallel 40 --molden --ceasefiles --namespace data2507/toluene/DCBNPE/DCBNPE_toluene_T1_preOpt
      * Solvation model:               GBSA
        Solvent                        toluene
        Solvent mass                       9.2140E+01 g/mol
          :  Hamiltonian                  GFN2-xTB          :
 * total energy  :  -121.4396648 Eh     change       -0.8201809E-08 Eh
 * total energy  :  -121.4441349 Eh     change       -0.4470053E-02 Eh
 * total energy  :  -121.4456459 Eh     change       -0.1511039E-02 Eh
 * total energy  :  -121.4459169 Eh     change       -0.2709831E-03 Eh
 * total energy  :  -121.4461363 Eh     change       -0.2193847E-03 Eh
 * total energy  :  -121.4463120 Eh     change       -0.1756478E-03 Eh
 * total energy  :  -121.4465158 Eh     change       -0.2038468E-03 Eh
 * total energy  :  -121.4467095 Eh     change       -0.1936896E-03 Eh
 * total energy  :  -121.4468901 Eh     change       -0.1805758E-03 Eh
 * total energy  :  -121.4470296 Eh     change       -0.1395254E-03 Eh
 * total energy  :  -121.4484919 Eh     change       -0.5002642E-06 Eh
 * total energy  :  -121.4484924 Eh     change       -0.4882682E-06 Eh
 * total energy  :  -121.4484929 Eh     change       -0.4905635E-06 Eh
 * total energy  :  -121.4484934 Eh     change       -0.4951536E-06 Eh
 * total energy  :  -121.4484939 Eh     change       -0.4888416E-06 Eh
 * total energy  :  -121.4484943 Eh     change       -0.4811182E-06 Eh
 * total energy  :  -121.4484948 Eh     change       -0.4531271E-06 Eh
 * total energy  :  -121.4484953 Eh     change       -0.4726453E-06 Eh
 * total energy  :  -121.4484953 Eh     change       -0.1492712E-07 Eh
   *** GEOMETRY OPTIMIZATION CONVERGED AFTER 185 ITERATIONS ***

 final structure:
================
70
 xtb: 6.7.1 (edcfbbe)
O           -6.40540244708955       -0.52588326153136        1.70958296162567
N           -5.81019787792794       -1.35044089087173        1.00888872561128
O           -6.37542392359395       -2.31028097847414        0.47566876752935
C           -4.42819677756445       -1.18828540138878        0.80763937264327
C           -3.74996623287806       -0.12545631522121        1.41887189316721
C           -2.40634273911931        0.03726118666495        1.21467620850666
C           -1.68289673371287       -0.85266273358367        0.38918646706950
C           -0.29505138639323       -0.64912685323634        0.09889404480642
C            0.29726299240268        0.65268716240509        0.10397069475329
C            1.68500467140313        0.85363683732743        0.39669353744705
C            2.40727845143493       -0.04213594178007        1.21684616582108
C            3.75080654212674        0.11857990670820        1.42334143416620
C            4.43010456280993        1.18498774869526        0.81959343569440
N            5.81200408357574        1.34510241800601        1.02313652796018
O            6.37826517630307        2.30799048089274        0.49653867475096
O            6.40610134656547        0.51581822967493        1.71918789686440
C            3.72795927276259        2.09807464196291        0.01945189829174
C            2.38455891737528        1.94040338768789       -0.17957927553502
N           -0.49447853737354        1.74103460689678       -0.18487543589055
C           -0.51825795295450        2.94550093925259        0.51382767111396
C            0.21773560345845        3.33954325985765        1.62210358988184
C           -0.04700293866546        4.58654282257078        2.16214961421220
C           -1.02154374664000        5.41947909431690        1.62190633875370
C           -1.77721356684237        5.01884277327005        0.53187417196366
C           -1.52818693825998        3.77423491739749       -0.02259859816690
C           -2.13220278374732        3.04117122667494       -1.10930737358743
C           -3.13865986813351        3.34365105109299       -2.01081553982720
C           -3.46892787784075        2.40170484597155       -2.97207269853045
C           -2.79053947780375        1.18997485949070       -3.05000309678244
C           -1.77846670183383        0.87165308312591       -2.16116794003260
C           -1.47125061711872        1.79483471311919       -1.17199556035682
N            0.49722546991816       -1.73502317339232       -0.19774837521109
C            0.52117440219716       -2.94467524087032        0.49184741948036
C           -0.21452130098144       -3.34688181872066        1.59737330983134
C            0.05008277747025       -4.59802464747785        2.12780952586861
C            1.02431773535881       -5.42701001807852        1.58095227740983
C            1.77990449623151       -5.01819479806502        0.49390094876012
C            1.53097704850167       -3.76935616702091       -0.05100751441579
C            2.13492233120900       -3.02802535496269       -1.13213086541512
C            3.14130407987200       -3.32360459969990       -2.03601007198952
C            3.47150491661929       -2.37433375112216       -2.99006868947936
C            2.79315997055615       -1.16201207086969       -3.05864159017019
C            1.78111458910813       -0.85052635314941       -2.16735803074276
C            1.47396034680746       -1.78124754790730       -1.18526057607389
C           -2.38145392573253       -1.93589051571718       -0.19492572794967
C           -3.72489548093343       -2.09565475868070        0.00202477410153
H           -4.30610915442365        0.54506317068070        2.05585354334022
H           -1.88887715117033        0.83372968457968        1.72595917762359
H            1.88889685096554       -0.84164406906660        1.72242634686958
H            4.30605101223317       -0.55630683198235        2.05647285239383
H            4.27188063049742        2.91212009600007       -0.43450687175568
H            1.85632829705264        2.63517787505599       -0.81456125075790
H            0.97246994909492        2.70338054616215        2.05605339692558
H            0.51631889000171        4.91635743514425        3.02169709264299
H           -1.19577480160309        6.38763726936668        2.06620778152722
H           -2.54883268220556        5.65533237150598        0.12811623842748
H           -3.65004274103910        4.29237707532759       -1.96670183618962
H           -4.25511605559873        2.61457826772113       -3.68042606050483
H           -3.05348390727561        0.48360308075790       -3.82242964978984
H           -1.25092012384372       -0.06408914683975       -2.24988155407528
H           -0.96879259139088       -2.71364264255516        2.03641554184260
H           -0.51305725662312       -4.93430730504662        2.98497008418780
H            1.19839380969555       -6.39861123455383        2.01772865786470
H            2.55138533790842       -5.65168358019647        0.08519167465520
H            3.65267293169820       -4.27265156432479       -1.99921962294731
H            4.25764376253423       -2.58177323152678       -3.70008785217844
H            3.05612016099264       -0.44967962475653       -3.82556611507534
H            1.25350481171246        0.08582934515950       -2.24885995354057
H           -1.85237856362225       -2.62612435512857       -0.83414727967609
H           -4.26796299909724       -2.90703989787783       -0.45770484032429

          :  Hamiltonian                  GFN2-xTB          :
         :: gradient norm              0.000057990633 Eh/a0 ::
         :: HOMO-LUMO gap              0.633018855429 eV    ::
         :: SCC energy              -123.407562069288 Eh    ::
         :: -> dispersion             -0.110063773637 Eh    ::
         :: -> Gsolv                  -0.058869711570 Eh    ::
         :: repulsion energy           1.959066781747 Eh    ::

    * Orbital Energies and Occupations

         #    Occupation            Energy/Eh            Energy/eV
      -------------------------------------------------------------
         1        2.0000           -0.7401482             -20.1405
       ...           ...                  ...                  ...
        99        2.0000           -0.4321700             -11.7599
       100        2.0000           -0.4259872             -11.5917
       101        2.0000           -0.4256630             -11.5829
       102        2.0000           -0.4242165             -11.5435
       103        2.0000           -0.4240944             -11.5402
       104        2.0000           -0.4201036             -11.4316
       105        2.0000           -0.4200474             -11.4301
       106        2.0000           -0.4069218             -11.0729
       107        2.0000           -0.4012624             -10.9189
       108        2.0000           -0.4011303             -10.9153
       109        2.0000           -0.4011191             -10.9150
       110        1.0000           -0.3713683             -10.1054
       111        1.0000           -0.3287990              -8.9471 (HOMO)
       112        0.0000           -0.3055362              -8.3141 (LUMO)
       113                         -0.2820995              -7.6763
       114                         -0.2653418              -7.2203
       115                         -0.2652851              -7.2188
       116                         -0.2474768              -6.7342
       117                         -0.2466191              -6.7108
       118                         -0.2434389              -6.6243
       119                         -0.2424117              -6.5964
       120                         -0.2250512              -6.1240
       121                         -0.2248512              -6.1185
       122                         -0.2138747              -5.8198
       ...                                ...                  ...
       208                          0.7219430              19.6451
      -------------------------------------------------------------
                  HL-Gap            0.0232627 Eh            0.6330 eV

     #   Z          covCN         q      C6AA      α(0)
     1   8 O        0.929    -0.456    22.798     6.403
     2   7 N        2.762     0.492    14.114     5.580
     3   8 O        0.929    -0.456    22.786     6.402
     4   6 C        2.914     0.009    27.827     8.650
     5   6 C        2.914    -0.023    28.583     8.767
     6   6 C        2.920    -0.032    28.804     8.801
     7   6 C        2.972     0.008    27.829     8.653
     8   6 C        2.902     0.031    27.313     8.569
     9   6 C        2.902     0.031    27.313     8.569
    10   6 C        2.972     0.008    27.829     8.653
    11   6 C        2.920    -0.032    28.804     8.801
    12   6 C        2.914    -0.023    28.583     8.767
    13   6 C        2.914     0.009    27.827     8.650
    14   7 N        2.762     0.492    14.114     5.580
    15   8 O        0.929    -0.456    22.786     6.402
    16   8 O        0.929    -0.456    22.798     6.403
    17   6 C        2.914    -0.023    28.587     8.767
    18   6 C        2.921    -0.029    28.716     8.788
    19   7 N        2.798     0.018    20.942     6.797
    20   6 C        3.060     0.042    27.007     8.522
    21   6 C        2.910    -0.038    28.950     8.823
    22   6 C        2.923    -0.027    28.673     8.781
    23   6 C        2.920    -0.027    28.684     8.783
    24   6 C        2.912    -0.026    28.644     8.776
    25   6 C        3.062    -0.005    28.078     8.689
    26   6 C        3.061    -0.004    28.069     8.688
    27   6 C        2.912    -0.026    28.644     8.776
    28   6 C        2.920    -0.027    28.687     8.783
    29   6 C        2.923    -0.028    28.692     8.784
    30   6 C        2.910    -0.040    28.991     8.829
    31   6 C        3.061     0.039    27.063     8.531
    32   7 N        2.798     0.018    20.942     6.797
    33   6 C        3.060     0.042    27.007     8.522
    34   6 C        2.910    -0.038    28.950     8.823
    35   6 C        2.923    -0.027    28.673     8.781
    36   6 C        2.920    -0.027    28.684     8.783
    37   6 C        2.912    -0.026    28.644     8.776
    38   6 C        3.062    -0.005    28.078     8.689
    39   6 C        3.061    -0.004    28.069     8.688
    40   6 C        2.912    -0.026    28.644     8.776
    41   6 C        2.920    -0.027    28.687     8.783
    42   6 C        2.923    -0.028    28.692     8.784
    43   6 C        2.910    -0.040    28.991     8.829
    44   6 C        3.061     0.039    27.063     8.531
    45   6 C        2.921    -0.029    28.716     8.788
    46   6 C        2.914    -0.023    28.587     8.767
    47   1 H        0.926     0.067     2.121     2.278
    48   1 H        0.926     0.050     2.318     2.381
    49   1 H        0.926     0.050     2.318     2.381
    50   1 H        0.926     0.067     2.121     2.278
    51   1 H        0.926     0.069     2.100     2.266
    52   1 H        0.926     0.053     2.279     2.361
    53   1 H        0.926     0.047     2.362     2.403
    54   1 H        0.926     0.048     2.347     2.396
    55   1 H        0.926     0.048     2.339     2.392
    56   1 H        0.926     0.051     2.304     2.374
    57   1 H        0.926     0.051     2.304     2.374
    58   1 H        0.926     0.048     2.348     2.396
    59   1 H        0.926     0.049     2.332     2.388
    60   1 H        0.926     0.047     2.356     2.400
    61   1 H        0.926     0.047     2.362     2.403
    62   1 H        0.926     0.048     2.347     2.396
    63   1 H        0.926     0.048     2.339     2.392
    64   1 H        0.926     0.051     2.304     2.374
    65   1 H        0.926     0.051     2.304     2.374
    66   1 H        0.926     0.048     2.348     2.396
    67   1 H        0.926     0.049     2.332     2.388
    68   1 H        0.926     0.047     2.356     2.400
    69   1 H        0.926     0.053     2.279     2.361
    70   1 H        0.926     0.069     2.100     2.266

molecular dipole:
                 x           y           z       tot (Debye)
 q only:        0.000       0.010      -2.005
   full:        0.000       0.009      -1.933       4.914

 projected vibrational frequencies (cm⁻¹)
eigval :       -0.00    -0.00    -0.00     0.00     0.00     0.00
eigval :       13.21    20.30    24.56    25.71    31.43    34.88
eigval :       37.25    52.99    54.77    80.79    89.02    98.05
eigval :       99.73   106.05   111.55   130.48   132.91   147.45
eigval :      149.43   158.94   162.40   173.73   175.27   180.80
eigval :      227.29   249.17   259.51   262.93   272.45   277.67
eigval :      293.41   321.45   344.76   350.54   387.85   388.05
eigval :      391.80   392.02   412.03   419.08   422.63   424.38
eigval :      433.20   435.93   441.64   461.31   499.71   512.78
eigval :      513.96   523.99   533.30   534.08   540.62   542.73
eigval :      545.47   557.58   582.06   585.49   590.18   596.57
eigval :      601.82   610.65   633.87   636.17   638.44   654.94
eigval :      662.26   674.10   675.33   688.75   701.16   702.19
eigval :      710.41   710.94   750.02   753.02   765.80   768.32
eigval :      775.06   777.03   777.45   795.81   813.64   826.79
eigval :      826.92   855.10   856.05   865.71   869.89   870.72
eigval :      873.87   874.27   882.08   901.30   903.82   905.86
eigval :      906.31   907.59   912.00   919.73   921.59   922.40
eigval :      922.61   922.68   923.01   927.15   927.87   987.73
eigval :      995.44  1009.89  1013.15  1063.31  1067.84  1069.99
eigval :     1070.11  1074.60  1081.10  1129.31  1131.80  1132.79
eigval :     1133.95  1138.87  1140.27  1142.79  1161.43  1172.25
eigval :     1173.00  1173.22  1177.16  1182.35  1203.44  1209.65
eigval :     1217.20  1220.88  1225.84  1233.37  1245.51  1262.68
eigval :     1263.55  1267.93  1268.17  1278.70  1282.88  1286.91
eigval :     1293.88  1332.04  1332.87  1341.00  1341.43  1343.74
eigval :     1361.34  1362.73  1373.05  1380.48  1410.66  1410.93
eigval :     1412.30  1420.60  1432.64  1435.89  1437.63  1447.37
eigval :     1455.33  1455.42  1475.77  1475.91  1507.95  1508.13
eigval :     1539.30  1539.32  1567.44  1570.30  1570.45  1576.41
eigval :     1576.85  1577.74  1577.83  1579.40  1597.06  1599.31
eigval :     3086.72  3086.94  3087.94  3088.09  3091.85  3091.91
eigval :     3094.28  3094.30  3095.54  3095.76  3097.55  3097.84
eigval :     3102.18  3102.25  3103.91  3103.94  3104.93  3105.38
eigval :     3107.75  3107.94  3108.53  3108.74  3110.01  3110.93

   temp. (K)  partition function   enthalpy   heat capacity  entropy
                                   cal/mol     cal/K/mol   cal/K/mol   J/K/mol
 298.15  VIB  0.973E+16            21023.383    132.468    129.972
         ROT  0.258E+08              888.752      2.981     36.892
         INT  0.251E+24            21912.135    135.449    166.864
         TR   0.142E+29             1481.254      4.968     45.042
         TOT                       23393.3891   140.4171   211.9057   886.6135

       T/K    H(0)-H(T)+PV         H(T)/Eh          T*S/Eh         G(T)/Eh
   ------------------------------------------------------------------------
    298.15    0.372797E-01    0.550816E+00    0.100683E+00    0.450133E+00
   ------------------------------------------------------------------------

         :::::::::::::::::::::::::::::::::::::::::::::::::::::
         ::                  THERMODYNAMIC                  ::
         :::::::::::::::::::::::::::::::::::::::::::::::::::::
         :: total free energy        -120.998362026129 Eh   ::
         ::.................................................::
         :: total energy             -121.448495286202 Eh   ::
         :: zero point energy           0.513536759128 Eh   ::
         :: G(RRHO) w/o ZPVE           -0.063403499055 Eh   ::
         :: G(RRHO) contrib.            0.450133260073 Eh   ::
         :::::::::::::::::::::::::::::::::::::::::::::::::::::

           -------------------------------------------------
          | TOTAL ENERGY             -121.448495286202 Eh   |
          | TOTAL ENTHALPY           -120.897678788647 Eh   |
          | TOTAL FREE ENERGY        -120.998362026129 Eh   |
          | GRADIENT NORM               0.000058063950 Eh/α |
          | HOMO-LUMO GAP               0.633011228829 eV   |
           -------------------------------------------------

 * finished run on 2025/09/04 at 20:25:28.135
