   * xtb version 6.7.1 (edcfbbe) compiled by 'albert@albert-system' on 2024-07-22

   ID    Z sym.   atoms
    1    8 O      1, 3, 15, 16
    2    7 N      2, 14, 19, 32
    3    6 C      4-13, 17, 18, 20-31, 33-46
    4    1 H      47-70

          program call               : xtb data2507/toluene/DCBNPE/DCBNPE.xyz --gfn 2 --gbsa toluene --ohess vtight --parallel 40 --molden --ceasefiles --namespace data2507/toluene/DCBNPE/DCBNPE_toluene_S0_preOpt
      * Solvation model:               GBSA
        Solvent                        toluene
        Solvent mass                       9.2140E+01 g/mol
          :  Hamiltonian                  GFN2-xTB          :
 * total energy  :  -121.4651113 Eh     change       -0.5758380E-09 Eh
 * total energy  :  -121.4819307 Eh     change       -0.1681941E-01 Eh
 * total energy  :  -121.4864389 Eh     change       -0.4508180E-02 Eh
 * total energy  :  -121.4877488 Eh     change       -0.1309900E-02 Eh
 * total energy  :  -121.4885022 Eh     change       -0.7534295E-03 Eh
 * total energy  :  -121.4891209 Eh     change       -0.6187048E-03 Eh
 * total energy  :  -121.4895276 Eh     change       -0.4066942E-03 Eh
 * total energy  :  -121.4898996 Eh     change       -0.3719740E-03 Eh
 * total energy  :  -121.4902256 Eh     change       -0.3260639E-03 Eh
 * total energy  :  -121.4905294 Eh     change       -0.3038155E-03 Eh
 * total energy  :  -121.4919570 Eh     change       -0.6627630E-06 Eh
 * total energy  :  -121.4919574 Eh     change       -0.3621717E-06 Eh
 * total energy  :  -121.4919577 Eh     change       -0.2935707E-06 Eh
 * total energy  :  -121.4919579 Eh     change       -0.2589793E-06 Eh
 * total energy  :  -121.4919582 Eh     change       -0.2638306E-06 Eh
 * total energy  :  -121.4919584 Eh     change       -0.1900737E-06 Eh
 * total energy  :  -121.4919585 Eh     change       -0.1247396E-06 Eh
 * total energy  :  -121.4919586 Eh     change       -0.1033600E-06 Eh
 * total energy  :  -121.4919587 Eh     change       -0.9232346E-07 Eh
   *** GEOMETRY OPTIMIZATION CONVERGED AFTER 39 ITERATIONS ***

 final structure:
================
70
 xtb: 6.7.1 (edcfbbe)
O           -4.26637430859861       -5.02094755114944       -1.14286491862793
N           -3.28338612328167       -5.10644358265550       -0.42872357020527
O           -3.00995568767353       -6.09065348767775        0.23485338259209
C           -2.39687848788586       -3.98325833032901       -0.36489233514755
C           -2.66639999658509       -2.84993023147743       -1.12824050363858
C           -1.82042599358593       -1.76595681914740       -1.05393364633926
C           -0.69941031732975       -1.79558430044576       -0.21714932432782
C            0.21169307547105       -0.64814902274663       -0.12050060230754
C           -0.21167896491923        0.64817564929504       -0.12056071128673
C            0.69941492875547        1.79560848130934       -0.21731506394997
C            0.42986575949391        2.95364701495219        0.52048157410243
C            1.27354460061112        4.04011864875756        0.45497017374718
C            2.39687970797362        3.98327201756115       -0.36523810939554
N            3.28337421882425        5.10646281891671       -0.42917149584545
O            4.26642027328386        5.02086324194598       -1.14323296338109
O            3.00995384559331        6.09071983869913        0.23432965351888
C            2.66642141681529        2.84986976443215       -1.12846869968795
C            1.82044565012604        1.76590316006831       -1.05407580818037
N           -1.56425226327254        0.95670534247984        0.04437837133851
C           -2.41338654836895        0.44947982362758        1.01545551095627
C           -2.13057844146024       -0.37332746625843        2.09487107682574
C           -3.17062108836842       -0.70900754555448        2.94123016048709
C           -4.46209449629886       -0.23209957329119        2.72966035652304
C           -4.74239502095043        0.61398098551187        1.67460892222846
C           -3.71237656737802        0.96495814514185        0.81167987674020
C           -3.63995945276553        1.82230210039749       -0.34119611496487
C           -4.57853818941800        2.58245644509302       -1.02649080357145
C           -4.16773947531568        3.29692886179914       -2.13536329301027
C           -2.84408119125189        3.25364247207112       -2.56697736360514
C           -1.89248282150109        2.50270935450582       -1.90155954898876
C           -2.29743188197416        1.79726923128853       -0.77855470154739
N            1.56426295018438       -0.95667559768628        0.04446483602273
C            2.41340168280278       -0.44937602087461        1.01550006890490
C            2.13061066252798        0.37356126725494        2.09482112108566
C            3.17065461399095        0.70929728781075        2.94115636075207
C            4.46211261532708        0.23231741525730        2.72965734541718
C            4.74239624116185       -0.61388725178712        1.67470096842544
C            3.71237690136817       -0.96491949447850        0.81179563113385
C            3.63994563151197       -1.82238114152334       -0.34099171454394
C            4.57850794015819       -2.58264139864070       -1.02619027940895
C            4.16770122041125       -3.29721947756553       -2.13499219041493
C            2.84405101983828       -3.25393142326892       -2.56663188486792
C            1.89247004945172       -2.50289195419533       -1.90130955472262
C            2.29742564004618       -1.79734850413297       -0.77837206199679
C           -0.42988538580068       -2.95354713116917        0.52077342870615
C           -1.27356322099457       -4.04002492929149        0.45534875317870
H           -3.53436730099704       -2.83937032622457       -1.76937101922583
H           -2.01664456634010       -0.89816017362967       -1.66369180353837
H           -0.43808294098457        2.99044327266221        1.16131396303266
H            1.08415339144453        4.93324928466564        1.03027649850925
H            3.53439202667095        2.83925819808958       -1.76959325364868
H            2.01667206917090        0.89805056552551       -1.66375134793865
H           -1.13275226261656       -0.73914724039264        2.28003491789304
H           -2.97582112151965       -1.35294880249943        3.78602271938313
H           -5.25006864487502       -0.52158901856182        3.40901314774775
H           -5.73867643859563        1.00069113750647        1.52323803568015
H           -5.60676767391700        2.60859706189181       -0.69918890072047
H           -4.88152514394049        3.89516848085903       -2.68194690072749
H           -2.55455867260905        3.81577595557262       -3.44248916647317
H           -0.87168086252675        2.46968287435442       -2.24996612731647
H            1.13279728406562        0.73944294765421        2.27993060868476
H            2.97586825619050        1.35334418294546        3.78587137067326
H            5.25008697299065        0.52184993313854        3.40899146168621
H            5.73866491310842       -1.00065207648549        1.52338668212026
H            5.60673014848769       -2.60878155982037       -0.69886514452738
H            4.88147360109815       -3.89554624979573       -2.68149791518381
H            2.55451846376722       -3.81614955396982       -3.44208660263737
H            0.87167487155737       -2.46986804817702       -2.24973571693053
H            0.43805652706484       -2.99028714171974        1.16161874831937
H           -1.08418261744827       -4.93310083641756        1.03074343641820

          :  Hamiltonian                  GFN2-xTB          :
         :: gradient norm              0.000051267946 Eh/a0 ::
         :: HOMO-LUMO gap              0.955576708823 eV    ::
         :: SCC energy              -123.467140425260 Eh    ::
         :: -> dispersion             -0.109772069969 Eh    ::
         :: -> Gsolv                  -0.049370725596 Eh    ::
         :: repulsion energy           1.975181737438 Eh    ::

    * Orbital Energies and Occupations

         #    Occupation            Energy/Eh            Energy/eV
      -------------------------------------------------------------
         1        2.0000           -0.7716194             -20.9968
       ...           ...                  ...                  ...
        98        2.0000           -0.4316828             -11.7467
        99        2.0000           -0.4313087             -11.7365
       100        2.0000           -0.4286876             -11.6652
       101        2.0000           -0.4273491             -11.6288
       102        2.0000           -0.4268169             -11.6143
       103        2.0000           -0.4262491             -11.5988
       104        2.0000           -0.4142912             -11.2734
       105        2.0000           -0.4136743             -11.2567
       106        2.0000           -0.4117718             -11.2049
       107        2.0000           -0.3879516             -10.5567
       108        2.0000           -0.3879383             -10.5563
       109        2.0000           -0.3850543             -10.4779
       110        2.0000           -0.3671495              -9.9906 (HOMO)
       111                         -0.3320327              -9.0351 (LUMO)
       112                         -0.3211642              -8.7393
       113                         -0.2797767              -7.6131
       114                         -0.2580198              -7.0211
       115                         -0.2578735              -7.0171
       116                         -0.2538902              -6.9087
       117                         -0.2532074              -6.8901
       118                         -0.2357851              -6.4160
       119                         -0.2308813              -6.2826
       120                         -0.2306507              -6.2763
       121                         -0.2187303              -5.9520
       ...                                ...                  ...
       208                          0.7357956              20.0220
      -------------------------------------------------------------
                  HL-Gap            0.0351168 Eh            0.9556 eV

     #   Z          covCN         q      C6AA      α(0)
     1   8 O        0.929    -0.408    21.799     6.262
     2   7 N        2.760     0.544    13.544     5.466
     3   8 O        0.929    -0.408    21.799     6.262
     4   6 C        2.916     0.007    27.863     8.656
     5   6 C        2.916    -0.016    28.412     8.741
     6   6 C        2.923    -0.023    28.591     8.769
     7   6 C        2.976     0.026    27.418     8.589
     8   6 C        2.899     0.038    27.154     8.544
     9   6 C        2.899     0.038    27.154     8.544
    10   6 C        2.976     0.026    27.418     8.589
    11   6 C        2.925    -0.020    28.509     8.756
    12   6 C        2.916    -0.015    28.397     8.738
    13   6 C        2.916     0.007    27.863     8.656
    14   7 N        2.760     0.544    13.544     5.466
    15   8 O        0.929    -0.408    21.799     6.262
    16   8 O        0.929    -0.408    21.799     6.262
    17   6 C        2.916    -0.016    28.412     8.741
    18   6 C        2.923    -0.023    28.591     8.769
    19   7 N        2.802    -0.032    21.855     6.943
    20   6 C        3.067     0.040    27.028     8.525
    21   6 C        2.910    -0.052    29.291     8.875
    22   6 C        2.924    -0.033    28.821     8.804
    23   6 C        2.920    -0.039    28.971     8.827
    24   6 C        2.913    -0.032    28.802     8.800
    25   6 C        3.066    -0.014    28.299     8.723
    26   6 C        3.065    -0.014    28.299     8.723
    27   6 C        2.913    -0.032    28.791     8.799
    28   6 C        2.920    -0.038    28.953     8.824
    29   6 C        2.924    -0.032    28.796     8.800
    30   6 C        2.910    -0.050    29.249     8.868
    31   6 C        3.069     0.042    26.980     8.517
    32   7 N        2.802    -0.032    21.855     6.943
    33   6 C        3.067     0.040    27.028     8.525
    34   6 C        2.910    -0.052    29.291     8.875
    35   6 C        2.924    -0.033    28.821     8.804
    36   6 C        2.920    -0.039    28.971     8.827
    37   6 C        2.913    -0.032    28.802     8.800
    38   6 C        3.066    -0.014    28.299     8.723
    39   6 C        3.065    -0.014    28.299     8.723
    40   6 C        2.913    -0.032    28.791     8.799
    41   6 C        2.920    -0.038    28.953     8.824
    42   6 C        2.924    -0.032    28.796     8.800
    43   6 C        2.910    -0.050    29.249     8.868
    44   6 C        3.069     0.042    26.980     8.517
    45   6 C        2.925    -0.020    28.509     8.756
    46   6 C        2.916    -0.015    28.397     8.738
    47   1 H        0.926     0.081     1.972     2.196
    48   1 H        0.926     0.063     2.162     2.299
    49   1 H        0.926     0.064     2.156     2.296
    50   1 H        0.926     0.081     1.967     2.193
    51   1 H        0.926     0.081     1.972     2.196
    52   1 H        0.926     0.063     2.162     2.299
    53   1 H        0.926     0.031     2.576     2.510
    54   1 H        0.926     0.035     2.516     2.480
    55   1 H        0.926     0.033     2.545     2.495
    56   1 H        0.926     0.037     2.487     2.466
    57   1 H        0.926     0.037     2.491     2.468
    58   1 H        0.926     0.034     2.535     2.490
    59   1 H        0.926     0.035     2.513     2.479
    60   1 H        0.926     0.031     2.570     2.507
    61   1 H        0.926     0.031     2.576     2.510
    62   1 H        0.926     0.035     2.516     2.480
    63   1 H        0.926     0.033     2.545     2.495
    64   1 H        0.926     0.037     2.487     2.466
    65   1 H        0.926     0.037     2.491     2.468
    66   1 H        0.926     0.034     2.535     2.490
    67   1 H        0.926     0.035     2.513     2.479
    68   1 H        0.926     0.031     2.570     2.507
    69   1 H        0.926     0.064     2.156     2.296
    70   1 H        0.926     0.081     1.967     2.193

molecular dipole:
                 x           y           z       tot (Debye)
 q only:       -0.000       0.000       0.186
   full:       -0.000       0.000       0.213       0.542

 projected vibrational frequencies (cm⁻¹)
eigval :       -0.00    -0.00    -0.00     0.00     0.00     0.00
eigval :       12.44    14.61    23.04    24.59    27.54    29.06
eigval :       30.64    33.80    34.47    72.12    74.68    79.67
eigval :       96.78   104.13   105.20   108.12   130.12   142.27
eigval :      143.82   157.72   158.50   171.27   175.15   177.58
eigval :      223.53   255.86   260.19   263.00   270.82   271.87
eigval :      296.98   316.21   329.89   353.56   374.53   375.62
eigval :      393.27   394.16   406.95   419.35   423.60   432.86
eigval :      436.62   444.48   450.92   472.56   507.43   516.39
eigval :      518.45   524.84   536.22   536.38   539.13   539.30
eigval :      541.06   545.62   584.00   587.69   590.64   598.56
eigval :      611.24   613.84   641.59   647.61   656.53   667.87
eigval :      671.92   672.55   677.27   701.51   707.26   709.24
eigval :      731.31   735.25   751.44   754.51   765.47   766.32
eigval :      777.45   778.29   780.49   803.00   827.55   839.35
eigval :      840.07   866.75   867.49   868.46   869.18   869.85
eigval :      872.98   877.78   890.26   900.09   902.03   902.64
eigval :      903.18   906.74   908.49   919.90   920.76   923.77
eigval :      923.80   925.83   925.93   932.99   933.50   998.00
eigval :     1007.02  1011.03  1013.21  1069.15  1070.09  1070.46
eigval :     1070.82  1075.53  1077.63  1131.29  1132.35  1135.15
eigval :     1135.60  1146.85  1149.76  1151.58  1165.05  1178.38
eigval :     1178.48  1179.15  1180.47  1194.97  1199.30  1214.38
eigval :     1230.92  1232.49  1233.10  1252.68  1258.59  1263.05
eigval :     1263.16  1292.09  1294.15  1295.09  1297.46  1298.04
eigval :     1305.30  1337.99  1340.78  1353.05  1353.31  1356.26
eigval :     1356.75  1357.93  1363.38  1407.13  1407.25  1415.82
eigval :     1424.78  1424.86  1426.70  1449.25  1454.61  1471.06
eigval :     1471.58  1484.49  1484.50  1541.43  1563.55  1564.97
eigval :     1574.21  1574.22  1574.97  1586.73  1588.08  1592.52
eigval :     1596.88  1597.36  1609.06  1609.14  1609.23  1610.56
eigval :     3077.29  3077.32  3077.81  3077.82  3083.64  3083.68
eigval :     3084.17  3084.41  3091.32  3091.54  3092.41  3093.02
eigval :     3094.22  3094.23  3097.33  3097.76  3099.46  3100.03
eigval :     3101.16  3101.33  3107.14  3107.20  3110.44  3110.57

   temp. (K)  partition function   enthalpy   heat capacity  entropy
                                   cal/mol     cal/K/mol   cal/K/mol   J/K/mol
 298.15  VIB  0.116E+18            21158.461    130.461    131.967
         ROT  0.260E+08              888.752      2.981     36.913
         INT  0.302E+25            22047.213    133.442    168.880
         TR   0.142E+29             1481.254      4.968     45.042
         TOT                       23528.4671   138.4105   213.9216   895.0479

       T/K    H(0)-H(T)+PV         H(T)/Eh          T*S/Eh         G(T)/Eh
   ------------------------------------------------------------------------
    298.15    0.374950E-01    0.552868E+00    0.101641E+00    0.451227E+00
   ------------------------------------------------------------------------

         :::::::::::::::::::::::::::::::::::::::::::::::::::::
         ::                  THERMODYNAMIC                  ::
         :::::::::::::::::::::::::::::::::::::::::::::::::::::
         :: total free energy        -121.040731651083 Eh   ::
         ::.................................................::
         :: total energy             -121.491958689677 Eh   ::
         :: zero point energy           0.515373086308 Eh   ::
         :: G(RRHO) w/o ZPVE           -0.064146047713 Eh   ::
         :: G(RRHO) contrib.            0.451227038594 Eh   ::
         :::::::::::::::::::::::::::::::::::::::::::::::::::::

           -------------------------------------------------
          | TOTAL ENERGY             -121.491958689677 Eh   |
          | TOTAL ENTHALPY           -120.939090604446 Eh   |
          | TOTAL FREE ENERGY        -121.040731651083 Eh   |
          | GRADIENT NORM               0.000051310303 Eh/α |
          | HOMO-LUMO GAP               0.955576791282 eV   |
           -------------------------------------------------

 * finished run on 2025/09/04 at 20:21:40.112
