   * xtb version 6.7.1 (edcfbbe) compiled by 'albert@albert-system' on 2024-07-22

   ID    Z sym.   atoms
    1    8 O      1, 3, 15, 16
    2    7 N      2, 14, 19, 32
    3    6 C      4-13, 17, 18, 20-31, 33-46
    4    1 H      47-70

          program call               : xtb data2507/toluene/DCBNPE/DCBNPE_toluene_T1_crest.xyz --gfn 2 --uhf 2 --gbsa toluene --ohess vtight --parallel 40 --molden --ceasefiles --namespace data2507/toluene/DCBNPE/DCBNPE_toluene_T1_finalOpt
      * Solvation model:               GBSA
        Solvent                        toluene
        Solvent mass                       9.2140E+01 g/mol
          :  Hamiltonian                  GFN2-xTB          :
 * total energy  :  -121.4481162 Eh     change       -0.1228400E-08 Eh
 * total energy  :  -121.4483210 Eh     change       -0.2048077E-03 Eh
 * total energy  :  -121.4483991 Eh     change       -0.7813935E-04 Eh
 * total energy  :  -121.4484140 Eh     change       -0.1484246E-04 Eh
 * total energy  :  -121.4484296 Eh     change       -0.1564101E-04 Eh
 * total energy  :  -121.4484402 Eh     change       -0.1056986E-04 Eh
 * total energy  :  -121.4484517 Eh     change       -0.1158415E-04 Eh
 * total energy  :  -121.4484649 Eh     change       -0.1317910E-04 Eh
 * total energy  :  -121.4484730 Eh     change       -0.8107073E-05 Eh
 * total energy  :  -121.4484799 Eh     change       -0.6866194E-05 Eh
 * total energy  :  -121.4484967 Eh     change       -0.4301604E-05 Eh
 * total energy  :  -121.4484999 Eh     change       -0.3185088E-05 Eh
 * total energy  :  -121.4485019 Eh     change       -0.2017839E-05 Eh
 * total energy  :  -121.4485035 Eh     change       -0.1527122E-05 Eh
 * total energy  :  -121.4485049 Eh     change       -0.1375323E-05 Eh
 * total energy  :  -121.4485058 Eh     change       -0.9828189E-06 Eh
 * total energy  :  -121.4485062 Eh     change       -0.4036669E-06 Eh
 * total energy  :  -121.4485064 Eh     change       -0.1428473E-06 Eh
 * total energy  :  -121.4485064 Eh     change       -0.2813678E-08 Eh
   *** GEOMETRY OPTIMIZATION CONVERGED AFTER 22 ITERATIONS ***

 final structure:
================
70
 xtb: 6.7.1 (edcfbbe)
O           -6.31005658592193       -1.02595885680485        1.77404026302965
N           -5.66360309362055       -1.80784350163022        1.07010387093400
O           -6.15881454029269       -2.81714353808160        0.55940539855785
C           -4.30361402017725       -1.53618179783795        0.83852716582803
C           -3.70030750745969       -0.41949676273349        1.43198175767110
C           -2.37834082103454       -0.15155705909444        1.19984213022985
C           -1.60243457166953       -0.98614523488990        0.36384267915106
C           -0.24092029396401       -0.67285457128904        0.05100259536147
C            0.24186829950637        0.67526796417536        0.05124089942195
C            1.60529619935304        0.98828590134981        0.35574836787401
C            2.38780057493329        0.15120039564917        1.18308582810170
C            3.71157591006382        0.41837965881466        1.40551326317936
C            4.31021327406784        1.53686304915203        0.81070672775016
N            5.67212291245439        1.80753236952085        1.03184775746899
O            6.16349418430034        2.81787752754300        0.51950308129616
O            6.32405563505144        1.02372918605120        1.72855997566096
C            3.54674316949031        2.39192320124280        0.00264428189909
C            2.22261066061570        2.12798205282645       -0.21242434734518
N           -0.63650809699682        1.68950255834623       -0.25391020212660
C           -0.76623405073750        2.89798508903575        0.42601142830286
C           -0.07520339152809        3.36815418748986        1.53348444223198
C           -0.44633901141444        4.59722760856055        2.05161225073626
C           -1.48135401218915        5.33862188250276        1.49077362777291
C           -2.19243878904553        4.85990302915041        0.40233680891404
C           -1.83737331915988        3.63142401152331       -0.12990300398099
C           -2.37158359978379        2.83344283485608       -1.20727251722061
C           -3.39500001164495        3.03639504078333       -2.11762387423073
C           -3.64119351020921        2.05451012522290       -3.06396411172052
C           -2.86384100970944        0.90252059708172       -3.11888851540805
C           -1.83324007242087        0.68425691875969       -2.22111738975940
C           -1.60891690432644        1.64570655970168       -1.24624695768105
N            0.63524187399975       -1.68664424893044       -0.26169872999574
C            0.76816503866289       -2.89693589584034        0.41448841975235
C            0.08237428673324       -3.37011183323948        1.52394081060827
C            0.45566181581095       -4.60076111667096        2.03675841575071
C            1.48788769315529       -5.34074798959831        1.46897505237578
C            2.19407333395326       -4.85893031999730        0.37872134906035
C            1.83669459352286       -3.62889488811591       -0.14835461957336
C            2.36617073939815       -2.82791166104545       -1.22582507181192
C            3.38606806596172       -3.02805411206422       -2.14073041272938
C            3.62831226559279       -2.04346477712789       -3.08526678690100
C            2.85024703639389       -0.89168596582609       -3.13409983850145
C            1.82310884442393       -0.67621248225837       -2.23169597302607
C            1.60311421451607       -1.64024265801686       -1.25838666322004
C           -2.22435293762578       -2.12373192170660       -0.20348145968103
C           -3.54673069470551       -2.38842378285727        0.02133281562658
H           -4.29497065582174        0.20804262027914        2.07786145921430
H           -1.91596625862003        0.68677057112496        1.69681789834167
H            1.92935892418808       -0.68867270525377        1.68109341331427
H            4.31138073851666       -0.21126872940519        2.04454871498225
H            4.02908444824026        3.24755827200230       -0.44435375898973
H            1.64820601122044        2.77937628675713       -0.85320828357059
H            0.72533509890815        2.80285217535062        1.98319766924222
H            0.08052929935163        4.98550533024111        2.90989417140220
H           -1.73867250918223        6.29597536044977        1.91777771551701
H           -3.01034079788914        5.42432433883583       -0.01719649015957
H           -3.98334724701311        3.94014184654676       -2.09138770434644
H           -4.43892987647924        2.18923620160382       -3.77857459871470
H           -3.06287313009093        0.16394708102085       -3.88020044326305
H           -1.22943000955849       -0.20568435249247       -2.29287516874547
H           -0.71583905919694       -2.80595391932899        1.97917574919353
H           -0.06725197771785       -4.99136979171120        2.89640081904068
H            1.74697836095689       -6.29938316554852        1.89200078317137
H            3.01005429650363       -5.42215723010871       -0.04613034352077
H            3.97485572181276       -3.93163877770100       -2.11917411490100
H            4.42354673775407       -2.17579227823629       -3.80311111182469
H            3.04610181480176       -0.15091143899519       -3.89409760283542
H            1.21866371695110        0.21366075161433       -2.29879622485064
H           -1.65508184759562       -2.77285467793143       -0.85111480378737
H           -4.03268980586581       -3.24248574439757       -0.42475259964322

          :  Hamiltonian                  GFN2-xTB          :
         :: gradient norm              0.000035920712 Eh/a0 ::
         :: HOMO-LUMO gap              0.642783903081 eV    ::
         :: SCC energy              -123.407696462984 Eh    ::
         :: -> dispersion             -0.109980386583 Eh    ::
         :: -> Gsolv                  -0.058803877956 Eh    ::
         :: repulsion energy           1.959190079503 Eh    ::

    * Orbital Energies and Occupations

         #    Occupation            Energy/Eh            Energy/eV
      -------------------------------------------------------------
         1        2.0000           -0.7404325             -20.1482
       ...           ...                  ...                  ...
        99        2.0000           -0.4322259             -11.7615
       100        2.0000           -0.4259330             -11.5902
       101        2.0000           -0.4256512             -11.5826
       102        2.0000           -0.4244433             -11.5497
       103        2.0000           -0.4243200             -11.5463
       104        2.0000           -0.4202969             -11.4369
       105        2.0000           -0.4202333             -11.4351
       106        2.0000           -0.4068562             -11.0711
       107        2.0000           -0.4012611             -10.9189
       108        2.0000           -0.4010285             -10.9125
       109        2.0000           -0.4010251             -10.9124
       110        1.0000           -0.3708104             -10.0903
       111        1.0000           -0.3291832              -8.9575 (HOMO)
       112        0.0000           -0.3055615              -8.3148 (LUMO)
       113                         -0.2825007              -7.6872
       114                         -0.2652874              -7.2188
       115                         -0.2652062              -7.2166
       116                         -0.2474222              -6.7327
       117                         -0.2464730              -6.7069
       118                         -0.2435080              -6.6262
       119                         -0.2424101              -6.5963
       120                         -0.2250308              -6.1234
       121                         -0.2248807              -6.1193
       122                         -0.2137647              -5.8168
       ...                                ...                  ...
       208                          0.7220549              19.6481
      -------------------------------------------------------------
                  HL-Gap            0.0236217 Eh            0.6428 eV

     #   Z          covCN         q      C6AA      α(0)
     1   8 O        0.929    -0.456    22.790     6.402
     2   7 N        2.762     0.493    14.108     5.579
     3   8 O        0.929    -0.455    22.778     6.401
     4   6 C        2.914     0.009    27.828     8.650
     5   6 C        2.914    -0.023    28.581     8.767
     6   6 C        2.920    -0.032    28.805     8.801
     7   6 C        2.972     0.008    27.826     8.653
     8   6 C        2.902     0.031    27.314     8.569
     9   6 C        2.902     0.031    27.314     8.569
    10   6 C        2.972     0.008    27.826     8.653
    11   6 C        2.920    -0.032    28.805     8.801
    12   6 C        2.914    -0.023    28.581     8.767
    13   6 C        2.914     0.009    27.828     8.650
    14   7 N        2.762     0.493    14.108     5.579
    15   8 O        0.929    -0.455    22.778     6.401
    16   8 O        0.929    -0.456    22.790     6.402
    17   6 C        2.914    -0.023    28.584     8.767
    18   6 C        2.921    -0.029    28.716     8.788
    19   7 N        2.798     0.018    20.944     6.797
    20   6 C        3.060     0.042    27.009     8.523
    21   6 C        2.910    -0.038    28.952     8.823
    22   6 C        2.923    -0.027    28.674     8.781
    23   6 C        2.920    -0.027    28.687     8.783
    24   6 C        2.912    -0.026    28.646     8.776
    25   6 C        3.062    -0.005    28.079     8.690
    26   6 C        3.061    -0.004    28.070     8.688
    27   6 C        2.912    -0.026    28.646     8.776
    28   6 C        2.920    -0.028    28.689     8.784
    29   6 C        2.923    -0.028    28.693     8.784
    30   6 C        2.910    -0.040    28.996     8.830
    31   6 C        3.062     0.039    27.066     8.531
    32   7 N        2.797     0.018    20.944     6.797
    33   6 C        3.060     0.042    27.009     8.523
    34   6 C        2.910    -0.038    28.953     8.823
    35   6 C        2.923    -0.027    28.674     8.781
    36   6 C        2.920    -0.027    28.687     8.783
    37   6 C        2.912    -0.026    28.646     8.776
    38   6 C        3.062    -0.005    28.079     8.689
    39   6 C        3.061    -0.004    28.070     8.688
    40   6 C        2.912    -0.026    28.646     8.776
    41   6 C        2.920    -0.028    28.689     8.783
    42   6 C        2.923    -0.028    28.693     8.784
    43   6 C        2.910    -0.040    28.996     8.830
    44   6 C        3.062     0.039    27.066     8.531
    45   6 C        2.921    -0.029    28.715     8.788
    46   6 C        2.914    -0.023    28.584     8.767
    47   1 H        0.926     0.067     2.121     2.277
    48   1 H        0.926     0.050     2.317     2.380
    49   1 H        0.926     0.050     2.317     2.381
    50   1 H        0.926     0.067     2.121     2.277
    51   1 H        0.926     0.069     2.099     2.266
    52   1 H        0.926     0.054     2.275     2.359
    53   1 H        0.926     0.046     2.364     2.404
    54   1 H        0.926     0.048     2.349     2.397
    55   1 H        0.926     0.048     2.342     2.393
    56   1 H        0.926     0.051     2.306     2.375
    57   1 H        0.926     0.051     2.306     2.375
    58   1 H        0.926     0.048     2.349     2.397
    59   1 H        0.926     0.049     2.332     2.388
    60   1 H        0.926     0.047     2.354     2.399
    61   1 H        0.926     0.047     2.364     2.404
    62   1 H        0.926     0.048     2.349     2.397
    63   1 H        0.926     0.048     2.342     2.393
    64   1 H        0.926     0.051     2.306     2.375
    65   1 H        0.926     0.051     2.306     2.375
    66   1 H        0.926     0.048     2.349     2.397
    67   1 H        0.926     0.049     2.332     2.388
    68   1 H        0.926     0.047     2.354     2.399
    69   1 H        0.926     0.054     2.275     2.359
    70   1 H        0.926     0.069     2.099     2.266

molecular dipole:
                 x           y           z       tot (Debye)
 q only:       -0.008       0.003      -2.184
   full:       -0.008       0.003      -2.105       5.351

 projected vibrational frequencies (cm⁻¹)
eigval :       -0.00    -0.00     0.00     0.00     0.00     0.00
eigval :       13.58    19.03    24.82    26.77    33.70    34.59
eigval :       36.40    53.29    55.54    81.54    90.25    99.56
eigval :      101.29   107.34   112.95   131.70   133.95   147.07
eigval :      149.55   160.01   162.30   173.69   175.59   181.08
eigval :      227.20   248.61   259.36   262.86   272.76   277.61
eigval :      293.09   321.99   345.46   350.35   386.30   386.51
eigval :      391.50   391.61   412.54   418.96   422.47   424.10
eigval :      432.89   436.27   441.37   460.72   500.74   512.91
eigval :      514.24   524.07   534.14   534.94   540.49   542.52
eigval :      545.60   557.68   581.92   585.46   589.88   596.44
eigval :      601.55   610.53   634.22   636.06   638.04   655.15
eigval :      662.21   674.20   675.45   688.97   702.04   703.12
eigval :      710.02   710.52   750.20   753.10   768.30   770.23
eigval :      774.84   778.32   779.80   796.31   813.38   823.43
eigval :      823.58   851.58   852.29   868.18   872.00   872.87
eigval :      874.73   877.77   881.99   901.45   906.66   908.53
eigval :      908.82   911.28   912.46   916.50   916.60   921.68
eigval :      922.06   923.31   925.39   926.11   926.94   987.24
eigval :      994.64  1009.82  1013.22  1063.10  1068.02  1070.43
eigval :     1070.52  1074.81  1081.37  1128.19  1131.19  1132.06
eigval :     1132.77  1138.77  1140.92  1143.75  1162.60  1172.08
eigval :     1174.00  1174.63  1177.73  1182.14  1203.21  1209.39
eigval :     1217.40  1221.08  1226.09  1233.38  1245.57  1262.45
eigval :     1263.28  1268.15  1268.64  1278.85  1283.48  1287.70
eigval :     1294.53  1332.26  1333.31  1340.24  1341.11  1343.30
eigval :     1361.40  1362.77  1374.40  1381.40  1411.20  1411.69
eigval :     1412.64  1421.00  1432.78  1435.97  1437.54  1447.57
eigval :     1455.55  1455.58  1475.91  1476.02  1508.06  1508.21
eigval :     1539.85  1539.86  1567.56  1570.55  1570.72  1576.56
eigval :     1577.22  1577.91  1577.97  1579.60  1597.24  1599.40
eigval :     3087.62  3087.65  3087.94  3088.36  3091.79  3091.88
eigval :     3094.68  3094.85  3095.48  3095.62  3097.65  3097.91
eigval :     3102.20  3102.30  3103.77  3103.80  3105.01  3105.11
eigval :     3107.87  3108.02  3108.57  3108.75  3110.22  3111.06

   temp. (K)  partition function   enthalpy   heat capacity  entropy
                                   cal/mol     cal/K/mol   cal/K/mol   J/K/mol
 298.15  VIB  0.845E+16            21006.502    132.502    129.769
         ROT  0.258E+08              888.752      2.981     36.893
         INT  0.218E+24            21895.255    135.483    166.662
         TR   0.142E+29             1481.254      4.968     45.042
         TOT                       23376.5087   140.4512   211.7034   885.7671

       T/K    H(0)-H(T)+PV         H(T)/Eh          T*S/Eh         G(T)/Eh
   ------------------------------------------------------------------------
    298.15    0.372528E-01    0.550874E+00    0.100587E+00    0.450287E+00
   ------------------------------------------------------------------------

         :::::::::::::::::::::::::::::::::::::::::::::::::::::
         ::                  THERMODYNAMIC                  ::
         :::::::::::::::::::::::::::::::::::::::::::::::::::::
         :: total free energy        -120.998219551904 Eh   ::
         ::.................................................::
         :: total energy             -121.448506383129 Eh   ::
         :: zero point energy           0.513621117521 Eh   ::
         :: G(RRHO) w/o ZPVE           -0.063334286295 Eh   ::
         :: G(RRHO) contrib.            0.450286831225 Eh   ::
         :::::::::::::::::::::::::::::::::::::::::::::::::::::

           -------------------------------------------------
          | TOTAL ENERGY             -121.448506383129 Eh   |
          | TOTAL ENTHALPY           -120.897632427775 Eh   |
          | TOTAL FREE ENERGY        -120.998219551904 Eh   |
          | GRADIENT NORM               0.000036118969 Eh/α |
          | HOMO-LUMO GAP               0.642779826038 eV   |
           -------------------------------------------------

 * finished run on 2025/09/04 at 20:29:16.275
