   * xtb version 6.7.1 (edcfbbe) compiled by 'albert@albert-system' on 2024-07-22

   ID    Z sym.   atoms
    1    8 O      1, 3, 15, 16
    2    7 N      2, 14, 19, 32
    3    6 C      4-13, 17, 18, 20-31, 33-46
    4    1 H      47-70

          program call               : xtb data2507/toluene/DCBNPE/DCBNPE_toluene_S0_crest.xyz --gfn 2 --gbsa toluene --ohess vtight --parallel 40 --molden --ceasefiles --namespace data2507/toluene/DCBNPE/DCBNPE_toluene_S0_finalOpt
      * Solvation model:               GBSA
        Solvent                        toluene
        Solvent mass                       9.2140E+01 g/mol
          :  Hamiltonian                  GFN2-xTB          :
 * total energy  :  -121.4917182 Eh     change       -0.5792117E-08 Eh
 * total energy  :  -121.4918270 Eh     change       -0.1088779E-03 Eh
 * total energy  :  -121.4918649 Eh     change       -0.3791811E-04 Eh
 * total energy  :  -121.4918867 Eh     change       -0.2178975E-04 Eh
 * total energy  :  -121.4919030 Eh     change       -0.1625801E-04 Eh
 * total energy  :  -121.4919218 Eh     change       -0.1879484E-04 Eh
 * total energy  :  -121.4919398 Eh     change       -0.1800815E-04 Eh
 * total energy  :  -121.4919538 Eh     change       -0.1395659E-04 Eh
 * total energy  :  -121.4919556 Eh     change       -0.1878344E-05 Eh
 * total energy  :  -121.4919638 Eh     change       -0.8195908E-05 Eh
 * total energy  :  -121.4919769 Eh     change       -0.3125454E-05 Eh
 * total energy  :  -121.4919804 Eh     change       -0.3509929E-05 Eh
 * total energy  :  -121.4919833 Eh     change       -0.2814941E-05 Eh
 * total energy  :  -121.4919845 Eh     change       -0.1198993E-05 Eh
 * total energy  :  -121.4919849 Eh     change       -0.4791324E-06 Eh
 * total energy  :  -121.4919853 Eh     change       -0.3491341E-06 Eh
 * total energy  :  -121.4919856 Eh     change       -0.2848883E-06 Eh
 * total energy  :  -121.4919858 Eh     change       -0.2315752E-06 Eh
 * total energy  :  -121.4919858 Eh     change       -0.6458507E-08 Eh
   *** GEOMETRY OPTIMIZATION CONVERGED AFTER 22 ITERATIONS ***

 final structure:
================
70
 xtb: 6.7.1 (edcfbbe)
O           -6.52090729657907       -0.94946753752516        1.12936109032540
N           -5.84680309696091       -1.64707692948765        0.39273512014196
O           -6.29918818644463       -2.54950100872373       -0.28903673469724
C           -4.43923315448607       -1.39150289458852        0.32442870314505
C           -3.88898986500905       -0.36423697280451        1.08721073800690
C           -2.53746229993622       -0.11209127451073        1.01031274332104
C           -1.71859620955668       -0.87680465161879        0.17216007754410
C           -0.27575350361634       -0.62320374370492        0.07594754152956
C            0.27011798804370        0.62651847605034        0.08245708809396
C            1.71375924178569        0.87564297927269        0.18304008251086
C            2.52787007344857        0.10552187512551        1.02076799252386
C            3.88046843861679        0.35119348581914        1.09981278641668
C            4.43627214203544        1.37750289891125        0.33980846140913
N            5.84522571347063        1.62548096334105        0.40924735207333
O            6.30220573088745        2.52870383162489       -0.26830020461600
O            6.51569657153731        0.92080401200550        1.14240101031028
C            3.63847871951406        2.16909568858138       -0.48159875971581
C            2.28569861441092        1.92044332538405       -0.55118556038308
N           -0.53327371784584        1.75772943891076       -0.07909666352090
C           -0.51786075476210        2.87229260705752        0.74487751134951
C            0.25716972021145        3.12755382476416        1.86602416937292
C            0.05135385951500        4.32196018056750        2.53180207790704
C           -0.90678173158544        5.23736794417522        2.10258219763148
C           -1.69298606714713        4.97869820829147        0.99631116874700
C           -1.50231660042504        3.78663508001993        0.30993771935394
C           -2.12904169078341        3.19756977639392       -0.84325286365613
C           -3.13015348427409        3.62467938588400       -1.70584281124321
C           -3.48378208122031        2.81020825063160       -2.76373467359439
C           -2.83876567431972        1.59446622467211       -2.97812529630306
C           -1.84125643306812        1.14872906195359       -2.13145089658694
C           -1.50456367506588        1.94777532168947       -1.04965057543433
N            0.53086700652202       -1.75131952557256       -0.09403770899260
C            0.52187746457536       -2.87016505175538        0.72398996351244
C           -0.25114316755914       -3.13524614856819        1.84424551929842
C           -0.03851365692803       -4.33191343696371        2.50377631261298
C            0.92412768319984       -5.24005062254242        2.06916424925231
C            1.70823491905563       -4.97157358138240        0.96374802186446
C            1.51100069466130       -3.77692774273301        0.28373192182849
C            2.13444306690988       -3.17806991830367       -0.86617346882604
C            3.13859943397169       -3.59420331755678       -1.73060669238490
C            3.48844004468842       -2.77121581606103       -2.78314158321273
C            2.83660516750469       -1.55792193731248       -2.99075751341576
C            1.83584888378325       -1.12309041652623       -2.14227725702484
C            1.50311849873970       -1.93056921306102       -1.06550181632202
C           -2.28520374530654       -1.92218236901488       -0.56562301138517
C           -3.63686485930370       -2.17715890940256       -0.49828143271616
H           -4.53108505908652        0.21809556538816        1.72997763116259
H           -2.10882737856822        0.66794852453410        1.61952030254584
H            2.09475254093841       -0.67405981776975        1.62744986406044
H            4.51913213849533       -0.23567127024540        1.74187197209820
H            4.09327321048655        2.96275299902625       -1.05418804936736
H            1.66419117527350        2.52706337830776       -1.19233303936892
H            0.99643403581732        2.42189513588263        2.21251127740090
H            0.64464434526687        4.54752104746495        3.40555897150429
H           -1.03785903534335        6.15937724643994        2.64923304015847
H           -2.44275891814250        5.68398148918683        0.67156218141044
H           -3.61535871649223        4.57659735899525       -1.55260791370118
H           -4.26294513796412        3.12172239422376       -3.44347267966782
H           -3.12148490623997        0.98745399276801       -3.82540007840044
H           -1.34113244158544        0.21135559863345       -2.31843531153669
H           -0.99390504742021       -2.43521050821939        2.19470669366291
H           -0.62981327350746       -4.56501068313633        3.37690063355455
H            1.06049405783107       -6.16413352735905        2.61100655885909
H            2.46144375320606       -5.67125739470295        0.63486446400102
H            3.62922832190750       -4.54418604248604       -1.58272703572526
H            4.27006973653438       -3.07398558959774       -3.46400233577466
H            3.11665001370838       -0.94418836882000       -3.83407057428330
H            1.33038837636843       -0.18751339744993       -2.32394205485536
H           -1.66027435719173       -2.52446766142876       -1.20752690285133
H           -4.08731860709870       -2.97154510634426       -1.07329224983560

          :  Hamiltonian                  GFN2-xTB          :
         :: gradient norm              0.000060006791 Eh/a0 ::
         :: HOMO-LUMO gap              0.954827232649 eV    ::
         :: SCC energy              -123.467179408884 Eh    ::
         :: -> dispersion             -0.109765147568 Eh    ::
         :: -> Gsolv                  -0.049398070969 Eh    ::
         :: repulsion energy           1.975193606510 Eh    ::

    * Orbital Energies and Occupations

         #    Occupation            Energy/Eh            Energy/eV
      -------------------------------------------------------------
         1        2.0000           -0.7716427             -20.9975
       ...           ...                  ...                  ...
        98        2.0000           -0.4317106             -11.7474
        99        2.0000           -0.4313206             -11.7368
       100        2.0000           -0.4287000             -11.6655
       101        2.0000           -0.4273685             -11.6293
       102        2.0000           -0.4268301             -11.6146
       103        2.0000           -0.4262573             -11.5991
       104        2.0000           -0.4143024             -11.2737
       105        2.0000           -0.4136861             -11.2570
       106        2.0000           -0.4117531             -11.2044
       107        2.0000           -0.3879980             -10.5580
       108        2.0000           -0.3879360             -10.5563
       109        2.0000           -0.3850870             -10.4788
       110        2.0000           -0.3671273              -9.9900 (HOMO)
       111                         -0.3320380              -9.0352 (LUMO)
       112                         -0.3211684              -8.7394
       113                         -0.2797951              -7.6136
       114                         -0.2580274              -7.0213
       115                         -0.2578706              -7.0170
       116                         -0.2539019              -6.9090
       117                         -0.2532116              -6.8902
       118                         -0.2357726              -6.4157
       119                         -0.2308992              -6.2831
       120                         -0.2306655              -6.2767
       121                         -0.2187453              -5.9524
       ...                                ...                  ...
       208                          0.7357635              20.0211
      -------------------------------------------------------------
                  HL-Gap            0.0350893 Eh            0.9548 eV

     #   Z          covCN         q      C6AA      α(0)
     1   8 O        0.929    -0.408    21.801     6.262
     2   7 N        2.760     0.544    13.545     5.466
     3   8 O        0.929    -0.408    21.801     6.262
     4   6 C        2.916     0.007    27.863     8.656
     5   6 C        2.916    -0.016    28.413     8.741
     6   6 C        2.923    -0.024    28.591     8.769
     7   6 C        2.976     0.026    27.418     8.589
     8   6 C        2.899     0.038    27.157     8.544
     9   6 C        2.899     0.038    27.153     8.544
    10   6 C        2.976     0.026    27.419     8.589
    11   6 C        2.923    -0.023    28.590     8.769
    12   6 C        2.916    -0.016    28.413     8.741
    13   6 C        2.916     0.007    27.863     8.656
    14   7 N        2.760     0.544    13.544     5.466
    15   8 O        0.929    -0.408    21.798     6.261
    16   8 O        0.929    -0.408    21.799     6.262
    17   6 C        2.916    -0.015    28.396     8.738
    18   6 C        2.925    -0.020    28.508     8.756
    19   7 N        2.802    -0.032    21.851     6.943
    20   6 C        3.069     0.042    26.981     8.517
    21   6 C        2.910    -0.050    29.249     8.868
    22   6 C        2.924    -0.032    28.795     8.800
    23   6 C        2.920    -0.038    28.952     8.824
    24   6 C        2.913    -0.032    28.791     8.799
    25   6 C        3.065    -0.014    28.298     8.723
    26   6 C        3.066    -0.014    28.298     8.723
    27   6 C        2.913    -0.032    28.801     8.800
    28   6 C        2.920    -0.039    28.971     8.826
    29   6 C        2.924    -0.033    28.820     8.804
    30   6 C        2.910    -0.052    29.289     8.874
    31   6 C        3.067     0.040    27.028     8.525
    32   7 N        2.803    -0.032    21.857     6.944
    33   6 C        3.069     0.042    26.980     8.517
    34   6 C        2.910    -0.050    29.250     8.868
    35   6 C        2.924    -0.032    28.796     8.800
    36   6 C        2.920    -0.038    28.953     8.824
    37   6 C        2.913    -0.032    28.792     8.799
    38   6 C        3.065    -0.014    28.299     8.723
    39   6 C        3.066    -0.014    28.300     8.723
    40   6 C        2.913    -0.032    28.802     8.800
    41   6 C        2.920    -0.039    28.972     8.827
    42   6 C        2.924    -0.033    28.821     8.804
    43   6 C        2.910    -0.052    29.291     8.875
    44   6 C        3.067     0.040    27.028     8.525
    45   6 C        2.925    -0.020    28.510     8.756
    46   6 C        2.916    -0.015    28.397     8.738
    47   1 H        0.926     0.081     1.972     2.196
    48   1 H        0.926     0.063     2.162     2.300
    49   1 H        0.926     0.063     2.162     2.299
    50   1 H        0.926     0.081     1.971     2.196
    51   1 H        0.926     0.081     1.967     2.193
    52   1 H        0.926     0.064     2.156     2.296
    53   1 H        0.926     0.031     2.570     2.507
    54   1 H        0.926     0.035     2.513     2.479
    55   1 H        0.926     0.034     2.534     2.489
    56   1 H        0.926     0.037     2.491     2.468
    57   1 H        0.926     0.037     2.486     2.466
    58   1 H        0.926     0.033     2.544     2.494
    59   1 H        0.926     0.035     2.515     2.480
    60   1 H        0.926     0.031     2.575     2.509
    61   1 H        0.926     0.031     2.571     2.507
    62   1 H        0.926     0.035     2.514     2.479
    63   1 H        0.926     0.034     2.535     2.490
    64   1 H        0.926     0.037     2.492     2.469
    65   1 H        0.926     0.037     2.488     2.466
    66   1 H        0.926     0.033     2.546     2.495
    67   1 H        0.926     0.035     2.515     2.480
    68   1 H        0.926     0.031     2.575     2.510
    69   1 H        0.926     0.064     2.157     2.296
    70   1 H        0.926     0.081     1.968     2.194

molecular dipole:
                 x           y           z       tot (Debye)
 q only:        0.000       0.023      -0.204
   full:        0.001       0.022      -0.231       0.590

 projected vibrational frequencies (cm⁻¹)
eigval :       -0.00    -0.00    -0.00     0.00     0.00     0.00
eigval :       13.95    14.69    22.52    23.68    26.66    30.20
eigval :       32.26    36.84    38.96    71.65    76.47    79.33
eigval :       98.60   104.34   104.63   109.01   130.21   144.47
eigval :      145.83   157.41   158.77   171.48   175.12   177.53
eigval :      223.98   256.63   260.50   263.45   271.23   272.23
eigval :      297.60   316.76   330.24   353.85   375.19   376.31
eigval :      394.15   394.98   407.21   419.80   423.73   432.96
eigval :      436.61   444.48   450.95   472.42   508.00   516.44
eigval :      518.69   526.13   536.98   537.23   540.02   540.45
eigval :      541.34   546.02   583.94   587.67   590.87   598.74
eigval :      610.98   614.13   641.48   647.89   656.87   668.43
eigval :      672.54   673.17   677.51   701.66   707.33   709.29
eigval :      731.37   735.15   751.24   754.27   766.17   766.96
eigval :      778.05   778.93   780.69   803.03   827.55   839.70
eigval :      840.42   866.50   867.21   868.42   869.02   869.51
eigval :      872.95   877.84   890.39   901.62   902.00   903.39
eigval :      904.45   906.88   908.59   920.73   922.24   923.24
eigval :      923.33   926.38   926.70   932.51   933.05   998.55
eigval :     1007.46  1011.02  1013.43  1069.12  1069.81  1070.82
eigval :     1071.42  1075.71  1077.42  1132.01  1132.65  1135.41
eigval :     1135.51  1146.48  1149.71  1151.36  1164.51  1178.56
eigval :     1178.91  1179.41  1181.18  1195.48  1199.61  1214.49
eigval :     1230.60  1232.77  1232.86  1253.20  1259.06  1263.46
eigval :     1263.76  1292.60  1294.50  1295.32  1297.41  1298.02
eigval :     1305.46  1338.11  1340.91  1353.19  1353.45  1356.30
eigval :     1356.91  1358.08  1363.32  1407.23  1407.41  1415.73
eigval :     1424.71  1424.86  1426.68  1449.31  1454.90  1471.30
eigval :     1471.80  1484.74  1484.78  1541.49  1563.62  1565.04
eigval :     1574.37  1574.40  1575.05  1586.77  1588.18  1592.58
eigval :     1596.92  1597.42  1609.05  1609.16  1609.30  1610.53
eigval :     3077.43  3077.57  3077.96  3078.06  3083.80  3083.90
eigval :     3084.32  3084.69  3091.63  3091.92  3092.56  3093.33
eigval :     3094.36  3094.38  3097.36  3097.86  3099.54  3099.92
eigval :     3101.29  3101.53  3106.99  3107.03  3110.55  3110.81

   temp. (K)  partition function   enthalpy   heat capacity  entropy
                                   cal/mol     cal/K/mol   cal/K/mol   J/K/mol
 298.15  VIB  0.801E+17            21125.289    130.572    131.666
         ROT  0.260E+08              888.752      2.981     36.914
         INT  0.209E+25            22014.042    133.553    168.580
         TR   0.142E+29             1481.254      4.968     45.042
         TOT                       23495.2958   138.5215   213.6220   893.7943

       T/K    H(0)-H(T)+PV         H(T)/Eh          T*S/Eh         G(T)/Eh
   ------------------------------------------------------------------------
    298.15    0.374421E-01    0.552945E+00    0.101499E+00    0.451446E+00
   ------------------------------------------------------------------------

         :::::::::::::::::::::::::::::::::::::::::::::::::::::
         ::                  THERMODYNAMIC                  ::
         :::::::::::::::::::::::::::::::::::::::::::::::::::::
         :: total free energy        -121.040539499264 Eh   ::
         ::.................................................::
         :: total energy             -121.491985798035 Eh   ::
         :: zero point energy           0.515502848872 Eh   ::
         :: G(RRHO) w/o ZPVE           -0.064056550100 Eh   ::
         :: G(RRHO) contrib.            0.451446298772 Eh   ::
         :::::::::::::::::::::::::::::::::::::::::::::::::::::

           -------------------------------------------------
          | TOTAL ENERGY             -121.491985798035 Eh   |
          | TOTAL ENTHALPY           -120.939040812071 Eh   |
          | TOTAL FREE ENERGY        -121.040539499264 Eh   |
          | GRADIENT NORM               0.000060102042 Eh/α |
          | HOMO-LUMO GAP               0.954829486572 eV   |
           -------------------------------------------------

 * finished run on 2025/09/04 at 20:25:14.982
