   * xtb version 6.7.1 (edcfbbe) compiled by 'albert@albert-system' on 2024-07-22

   ID    Z sym.   atoms
    1    7 N      1, 9, 37, 44
    2    6 C      2-8, 10-36, 38-43, 45-70
    3    1 H      71-116

          program call               : xtb data2507/gas/2BTPA-INN/2BTPA-INN_gas_T1_crest.xyz --gfn 2 --spinpol --tblite --uhf 2 --ohess vtight --parallel 40 --molden --ceasefiles --namespace data2507/gas/2BTPA-INN/2BTPA-INN_gas_T1_finalOpt
 * total energy  :  -176.3637475 Eh     change        0.1142546E-06 Eh
 * total energy  :  -176.3638280 Eh     change       -0.8044199E-04 Eh
 * total energy  :  -176.3638566 Eh     change       -0.2859132E-04 Eh
 * total energy  :  -176.3638698 Eh     change       -0.1322106E-04 Eh
 * total energy  :  -176.3638748 Eh     change       -0.5026092E-05 Eh
 * total energy  :  -176.3638786 Eh     change       -0.3782038E-05 Eh
 * total energy  :  -176.3638813 Eh     change       -0.2669627E-05 Eh
 * total energy  :  -176.3638827 Eh     change       -0.1439454E-05 Eh
 * total energy  :  -176.3638849 Eh     change       -0.2207200E-05 Eh
 * total energy  :  -176.3638861 Eh     change       -0.1192073E-05 Eh
 * total energy  :  -176.3638898 Eh     change       -0.3522226E-06 Eh
 * total energy  :  -176.3638902 Eh     change       -0.4321441E-06 Eh
 * total energy  :  -176.3638908 Eh     change       -0.5704523E-06 Eh
 * total energy  :  -176.3638913 Eh     change       -0.5141573E-06 Eh
 * total energy  :  -176.3638917 Eh     change       -0.3676414E-06 Eh
 * total energy  :  -176.3638923 Eh     change       -0.6590763E-06 Eh
 * total energy  :  -176.3638920 Eh     change        0.3376761E-06 Eh
 * total energy  :  -176.3638920 Eh     change        0.7394391E-08 Eh
 * total energy  :  -176.3638921 Eh     change       -0.7155316E-07 Eh
   *** GEOMETRY OPTIMIZATION CONVERGED AFTER 23 ITERATIONS ***

 final structure:
================
116
 xtb: 6.7.1 (edcfbbe)
N            0.02019600860321        0.18358564804113       -0.95190779134583
C            0.00957055654039       -0.94851867393417       -0.69416442059639
C            0.00153142147701       -2.28545672682222       -0.35383156536475
C           -1.23795851014066       -3.02226878700549       -0.28087207364434
C           -2.51545884842816       -2.35211898438571       -0.17856229338305
C           -2.64707805505638       -1.15657548003640        0.54611924326181
C           -3.84676370253495       -0.49356911714817        0.61281607553403
C           -4.97713166703364       -1.00140065970807       -0.03899233000646
N           -6.18932517652964       -0.31183909303705        0.00339421280639
C           -7.39093265299836       -1.01639158018457        0.06878986649567
C           -7.47855277353925       -2.20325325097332        0.80053319122773
C           -8.66436390970491       -2.90186420974709        0.85700233368448
C           -9.80500107482112       -2.44147877953317        0.19777124767183
C          -11.06764007383762       -3.18569403813620        0.26595116942556
C          -11.07678098045206       -4.57858961169902        0.21056543979386
C          -12.26698604560943       -5.27819690658629        0.27202153068019
C          -13.46859901390605       -4.60056936288612        0.39559514124675
C          -13.47196918922678       -3.21679527169139        0.45453149631758
C          -12.28351805819431       -2.51473458662730        0.38759027268377
C           -9.71140988142738       -1.25330714272513       -0.52821849597005
C           -8.52728989868945       -0.55307901955715       -0.59892199822951
C           -6.19462455817592        1.08391364331426       -0.03048678484744
C           -7.13938093422265        1.80945821829680        0.69875684022637
C           -7.14217518099130        3.18670476598450        0.65928948556266
C           -6.20062320303388        3.88802895467690       -0.09474050835691
C           -6.20355027078958        5.35498490219978       -0.12900760072880
C           -7.40284778091169        6.06359451504816       -0.18072027140612
C           -7.40371152133027        7.44513171125910       -0.21667340694212
C           -6.20794073286627        8.14365360123708       -0.19559946839197
C           -5.01009636237631        7.45039793897834       -0.14134568843672
C           -5.00624348429311        6.06874191657875       -0.11130136284288
C           -5.25509478527194        3.15625805117278       -0.81471507945704
C           -5.25112134043050        1.77911455598249       -0.79065157859796
C           -4.86501775314297       -2.20899142452852       -0.73928436524635
C           -3.66256031068220       -2.86847138851296       -0.80289626789160
C           -1.15132458572372       -4.40045667704565       -0.28079352005480
N           -0.00113070430333       -5.06207926260907       -0.26783559581456
C            1.15244848704076       -4.40122840195653       -0.27637920204326
C            1.23678805572837       -3.02454129666783       -0.27305887768645
C            2.51525855822217       -2.35230415559838       -0.16571201721698
C            3.65529318522407       -2.84727032754778       -0.81644239301341
C            4.85700481963454       -2.18573097245523       -0.74634627684108
C            4.97368442387460       -1.00105306287061       -0.00952818981694
N            6.18486389304106       -0.31086058025944        0.04318547255465
C            7.39011581727524       -1.01302754948510        0.05723602941391
C            8.51053464956133       -0.51819049801712       -0.61440117140071
C            9.69831450333162       -1.21570547095977       -0.59688248017842
C            9.81107074884305       -2.43163911406243        0.07843920411950
C           11.07686492120725       -3.17379519332607        0.08773434364694
C           12.29360716487888       -2.50434172143026        0.20842144964248
C           13.48499985905059       -3.20457606831982        0.21837903190345
C           13.48352353992302       -4.58474192590169        0.10258137192390
C           12.28095272949573       -5.26075047733212       -0.02034477015022
C           11.08796448620289       -4.56316164132665       -0.02503201086118
C            8.68668761714843       -2.92222342439652        0.74356983937284
C            7.49747241762075       -2.22686898142969        0.74006113242623
C            6.18881021562044        1.08550158071273        0.07232412476235
C            7.14095069272958        1.77680998601459        0.82453823675081
C            7.14217934254210        3.15442819959355        0.85055339431680
C            6.19216429696505        3.88939569569872        0.14060469434761
C            6.19187442230181        5.35635056171769        0.17903033577516
C            7.38915659641107        6.06978257008788        0.15457143344341
C            7.38678027172520        7.45135848272334        0.18944993447418
C            6.18972506441282        8.14487393114109        0.25500331282590
C            4.99383953287956        7.44670094284700        0.28221244921510
C            4.99323845000065        6.06529148829586        0.24178534518579
C            5.24085239821901        3.19133334798343       -0.60466470735049
C            5.23804191965554        1.81443795207879       -0.64564930439861
C            3.84923981826317       -0.51653208565273        0.66905375953606
C            2.64945164986184       -1.17924521321751        0.59187669035092
H           -1.79320747417035       -0.75704873133729        1.07072906582603
H           -3.92891924661150        0.42208620886264        1.17977691958764
H           -6.61054053746843       -2.56069550057479        1.33471134902775
H           -8.71903379818680       -3.80425927709352        1.44759754519682
H          -10.14502802223268       -5.11304637461474        0.09540003937953
H          -12.25840437629056       -6.35733162166104        0.22101674717641
H          -14.39797553619123       -5.14822968014439        0.44570192858712
H          -14.40579900852600       -2.68287163992457        0.55544090797377
H          -12.29247737949147       -1.43636547073658        0.45287083153963
H          -10.57259871845123       -0.89210336671472       -1.07052534382888
H           -8.46572615537142        0.35214113447907       -1.18502801785486
H           -7.85983521406884        1.28234350129994        1.30720797240464
H           -7.86556464912339        3.73121602772671        1.24799222996858
H           -8.33879414393799        5.52498973101654       -0.21630876703759
H           -8.34112231042741        7.98033694735331       -0.26385117783086
H           -6.20976536283809        9.22329757801399       -0.22162610055921
H           -4.07440733413924        7.99000021749027       -0.12050909732725
H           -4.06911824123868        5.53505399949558       -0.05100860659082
H           -4.53151520797975        3.67493894496859       -1.42527156664847
H           -4.52325622481767        1.22900010803857       -1.36814981853952
H           -5.72812657625163       -2.60234764862008       -1.25684811885238
H           -3.58750019382259       -3.77721855417408       -1.38110612510751
H           -2.03933805997558       -5.01279713936763       -0.20984774159108
H            2.04014316083375       -5.01386773057317       -0.20579483695016
H            3.57557351607963       -3.73959076806904       -1.41923219050342
H            5.71505819364414       -2.56067870010472       -1.28541071759797
H            8.43354685062700        0.40987729184155       -1.16166871523799
H           10.54655759688145       -0.82943492683727       -1.14229375366654
H           12.30154820658637       -1.42953618788207        0.31772378739060
H           14.41968300107507       -2.67210555894515        0.31904904290190
H           14.41513544024779       -5.13086881515403        0.10803815800909
H           12.27371695660711       -6.33690272394092       -0.11546926076967
H           10.15502291641950       -5.09554403444613       -0.14019719753479
H            8.75704030966589       -3.84704799292280        1.29662875534629
H            6.64228531383728       -2.60897071748506        1.27786498718689
H            7.86847904825403        1.22230196321289        1.39930773894621
H            7.87107811781242        3.67120903208772        1.45716304310908
H            8.32604518932890        5.53621455250835        0.08468721214591
H            8.32268413491179        7.99062340319273        0.16318617353050
H            6.18902950000139        9.22443017341914        0.28453238970969
H            4.05713745019784        7.98213053138515        0.33727287158312
H            4.05768535071953        5.52694968466493        0.28163332031813
H            4.51101534107155        3.73729668154352       -1.18314244769386
H            4.50470203734368        1.29140927732285       -1.24113055127864
H            3.93478483944221        0.38095488359247        1.26378223144603
H            1.79857657008775       -0.79726648192711        1.13438470171502

 projected vibrational frequencies (cm⁻¹)
eigval :       -0.00    -0.00    -0.00     0.00     0.00     0.00
eigval :       -1.66     2.04     4.88    11.90    15.55    16.33
eigval :       18.38    21.09    23.34    25.00    27.48    31.99
eigval :       36.06    43.59    54.01    58.65    61.72    68.85
eigval :       71.18    75.53    82.00    82.99    86.78    91.05
eigval :       96.31   100.42   104.83   107.65   113.49   114.30
eigval :      124.89   134.33   149.75   161.64   184.42   190.17
eigval :      190.71   193.21   201.36   217.73   219.40   240.90
eigval :      246.45   251.69   263.90   264.83   310.73   317.01
eigval :      318.43   320.39   324.01   343.72   348.68   355.93
eigval :      369.36   369.57   369.76   369.93   374.57   380.21
eigval :      382.24   382.44   382.97   383.63   387.94   388.73
eigval :      403.13   406.43   420.72   421.86   429.28   429.54
eigval :      431.02   436.18   440.52   462.00   479.76   482.05
eigval :      482.23   495.25   500.43   503.96   518.03   519.49
eigval :      532.82   535.61   535.84   541.98   576.15   583.11
eigval :      586.80   588.49   588.52   588.59   588.62   591.68
eigval :      600.70   603.02   608.57   608.72   609.74   611.61
eigval :      620.76   634.01   655.06   664.52   664.61   664.76
eigval :      665.73   677.29   678.57   681.62   684.80   684.98
eigval :      687.77   697.77   736.63   736.81   754.76   754.94
eigval :      755.15   755.65   760.75   763.36   772.62   800.82
eigval :      805.80   812.75   818.73   819.22   821.61   822.08
eigval :      822.96   835.63   850.40   855.35   864.88   865.29
eigval :      866.36   867.24   875.14   875.28   875.56   875.83
eigval :      898.29   898.39   898.81   898.89   910.45   912.17
eigval :      913.22   915.38   915.79   915.95   916.74   917.02
eigval :      917.68   917.80   920.97   921.70   924.37   924.60
eigval :      925.23   925.71   929.62   929.66   929.79   929.84
eigval :      930.25   930.36   930.91   931.02   963.30   965.20
eigval :      971.36   971.46   986.05   998.74  1008.42  1016.04
eigval :     1016.53  1016.77  1039.65  1055.90  1074.35  1074.93
eigval :     1075.00  1075.18  1086.85  1086.92  1086.98  1087.02
eigval :     1118.50  1121.14  1121.18  1121.34  1121.36  1131.62
eigval :     1141.27  1141.49  1143.03  1143.37  1144.30  1147.10
eigval :     1180.09  1180.20  1180.29  1180.32  1180.44  1184.51
eigval :     1190.15  1190.18  1191.41  1197.36  1199.57  1201.08
eigval :     1201.26  1204.26  1217.86  1221.44  1239.39  1260.76
eigval :     1266.00  1266.31  1268.86  1269.31  1269.47  1269.92
eigval :     1280.74  1280.75  1280.83  1280.86  1283.08  1283.21
eigval :     1289.25  1289.81  1308.63  1313.13  1313.99  1314.12
eigval :     1319.47  1319.49  1319.72  1319.97  1322.09  1322.34
eigval :     1326.47  1327.15  1327.96  1332.26  1337.01  1347.74
eigval :     1362.30  1398.92  1404.08  1404.50  1411.10  1411.64
eigval :     1424.62  1428.11  1433.97  1434.18  1435.47  1435.51
eigval :     1459.43  1459.68  1459.98  1460.21  1471.37  1476.55
eigval :     1489.28  1494.88  1495.17  1495.58  1496.07  1505.61
eigval :     1511.23  1543.65  1544.71  1549.50  1550.39  1556.50
eigval :     1572.01  1573.44  1577.60  1579.74  1579.92  1580.04
eigval :     1580.11  1580.28  1583.92  1600.33  1600.49  1601.20
eigval :     1601.40  2225.26  3061.27  3062.45  3071.06  3071.21
eigval :     3071.97  3072.03  3073.28  3073.30  3074.00  3074.04
eigval :     3076.22  3076.81  3077.59  3077.69  3079.71  3079.88
eigval :     3080.64  3080.84  3081.74  3081.83  3082.61  3082.72
eigval :     3082.84  3083.63  3085.26  3085.48  3085.83  3085.85
eigval :     3087.45  3087.60  3089.87  3090.09  3090.73  3091.09
eigval :     3091.78  3091.98  3092.45  3092.72  3092.95  3093.13
eigval :     3093.22  3093.77  3097.08  3097.50  3101.17  3103.05

   temp. (K)  partition function   enthalpy   heat capacity  entropy
                                   cal/mol     cal/K/mol   cal/K/mol   J/K/mol
 298.15  VIB  0.384E+32            34885.855    212.385    225.776
         ROT  0.502E+09              888.752      2.981     42.794
         INT  0.193E+41            35774.607    215.366    268.570
         TR   0.259E+29             1481.254      4.968     46.230
         TOT                       37255.8612   220.3337   314.7999  1317.1229

       T/K    H(0)-H(T)+PV         H(T)/Eh          T*S/Eh         G(T)/Eh
   ------------------------------------------------------------------------
    298.15    0.593710E-01    0.953128E+00    0.149572E+00    0.803556E+00
   ------------------------------------------------------------------------

         :::::::::::::::::::::::::::::::::::::::::::::::::::::
         ::                  THERMODYNAMIC                  ::
         :::::::::::::::::::::::::::::::::::::::::::::::::::::
         :: total free energy        -175.560335799682 Eh   ::
         ::.................................................::
         :: total energy             -176.363892047792 Eh   ::
         :: zero point energy           0.893756854203 Eh   ::
         :: G(RRHO) w/o ZPVE           -0.090200606093 Eh   ::
         :: G(RRHO) contrib.            0.803556248110 Eh   ::
         :::::::::::::::::::::::::::::::::::::::::::::::::::::

           -------------------------------------------------
          | TOTAL ENERGY             -176.363892047792 Eh   |
          | TOTAL ENTHALPY           -175.410764199599 Eh   |
          | TOTAL FREE ENERGY        -175.560335799682 Eh   |
          | GRADIENT NORM               0.000088733238 Eh/α |
           -------------------------------------------------

 * finished run on 2025/07/19 at 18:06:43.979
