   * xtb version 6.7.1 (edcfbbe) compiled by 'albert@albert-system' on 2024-07-22

   ID    Z sym.   atoms
    1    7 N      1, 9, 37, 44
    2    6 C      2-8, 10-36, 38-43, 45-70
    3    1 H      71-116

          program call               : xtb data2507/gas/2BTPA-INN/2BTPA-INN_gas_S0_crest.xyz --gfn 2 --ohess vtight --parallel 40 --molden --ceasefiles --namespace data2507/gas/2BTPA-INN/2BTPA-INN_gas_S0_finalOpt
          :  Hamiltonian                  GFN2-xTB          :
 * total energy  :  -176.4409733 Eh     change       -0.6775792E-08 Eh
 * total energy  :  -176.4409752 Eh     change       -0.1939488E-05 Eh
 * total energy  :  -176.4409777 Eh     change       -0.2437733E-05 Eh
 * total energy  :  -176.4409803 Eh     change       -0.2668104E-05 Eh
 * total energy  :  -176.4409832 Eh     change       -0.2841679E-05 Eh
 * total energy  :  -176.4409891 Eh     change       -0.5889359E-05 Eh
 * total energy  :  -176.4409992 Eh     change       -0.1015174E-04 Eh
 * total energy  :  -176.4410089 Eh     change       -0.9684894E-05 Eh
 * total energy  :  -176.4410152 Eh     change       -0.6315093E-05 Eh
 * total energy  :  -176.4410208 Eh     change       -0.5546807E-05 Eh
 * total energy  :  -176.4413222 Eh     change       -0.1372835E-05 Eh
 * total energy  :  -176.4413236 Eh     change       -0.1384838E-05 Eh
 * total energy  :  -176.4413250 Eh     change       -0.1392916E-05 Eh
 * total energy  :  -176.4413265 Eh     change       -0.1433473E-05 Eh
 * total energy  :  -176.4413279 Eh     change       -0.1437162E-05 Eh
 * total energy  :  -176.4413293 Eh     change       -0.1436581E-05 Eh
 * total energy  :  -176.4413309 Eh     change       -0.1531939E-05 Eh
 * total energy  :  -176.4413326 Eh     change       -0.1736603E-05 Eh
 * total energy  :  -176.4413326 Eh     change       -0.7104575E-08 Eh
   *** GEOMETRY OPTIMIZATION CONVERGED AFTER 68 ITERATIONS ***

 final structure:
================
116
 xtb: 6.7.1 (edcfbbe)
N            0.03149329353701        0.19908785012232       -0.38218297718700
C           -0.00214007549472       -0.89061124950631       -0.02417050774014
C           -0.03199675038495       -2.25639518550079        0.34453605380510
C           -1.25706106234076       -2.93463138751056        0.46787025567350
C           -2.54064999826168       -2.24125512024401        0.36515870282993
C           -2.74429170033495       -1.00626148147931        0.98098466710147
C           -3.95166380580327       -0.35342786670383        0.87235572063137
C           -4.99753406063924       -0.91227020661895        0.13431957509777
N           -6.20970670378504       -0.23982425751916        0.00161556057776
C           -7.41113100408632       -0.95610214702440       -0.04493021982109
C           -7.59447926717511       -2.08496469829385        0.75360194788825
C           -8.77932009295169       -2.78837270487199        0.70687090610923
C           -9.82387430888565       -2.38423806208720       -0.12315937714435
C          -11.08853393758465       -3.12998063133076       -0.16111561024379
C          -11.09479072417795       -4.52300299195312       -0.12770441313659
C          -12.28579490012902       -5.22345954621349       -0.16410954634070
C          -13.49149482676965       -4.54545520816611       -0.23018553531826
C          -13.49791179516279       -3.16099442580215       -0.26186499480523
C          -12.30778931807817       -2.45886459321607       -0.22979784080338
C           -9.63580939190675       -1.25173665050526       -0.91412081525867
C           -8.44889273462840       -0.55078903410745       -0.88381947484847
C           -6.22821166132416        1.15717327273018       -0.10120444711053
C           -7.24951093743353        1.89807726464982        0.49234848108126
C           -7.27222594196500        3.27206377217718        0.37673016245403
C           -6.27389715136365        3.95228795075876       -0.31880934040162
C           -6.29802209990208        5.41614399164084       -0.43603145475370
C           -7.49605193120935        6.09276206889357       -0.65610421769612
C           -7.51665595919416        7.47004708783802       -0.77105214881290
C           -6.34224554422316        8.19599596342714       -0.66383200853136
C           -5.14585291748861        7.53454261099046       -0.44263368450775
C           -5.12244138097845        6.15700756633529       -0.33175667649114
C           -5.25156434801093        3.20530082370351       -0.90216555218577
C           -5.22928385317683        1.83029951149394       -0.80415443336027
C           -4.80179219005523       -2.15650065044586       -0.46993897642997
C           -3.59562877341147       -2.80993466532687       -0.34915470328257
C           -1.19324421484063       -4.31218776830476        0.68402560489803
N           -0.06757928872968       -4.99331209826912        0.77477833169727
C            1.07650677230778       -4.34423702092186        0.67477787138554
C            1.17363753095690       -2.96820292082447        0.46869989270518
C            2.47317916087743       -2.30141607551288        0.38251052303463
C            3.50150038194186       -2.84627183520806       -0.38544422122194
C            4.72059979473115       -2.21312525201499       -0.48516469662331
C            4.96044622806629       -1.02163507860019        0.20446586012148
N            6.18791404581022       -0.37499480980705        0.10237351312476
C            7.36594704515054       -1.11088549344468       -0.07708092678632
C            8.37090156322135       -0.64009706581554       -0.92155849079795
C            9.53551543975773       -1.35886719465359       -1.08882909364176
C            9.73253111737161       -2.57289250742357       -0.43244334883824
C           10.97153879616687       -3.33909643848369       -0.61912787105928
C           12.20417149483437       -2.69275380161554       -0.68639177795971
C           13.36999429949743       -3.41476759620485       -0.85951161349447
C           13.32525195327010       -4.79424473223906       -0.97272397101180
C           12.10578337924493       -5.44744835895665       -0.90971778656027
C           10.93925716909292       -4.72754097294315       -0.73249070463152
C            8.72209857487545       -3.03922822279997        0.40721747875631
C            7.56008644311264       -2.31990235045496        0.59034254996159
C            6.25856129435466        1.02318354662588        0.17375762002857
C            7.31950502919162        1.64173405847597        0.83400804025189
C            7.39252260329148        3.01711215641662        0.90147617217811
C            6.40706816106973        3.81854350118899        0.32740021256905
C            6.47977610330683        5.28282532499409        0.41641055063479
C            7.69614087770455        5.94602988713881        0.26799106812291
C            7.76231798792331        7.32403447261882        0.35340054786853
C            6.61611422261411        8.06332338414478        0.59302830872986
C            5.40179121328844        7.41490991560033        0.74391714809413
C            5.33269497152298        6.03735963379954        0.65429540185275
C            5.34904304674342        3.19279876053920       -0.33031867335964
C            5.27620971946441        1.81849601850273       -0.41537597636161
C            3.94030121201747       -0.49127916304751        0.99834605941524
C            2.71593643870144       -1.11601566425483        1.07558032754738
H           -1.95792125609048       -0.56532755790422        1.57539702728351
H           -4.09700675368335        0.59705950255309        1.36338500948984
H           -6.80232754060734       -2.40001642379536        1.41726528240301
H           -8.91031387738719       -3.64763506456049        1.34802898333303
H          -10.15725541182619       -5.05893469974188       -0.09407401961488
H          -12.27415411273896       -6.30368080283767       -0.14315749457667
H          -14.42176012724354       -5.09343549006404       -0.25674674483529
H          -14.43559731862150       -2.62623467422297       -0.30919303526114
H          -12.32098900254760       -1.37854443102559       -0.23656466761054
H          -10.42084069737320       -0.93423448371421       -1.58452807498266
H           -8.31335538344299        0.31506247107297       -1.51533122013007
H           -8.02170050954925        1.38749570757885        1.04927858688219
H           -8.06080877745861        3.83060551777158        0.85922217057722
H           -8.41347004595378        5.53134643724581       -0.75895310642937
H           -8.45265094696345        7.98012618541731       -0.94792020698785
H           -6.35940112363797        9.27224614084390       -0.75254198044611
H           -4.22681911317324        8.09575488541829       -0.35425955008998
H           -4.18815099441606        5.64889635639568       -0.14219896706766
H           -4.47961571120087        3.70682829934473       -1.46658921834832
H           -4.43836111644289        1.26710537962322       -1.27741039639725
H           -5.60021993094724       -2.59747808622350       -1.04817920202295
H           -3.45193691144453       -3.75710954275434       -0.84807734630121
H           -2.10115577991015       -4.88893010617083        0.79985017592395
H            1.97029895660267       -4.94522358192271        0.77668766302469
H            3.32613067638879       -3.75571856923262       -0.94145788154870
H            5.49553400389891       -2.63096072660280       -1.11045535886685
H            8.22662174481358        0.29133254454358       -1.44934624370297
H           10.29362013554802       -0.98888318589437       -1.76326431450164
H           12.24829821639309       -1.61842109272116       -0.58078354607396
H           14.31880256070187       -2.89975958912289       -0.90392570318364
H           14.23647067073929       -5.35759075795878       -1.10943282148520
H           12.06400746575510       -6.52319427161834       -1.00168078519800
H            9.98977866282474       -5.24222062004650       -0.70236023350918
H            8.86326644454072       -3.96350446149045        0.94793354457593
H            6.79499956602849       -2.68577697836589        1.25965390358408
H            8.08179680162184        1.03416422126824        1.29981041464523
H            8.21025813219983        3.47811628491382        1.43567678208397
H            8.59145084344185        5.37681521716981        0.06348081784148
H            8.71195525624765        7.82461515576718        0.23036110214752
H            6.66906924757135        9.13986349760764        0.66176098797936
H            4.50469194557962        7.98598883135983        0.93490234141186
H            4.38514054258672        5.53671337004471        0.79045495765460
H            4.58757838505596        3.79237328978037       -0.80647623512765
H            4.45708608120470        1.35152410328659       -0.94232213777570
H            4.11785434911864        0.41507384015941        1.55732044438028
H            1.94660079724589       -0.69550860961430        1.70641603242670

          :  Hamiltonian                  GFN2-xTB          :
         :: gradient norm              0.000107127117 Eh/a0 ::
         :: HOMO-LUMO gap              1.776432416806 eV    ::
         :: SCC energy              -179.849743849286 Eh    ::
         :: -> dispersion             -0.158445496115 Eh    ::
         :: repulsion energy           3.408411238895 Eh    ::

    * Orbital Energies and Occupations

         #    Occupation            Energy/Eh            Energy/eV
      -------------------------------------------------------------
         1        2.0000           -0.6766278             -18.4120
       ...           ...                  ...                  ...
       153        2.0000           -0.4069538             -11.0738
       154        2.0000           -0.4065818             -11.0637
       155        2.0000           -0.4043102             -11.0018
       156        2.0000           -0.4041156             -10.9965
       157        2.0000           -0.4024755             -10.9519
       158        2.0000           -0.4022082             -10.9446
       159        2.0000           -0.3953061             -10.7568
       160        2.0000           -0.3930036             -10.6942
       161        2.0000           -0.3878261             -10.5533
       162        2.0000           -0.3875509             -10.5458
       163        2.0000           -0.3745002             -10.1907
       164        2.0000           -0.3512148              -9.5570
       165        2.0000           -0.3509355              -9.5494 (HOMO)
       166                         -0.2856530              -7.7730 (LUMO)
       167                         -0.2643746              -7.1940
       168                         -0.2504384              -6.8148
       169                         -0.2501780              -6.8077
       170                         -0.2438136              -6.6345
       171                         -0.2382343              -6.4827
       172                         -0.2325985              -6.3293
       173                         -0.2316728              -6.3041
       174                         -0.2263416              -6.1591
       175                         -0.2260662              -6.1516
       176                         -0.2235076              -6.0820
       ...                                ...                  ...
       326                          1.1620742              31.6216
      -------------------------------------------------------------
                  HL-Gap            0.0652826 Eh            1.7764 eV

     #   Z          covCN         q      C6AA      α(0)
     1   7 N        0.911    -0.245    26.378     7.428
     2   6 C        1.909     0.117    28.230     8.581
     3   6 C        2.987     0.017    27.633     8.623
     4   6 C        2.975     0.007    27.863     8.658
     5   6 C        2.976    -0.003    28.089     8.694
     6   6 C        2.923    -0.028    28.702     8.786
     7   6 C        2.921    -0.046    29.141     8.853
     8   6 C        2.925     0.068    26.486     8.440
     9   7 N        2.752    -0.069    22.583     7.058
    10   6 C        2.925     0.062    26.606     8.459
    11   6 C        2.920    -0.048    29.194     8.860
    12   6 C        2.924    -0.034    28.848     8.808
    13   6 C        2.976     0.003    27.961     8.674
    14   6 C        2.976     0.010    27.783     8.646
    15   6 C        2.925    -0.034    28.856     8.809
    16   6 C        2.918    -0.030    28.739     8.791
    17   6 C        2.920    -0.031    28.782     8.798
    18   6 C        2.918    -0.030    28.739     8.791
    19   6 C        2.925    -0.034    28.856     8.809
    20   6 C        2.924    -0.034    28.844     8.807
    21   6 C        2.920    -0.047    29.179     8.858
    22   6 C        2.925     0.062    26.620     8.461
    23   6 C        2.920    -0.048    29.186     8.859
    24   6 C        2.924    -0.034    28.851     8.808
    25   6 C        2.976     0.003    27.951     8.672
    26   6 C        2.977     0.010    27.781     8.646
    27   6 C        2.925    -0.034    28.859     8.810
    28   6 C        2.918    -0.030    28.745     8.792
    29   6 C        2.920    -0.031    28.785     8.798
    30   6 C        2.918    -0.029    28.736     8.791
    31   6 C        2.925    -0.034    28.853     8.809
    32   6 C        2.925    -0.033    28.827     8.805
    33   6 C        2.920    -0.047    29.169     8.857
    34   6 C        2.921    -0.047    29.176     8.858
    35   6 C        2.924    -0.033    28.826     8.805
    36   6 C        2.915     0.051    26.849     8.497
    37   7 N        1.833    -0.216    26.553     7.636
    38   6 C        2.915     0.051    26.846     8.496
    39   6 C        2.977     0.007    27.853     8.657
    40   6 C        2.976    -0.003    28.103     8.696
    41   6 C        2.923    -0.033    28.822     8.804
    42   6 C        2.921    -0.048    29.196     8.861
    43   6 C        2.923     0.068    26.488     8.440
    44   7 N        2.752    -0.069    22.578     7.057
    45   6 C        2.925     0.062    26.606     8.459
    46   6 C        2.920    -0.047    29.168     8.857
    47   6 C        2.924    -0.034    28.843     8.807
    48   6 C        2.976     0.003    27.955     8.673
    49   6 C        2.976     0.010    27.783     8.646
    50   6 C        2.925    -0.034    28.855     8.809
    51   6 C        2.918    -0.030    28.739     8.791
    52   6 C        2.920    -0.031    28.781     8.798
    53   6 C        2.918    -0.030    28.738     8.791
    54   6 C        2.925    -0.034    28.855     8.809
    55   6 C        2.924    -0.034    28.850     8.808
    56   6 C        2.920    -0.048    29.184     8.859
    57   6 C        2.926     0.062    26.621     8.461
    58   6 C        2.920    -0.048    29.180     8.858
    59   6 C        2.924    -0.034    28.851     8.808
    60   6 C        2.976     0.003    27.947     8.672
    61   6 C        2.977     0.010    27.781     8.646
    62   6 C        2.925    -0.034    28.858     8.810
    63   6 C        2.918    -0.030    28.744     8.792
    64   6 C        2.920    -0.031    28.784     8.798
    65   6 C        2.918    -0.029    28.736     8.791
    66   6 C        2.925    -0.034    28.852     8.809
    67   6 C        2.924    -0.033    28.830     8.805
    68   6 C        2.920    -0.047    29.163     8.856
    69   6 C        2.921    -0.047    29.164     8.856
    70   6 C        2.923    -0.028    28.696     8.785
    71   1 H        0.926     0.036     2.509     2.477
    72   1 H        0.926     0.039     2.465     2.455
    73   1 H        0.926     0.032     2.564     2.504
    74   1 H        0.926     0.035     2.518     2.481
    75   1 H        0.926     0.030     2.583     2.513
    76   1 H        0.926     0.029     2.598     2.520
    77   1 H        0.926     0.029     2.600     2.521
    78   1 H        0.926     0.029     2.599     2.521
    79   1 H        0.926     0.030     2.582     2.513
    80   1 H        0.926     0.035     2.515     2.480
    81   1 H        0.926     0.033     2.539     2.492
    82   1 H        0.926     0.032     2.556     2.500
    83   1 H        0.926     0.035     2.522     2.483
    84   1 H        0.926     0.030     2.590     2.517
    85   1 H        0.926     0.029     2.607     2.525
    86   1 H        0.926     0.029     2.605     2.524
    87   1 H        0.926     0.030     2.593     2.518
    88   1 H        0.926     0.032     2.554     2.499
    89   1 H        0.926     0.038     2.477     2.461
    90   1 H        0.926     0.035     2.512     2.478
    91   1 H        0.926     0.036     2.497     2.471
    92   1 H        0.926     0.035     2.514     2.480
    93   1 H        0.925     0.041     2.430     2.438
    94   1 H        0.925     0.041     2.432     2.439
    95   1 H        0.926     0.034     2.526     2.485
    96   1 H        0.926     0.036     2.500     2.473
    97   1 H        0.926     0.033     2.538     2.491
    98   1 H        0.926     0.035     2.512     2.479
    99   1 H        0.926     0.030     2.581     2.512
   100   1 H        0.926     0.029     2.597     2.520
   101   1 H        0.926     0.029     2.598     2.521
   102   1 H        0.926     0.029     2.596     2.520
   103   1 H        0.926     0.030     2.582     2.513
   104   1 H        0.926     0.035     2.515     2.480
   105   1 H        0.926     0.032     2.554     2.499
   106   1 H        0.926     0.032     2.560     2.502
   107   1 H        0.926     0.035     2.521     2.483
   108   1 H        0.926     0.030     2.589     2.516
   109   1 H        0.926     0.029     2.606     2.524
   110   1 H        0.926     0.029     2.604     2.523
   111   1 H        0.926     0.030     2.593     2.518
   112   1 H        0.926     0.032     2.557     2.501
   113   1 H        0.926     0.038     2.474     2.460
   114   1 H        0.926     0.037     2.493     2.469
   115   1 H        0.926     0.038     2.472     2.458
   116   1 H        0.926     0.034     2.533     2.489

molecular dipole:
                 x           y           z       tot (Debye)
 q only:        0.027       0.026       0.133
   full:        0.020      -0.059       0.195       0.519

 projected vibrational frequencies (cm⁻¹)
eigval :       -0.00    -0.00     0.00     0.00     0.00     0.00
eigval :        4.17     4.96     6.20    13.33    15.79    17.13
eigval :       18.62    22.44    27.55    27.70    30.70    35.94
eigval :       36.94    44.26    56.46    60.64    62.36    68.38
eigval :       72.35    76.75    82.35    82.99    86.79    90.97
eigval :       98.95   100.12   101.73   107.67   113.91   115.84
eigval :      127.01   133.39   155.77   162.79   181.18   191.19
eigval :      192.25   194.18   202.77   213.97   220.84   239.74
eigval :      241.27   251.65   259.87   269.76   310.52   314.74
eigval :      319.23   324.26   333.23   344.28   352.80   359.77
eigval :      370.95   371.29   371.37   371.48   375.70   383.34
eigval :      383.44   383.82   384.29   387.54   388.84   389.76
eigval :      404.58   416.08   422.36   428.52   429.10   429.48
eigval :      429.99   433.43   446.37   484.25   484.79   489.16
eigval :      492.87   501.15   503.00   527.52   535.38   535.72
eigval :      536.27   546.89   575.97   578.83   579.46   585.74
eigval :      588.82   588.92   588.95   588.99   590.24   599.09
eigval :      602.43   607.94   609.80   610.18   611.90   623.32
eigval :      625.60   658.12   665.65   665.83   666.05   667.57
eigval :      676.58   683.70   684.55   685.75   688.56   690.20
eigval :      700.92   721.82   737.69   737.80   757.00   757.09
eigval :      757.18   757.41   765.45   773.70   798.09   814.13
eigval :      814.88   819.78   820.48   821.17   821.58   835.85
eigval :      855.48   867.11   868.43   869.55   870.14   871.11
eigval :      871.69   878.47   878.60   878.89   879.00   900.10
eigval :      900.20   900.43   900.47   901.04   915.75   916.44
eigval :      917.04   917.10   917.33   918.78   918.94   919.22
eigval :      919.49   925.15   925.79   926.24   926.82   927.82
eigval :      928.41   929.52   931.93   932.07   932.26   932.28
eigval :      932.34   932.42   932.73   933.04   965.20   967.03
eigval :      972.40   972.44   994.57  1003.84  1013.79  1019.59
eigval :     1019.62  1023.29  1065.20  1076.00  1076.10  1076.68
eigval :     1076.76  1088.36  1088.39  1088.45  1088.47  1122.17
eigval :     1122.20  1122.28  1122.30  1142.23  1142.73  1144.03
eigval :     1144.23  1144.44  1146.24  1161.69  1164.69  1182.71
eigval :     1182.73  1182.74  1182.80  1186.89  1187.23  1194.10
eigval :     1194.35  1196.30  1197.10  1202.69  1203.01  1204.75
eigval :     1204.90  1211.04  1220.07  1221.42  1255.66  1262.84
eigval :     1269.56  1270.08  1272.78  1272.99  1273.09  1274.42
eigval :     1282.21  1282.29  1282.39  1282.40  1284.84  1285.25
eigval :     1294.73  1296.55  1311.81  1312.67  1317.51  1319.15
eigval :     1319.36  1319.36  1319.58  1324.78  1325.71  1327.39
eigval :     1327.61  1331.13  1332.04  1333.28  1350.14  1399.06
eigval :     1400.62  1403.07  1408.26  1410.79  1411.39  1419.89
eigval :     1430.02  1434.94  1435.24  1436.26  1436.39  1464.61
eigval :     1465.00  1466.28  1466.44  1492.67  1494.95  1500.53
eigval :     1501.05  1501.50  1501.75  1520.35  1539.61  1549.90
eigval :     1551.08  1558.97  1559.47  1561.45  1561.51  1582.52
eigval :     1582.55  1582.68  1582.72  1590.65  1590.93  1591.06
eigval :     1591.73  1596.61  1597.20  1603.55  1603.63  1604.89
eigval :     1604.99  2359.05  3062.88  3063.30  3070.20  3070.33
eigval :     3070.62  3070.74  3071.78  3071.90  3072.27  3072.30
eigval :     3077.16  3077.21  3077.46  3077.48  3079.01  3079.05
eigval :     3079.60  3080.36  3080.42  3080.43  3081.11  3081.15
eigval :     3081.62  3081.96  3082.54  3084.28  3084.31  3084.41
eigval :     3084.96  3085.09  3089.36  3089.44  3089.85  3089.88
eigval :     3091.16  3091.17  3091.78  3091.86  3092.31  3092.41
eigval :     3092.97  3093.23  3093.69  3093.74  3096.54  3096.84

   temp. (K)  partition function   enthalpy   heat capacity  entropy
                                   cal/mol     cal/K/mol   cal/K/mol   J/K/mol
 298.15  VIB  0.169E+31            34577.924    210.783    221.825
         ROT  0.508E+09              888.752      2.981     42.819
         INT  0.860E+39            35466.677    213.764    264.644
         TR   0.259E+29             1481.254      4.968     46.230
         TOT                       36947.9306   218.7317   310.8739  1300.6965

       T/K    H(0)-H(T)+PV         H(T)/Eh          T*S/Eh         G(T)/Eh
   ------------------------------------------------------------------------
    298.15    0.588803E-01    0.957124E+00    0.147706E+00    0.809418E+00
   ------------------------------------------------------------------------

         :::::::::::::::::::::::::::::::::::::::::::::::::::::
         ::                  THERMODYNAMIC                  ::
         :::::::::::::::::::::::::::::::::::::::::::::::::::::
         :: total free energy        -175.631914985684 Eh   ::
         ::.................................................::
         :: total energy             -176.441332610387 Eh   ::
         :: zero point energy           0.898243584908 Eh   ::
         :: G(RRHO) w/o ZPVE           -0.088825960205 Eh   ::
         :: G(RRHO) contrib.            0.809417624703 Eh   ::
         :::::::::::::::::::::::::::::::::::::::::::::::::::::

           -------------------------------------------------
          | TOTAL ENERGY             -176.441332610387 Eh   |
          | TOTAL ENTHALPY           -175.484208750155 Eh   |
          | TOTAL FREE ENERGY        -175.631914985684 Eh   |
          | GRADIENT NORM               0.000107345219 Eh/α |
          | HOMO-LUMO GAP               1.776428851972 eV   |
           -------------------------------------------------

 * finished run on 2025/07/19 at 17:34:06.684
