   * xtb version 6.7.1 (edcfbbe) compiled by 'albert@albert-system' on 2024-07-22

   ID    Z sym.   atoms
    1    7 N      1, 9, 37, 44
    2    6 C      2-8, 10-36, 38-43, 45-70
    3    1 H      71-116

          program call               : xtb data2507/gas/2BTPA-INN/2BTPA-INN.xyz --gfn 2 --ohess vtight --parallel 40 --molden --ceasefiles --namespace data2507/gas/2BTPA-INN/2BTPA-INN_gas_S0_preOpt
          :  Hamiltonian                  GFN2-xTB          :
 * total energy  :  -176.4030395 Eh     change       -0.2452936E-08 Eh
 * total energy  :  -176.4197829 Eh     change       -0.1674333E-01 Eh
 * total energy  :  -176.4261609 Eh     change       -0.6378042E-02 Eh
 * total energy  :  -176.4299142 Eh     change       -0.3753303E-02 Eh
 * total energy  :  -176.4330251 Eh     change       -0.3110866E-02 Eh
 * total energy  :  -176.4348715 Eh     change       -0.1846460E-02 Eh
 * total energy  :  -176.4358409 Eh     change       -0.9693850E-03 Eh
 * total energy  :  -176.4364905 Eh     change       -0.6495753E-03 Eh
 * total energy  :  -176.4371311 Eh     change       -0.6405849E-03 Eh
 * total energy  :  -176.4377495 Eh     change       -0.6183813E-03 Eh
 * total energy  :  -176.4401574 Eh     change       -0.2315282E-06 Eh
 * total energy  :  -176.4401576 Eh     change       -0.2090202E-06 Eh
 * total energy  :  -176.4401578 Eh     change       -0.1872686E-06 Eh
 * total energy  :  -176.4401580 Eh     change       -0.2150963E-06 Eh
 * total energy  :  -176.4401584 Eh     change       -0.3105454E-06 Eh
 * total energy  :  -176.4401588 Eh     change       -0.4355321E-06 Eh
 * total energy  :  -176.4401593 Eh     change       -0.4922342E-06 Eh
 * total energy  :  -176.4401597 Eh     change       -0.4555672E-06 Eh
 * total energy  :  -176.4401597 Eh     change       -0.3364960E-08 Eh
   *** GEOMETRY OPTIMIZATION CONVERGED AFTER 152 ITERATIONS ***

 final structure:
================
116
 xtb: 6.7.1 (edcfbbe)
N            0.00185105927255        0.13388792627356       -0.42527825711121
C            0.06782095859757        0.73787697483536        0.54795016245940
C            0.14598138908130        1.54436860849515        1.70803983126716
C           -1.02741520438207        2.07268768794177        2.27280673382026
C           -2.35905116113918        1.69614309288906        1.79429766635492
C           -2.68642342519076        0.36213330071271        1.55553340798865
C           -3.94627197029164        0.01113408292496        1.12279342741868
C           -4.92007222639726        0.98836688043428        0.90710578082270
N           -6.19381882755935        0.63765674384619        0.46410445353795
C           -6.78647188493482       -0.55499505196590        0.89499777315187
C           -6.61025112293190       -1.00301396006368        2.20404663573907
C           -7.19861639361826       -2.17652440329154        2.62540746540586
C           -7.99247755405337       -2.93319311515049        1.76486494174360
C           -8.62764670586641       -4.17570791228188        2.22274217944535
C           -7.94109811531380       -5.06356125080821        3.04858347353926
C           -8.54054917776493       -6.23195323293108        3.47980916373272
C           -9.83725077859206       -6.53234942078966        3.09758856121648
C          -10.52998183169392       -5.65693930073710        2.27810037232776
C           -9.93076310212786       -4.49010080096958        1.84236685565073
C           -8.16918568081821       -2.47628009371899        0.45974064623885
C           -7.57231216070473       -1.31150867426389        0.02605743695282
C           -6.88691066714829        1.47641408813345       -0.41784214478100
C           -6.21135585719089        2.14979232828066       -1.43522015634133
C           -6.89922968723940        2.96875440985430       -2.30562802182003
C           -8.27755156622792        3.14315253168624       -2.19260762720569
C           -9.00675198485032        4.01344081474033       -3.12514426974459
C           -8.69956806891108        4.01406964026890       -4.48420639091644
C           -9.38821668297399        4.83020498757360       -5.36181982479131
C          -10.39190044239436        5.66352023204643       -4.89706898948248
C          -10.70423174145600        5.67328667242256       -3.54795195312032
C          -10.02016384146257        4.85409149729332       -2.66954793055795
C           -8.94582460898179        2.46766645750057       -1.17290972175332
C           -8.26564108562368        1.64699501020386       -0.29790149727290
C           -4.59463299215873        2.32530502907751        1.14760262041120
C           -3.33645814984225        2.66951498142440        1.59022869174110
C           -0.86997141529217        2.98203991321618        3.31894772797547
N            0.30027988244910        3.35391711928824        3.80095049422048
C            1.39452732760184        2.83475369325313        3.27933845602257
C            1.39791150133221        1.91697944734727        2.22778129374859
C            2.65056959311072        1.38017571535267        1.69682525520071
C            2.78347440686312        0.02503722483856        1.39430745919991
C            3.96660419660971       -0.47543874624327        0.89864666887982
C            5.05763282120081        0.36820262800247        0.67662750803350
N            6.24798312621057       -0.13172229581305        0.15619250347923
C            6.22553365652702       -1.17081460896669       -0.78383510446127
C            7.20756218910353       -2.16054505474415       -0.76699224258906
C            7.18914994432626       -3.17765236624968       -1.69821222167636
C            6.19473054341457       -3.24274854339519       -2.67258711275557
C            6.17971738156970       -4.32674474717911       -3.66430726192924
C            6.47834905611812       -5.63580965656192       -3.29236690953457
C            6.46140632227793       -6.65485487669020       -4.22611364028709
C            6.15132789764507       -6.38362663166549       -5.54824017388390
C            5.85543258016713       -5.08577905502010       -5.93010457650271
C            5.86670469558461       -4.06631226624715       -4.99680888884357
C            5.21544580682222       -2.25091104426319       -2.68210732053689
C            5.22724089511714       -1.22944544977097       -1.75579611556429
C            7.47515209382824        0.40841401592754        0.56103328013854
C            8.51518267907544        0.57251137427990       -0.35325234880856
C            9.72346825318775        1.09960636880485        0.05160251802219
C            9.93569265614239        1.47903447223313        1.37592885416701
C           11.22477129752666        2.03971951766040        1.80327593786417
C           11.79251680903778        1.66970904444002        3.02069183708534
C           13.00629996421019        2.19603850868340        3.42102120755475
C           13.67166329144546        3.10476325793918        2.61524648065798
C           13.11585501098718        3.48180646386449        1.40417284867549
C           11.90466015861901        2.95261787720721        0.99975670432917
C            8.89218973953967        1.31135148451536        2.28461984970475
C            7.68096318063039        0.78495591868575        1.88804427185388
C            4.92967817638743        1.72444163369609        0.98739619302936
C            3.74879928918761        2.21687120786089        1.49642177966741
H           -1.95072622491985       -0.41071584391678        1.72264295700478
H           -4.18360533791838       -1.02596853628599        0.93918514525917
H           -6.01450384911208       -0.41841945435068        2.89002106133970
H           -7.06739386865725       -2.49657850910555        3.64862157860845
H           -6.92298037705699       -4.84422783368780        3.33603031381963
H           -7.99334579307509       -6.91320059471212        4.11538084514935
H          -10.30572713560404       -7.44444879250870        3.43671708651051
H          -11.54330200918187       -5.88395800731025        1.97956934265529
H          -10.48332997619902       -3.80304260617273        1.21789968620663
H           -8.75863128337644       -3.05845291662064       -0.23316049712013
H           -7.70627894791809       -0.98006348759169       -0.99327191461786
H           -5.14385617309431        2.02147431208304       -1.53999019784149
H           -6.35738461177398        3.49190537826378       -3.07968816949422
H           -7.92945980619790        3.35376921793936       -4.85599400880832
H           -9.14281144876556        4.81500571115120       -6.41395044030786
H          -10.92822398965545        6.30236770059570       -5.58310065057178
H          -11.48349828074794        6.32436395894038       -3.17872581215494
H          -10.25736943332697        4.87919578172933       -1.61572899181210
H          -10.01582677316681        2.57629548447081       -1.07364775071237
H           -8.79848649178995        1.13079336072014        0.48738278121621
H           -5.34010394447581        3.09053889773156        0.98933132678979
H           -3.09827783970464        3.70873548629660        1.76410891533840
H           -1.73652842229443        3.41940840880702        3.79666677922800
H            2.32586795106751        3.15418868796367        3.72759118473261
H            1.96086791318021       -0.65018132149295        1.57766834944282
H            4.05723595411118       -1.52942869987440        0.68299765535749
H            7.98507140194086       -2.12555496579438       -0.01772702368677
H            7.96676932350324       -3.92699855195625       -1.67876444688516
H            6.70416726752417       -5.85723980476152       -2.25921902572536
H            6.68880055641132       -7.66622774669709       -3.92126732267265
H            6.14002158040923       -7.18010334906734       -6.27757915612995
H            5.61648505265524       -4.86729658705218       -6.96093503598520
H            5.65101001129890       -3.05338960755155       -5.30457210599212
H            4.42556998510134       -2.28774200789330       -3.41747722048136
H            4.46131726508771       -0.46823117674388       -1.78074495808498
H            8.36693179703620        0.28394007337324       -1.38360856919112
H           10.52189728530404        1.20663479649280       -0.66780289975235
H           11.28709654814175        0.94816213099784        3.64624341348239
H           13.43694815241036        1.89474303384972        4.36506275011555
H           14.61899094272611        3.51718960036542        2.92965577515004
H           13.62825223154531        4.19354641460643        0.77305778150984
H           11.46840079849971        3.26402867073729        0.06163391425718
H            9.02843211232022        1.60963056098457        3.31371627571996
H            6.88375122116955        0.65782213362296        2.60602934075897
H            5.76199508223538        2.39020486024567        0.81341410882094
H            3.65970586868516        3.27264943247128        1.70657612145000

          :  Hamiltonian                  GFN2-xTB          :
         :: gradient norm              0.000112022356 Eh/a0 ::
         :: HOMO-LUMO gap              1.765761288966 eV    ::
         :: SCC energy              -179.848324356072 Eh    ::
         :: -> dispersion             -0.157859079164 Eh    ::
         :: repulsion energy           3.408164610427 Eh    ::

    * Orbital Energies and Occupations

         #    Occupation            Energy/Eh            Energy/eV
      -------------------------------------------------------------
         1        2.0000           -0.6769116             -18.4197
       ...           ...                  ...                  ...
       153        2.0000           -0.4067691             -11.0687
       154        2.0000           -0.4054533             -11.0329
       155        2.0000           -0.4043628             -11.0033
       156        2.0000           -0.4035243             -10.9805
       157        2.0000           -0.4033521             -10.9758
       158        2.0000           -0.4023022             -10.9472
       159        2.0000           -0.3948433             -10.7442
       160        2.0000           -0.3927031             -10.6860
       161        2.0000           -0.3876051             -10.5473
       162        2.0000           -0.3873036             -10.5391
       163        2.0000           -0.3748242             -10.1995
       164        2.0000           -0.3510945              -9.5538
       165        2.0000           -0.3507319              -9.5439 (HOMO)
       166                         -0.2858413              -7.7781 (LUMO)
       167                         -0.2644065              -7.1949
       168                         -0.2500156              -6.8033
       169                         -0.2498889              -6.7998
       170                         -0.2437874              -6.6338
       171                         -0.2385391              -6.4910
       172                         -0.2324719              -6.3259
       173                         -0.2317922              -6.3074
       174                         -0.2263093              -6.1582
       175                         -0.2258903              -6.1468
       176                         -0.2236587              -6.0861
       ...                                ...                  ...
       326                          1.1629506              31.6455
      -------------------------------------------------------------
                  HL-Gap            0.0648905 Eh            1.7658 eV

     #   Z          covCN         q      C6AA      α(0)
     1   7 N        0.911    -0.243    26.335     7.422
     2   6 C        1.909     0.116    28.235     8.581
     3   6 C        2.987     0.017    27.624     8.622
     4   6 C        2.976     0.007    27.853     8.657
     5   6 C        2.976    -0.003    28.084     8.693
     6   6 C        2.923    -0.028    28.699     8.785
     7   6 C        2.921    -0.046    29.138     8.852
     8   6 C        2.924     0.068    26.483     8.439
     9   7 N        2.752    -0.070    22.594     7.060
    10   6 C        2.925     0.062    26.602     8.458
    11   6 C        2.920    -0.048    29.195     8.861
    12   6 C        2.924    -0.034    28.847     8.808
    13   6 C        2.976     0.003    27.961     8.674
    14   6 C        2.977     0.010    27.781     8.646
    15   6 C        2.925    -0.034    28.855     8.809
    16   6 C        2.918    -0.030    28.739     8.791
    17   6 C        2.920    -0.031    28.784     8.798
    18   6 C        2.918    -0.030    28.740     8.791
    19   6 C        2.925    -0.034    28.857     8.809
    20   6 C        2.924    -0.034    28.840     8.807
    21   6 C        2.920    -0.047    29.174     8.857
    22   6 C        2.925     0.062    26.605     8.459
    23   6 C        2.920    -0.048    29.182     8.859
    24   6 C        2.924    -0.034    28.840     8.807
    25   6 C        2.976     0.003    27.957     8.673
    26   6 C        2.977     0.010    27.781     8.646
    27   6 C        2.925    -0.034    28.853     8.809
    28   6 C        2.918    -0.030    28.738     8.791
    29   6 C        2.920    -0.031    28.782     8.798
    30   6 C        2.918    -0.030    28.741     8.791
    31   6 C        2.925    -0.034    28.856     8.809
    32   6 C        2.924    -0.034    28.848     8.808
    33   6 C        2.920    -0.048    29.184     8.859
    34   6 C        2.921    -0.047    29.174     8.857
    35   6 C        2.924    -0.033    28.824     8.804
    36   6 C        2.915     0.051    26.846     8.496
    37   7 N        1.833    -0.216    26.547     7.635
    38   6 C        2.915     0.052    26.844     8.496
    39   6 C        2.975     0.007    27.858     8.658
    40   6 C        2.976    -0.003    28.097     8.695
    41   6 C        2.923    -0.028    28.701     8.786
    42   6 C        2.921    -0.046    29.151     8.854
    43   6 C        2.924     0.068    26.485     8.440
    44   7 N        2.752    -0.070    22.589     7.059
    45   6 C        2.925     0.062    26.620     8.461
    46   6 C        2.920    -0.048    29.187     8.859
    47   6 C        2.924    -0.034    28.850     8.808
    48   6 C        2.976     0.003    27.947     8.672
    49   6 C        2.977     0.011    27.776     8.645
    50   6 C        2.925    -0.034    28.852     8.809
    51   6 C        2.918    -0.030    28.740     8.791
    52   6 C        2.920    -0.031    28.781     8.798
    53   6 C        2.918    -0.029    28.735     8.790
    54   6 C        2.925    -0.034    28.849     8.808
    55   6 C        2.925    -0.033    28.827     8.805
    56   6 C        2.920    -0.047    29.171     8.857
    57   6 C        2.925     0.062    26.605     8.459
    58   6 C        2.920    -0.047    29.173     8.857
    59   6 C        2.924    -0.034    28.843     8.807
    60   6 C        2.976     0.003    27.955     8.673
    61   6 C        2.977     0.010    27.782     8.646
    62   6 C        2.925    -0.034    28.854     8.809
    63   6 C        2.918    -0.030    28.738     8.791
    64   6 C        2.920    -0.031    28.780     8.797
    65   6 C        2.918    -0.030    28.738     8.791
    66   6 C        2.925    -0.034    28.854     8.809
    67   6 C        2.924    -0.034    28.849     8.808
    68   6 C        2.920    -0.048    29.189     8.860
    69   6 C        2.921    -0.048    29.185     8.859
    70   6 C        2.924    -0.033    28.826     8.805
    71   1 H        0.926     0.035     2.521     2.483
    72   1 H        0.926     0.039     2.463     2.454
    73   1 H        0.926     0.031     2.569     2.506
    74   1 H        0.926     0.035     2.521     2.483
    75   1 H        0.926     0.030     2.582     2.513
    76   1 H        0.926     0.029     2.600     2.521
    77   1 H        0.926     0.029     2.602     2.522
    78   1 H        0.926     0.029     2.600     2.522
    79   1 H        0.926     0.030     2.583     2.513
    80   1 H        0.926     0.035     2.512     2.479
    81   1 H        0.926     0.033     2.538     2.491
    82   1 H        0.926     0.034     2.530     2.487
    83   1 H        0.926     0.036     2.509     2.477
    84   1 H        0.926     0.031     2.574     2.509
    85   1 H        0.926     0.029     2.595     2.519
    86   1 H        0.926     0.029     2.600     2.522
    87   1 H        0.926     0.029     2.600     2.522
    88   1 H        0.926     0.030     2.585     2.514
    89   1 H        0.926     0.035     2.519     2.482
    90   1 H        0.926     0.033     2.549     2.497
    91   1 H        0.926     0.036     2.498     2.472
    92   1 H        0.926     0.035     2.519     2.482
    93   1 H        0.925     0.042     2.428     2.437
    94   1 H        0.925     0.042     2.426     2.436
    95   1 H        0.926     0.035     2.514     2.480
    96   1 H        0.926     0.039     2.465     2.455
    97   1 H        0.926     0.032     2.558     2.501
    98   1 H        0.926     0.035     2.522     2.483
    99   1 H        0.926     0.030     2.585     2.514
   100   1 H        0.926     0.029     2.602     2.523
   101   1 H        0.926     0.029     2.602     2.523
   102   1 H        0.926     0.029     2.595     2.519
   103   1 H        0.926     0.031     2.572     2.508
   104   1 H        0.926     0.038     2.475     2.460
   105   1 H        0.926     0.036     2.506     2.476
   106   1 H        0.926     0.034     2.537     2.491
   107   1 H        0.926     0.035     2.513     2.479
   108   1 H        0.926     0.030     2.582     2.513
   109   1 H        0.926     0.029     2.596     2.520
   110   1 H        0.926     0.029     2.597     2.520
   111   1 H        0.926     0.029     2.596     2.520
   112   1 H        0.926     0.030     2.580     2.512
   113   1 H        0.926     0.035     2.517     2.481
   114   1 H        0.926     0.032     2.560     2.502
   115   1 H        0.926     0.036     2.499     2.472
   116   1 H        0.926     0.035     2.518     2.481

molecular dipole:
                 x           y           z       tot (Debye)
 q only:        0.072      -0.055       0.116
   full:        0.079      -0.035       0.212       0.582

 projected vibrational frequencies (cm⁻¹)
eigval :       -0.00     0.00     0.00     0.00     0.00     0.00
eigval :        3.91     4.85     6.39    14.95    15.64    16.59
eigval :       18.66    23.14    26.08    27.05    30.34    35.67
eigval :       37.35    43.69    57.96    62.45    65.08    67.00
eigval :       71.73    79.34    81.71    87.80    87.97    91.74
eigval :       94.02    98.04   104.24   109.26   115.26   117.61
eigval :      125.79   130.55   150.90   162.52   175.00   185.98
eigval :      190.24   196.85   201.97   206.91   231.16   241.05
eigval :      247.51   252.28   277.94   285.65   294.41   296.51
eigval :      302.97   304.89   339.47   353.51   358.41   366.71
eigval :      370.50   370.57   370.85   370.98   376.31   380.28
eigval :      381.04   381.60   382.00   382.41   388.69   390.47
eigval :      398.20   409.49   415.59   420.23   424.38   428.79
eigval :      433.32   449.58   458.68   487.84   488.72   490.14
eigval :      491.85   500.46   503.96   527.75   533.95   534.61
eigval :      535.06   547.14   575.52   576.30   580.12   584.60
eigval :      587.20   588.78   588.94   590.56   593.22   599.73
eigval :      602.79   607.91   609.58   609.90   612.30   623.92
eigval :      625.33   658.44   665.78   666.06   666.54   666.98
eigval :      676.38   683.07   683.95   685.21   688.08   689.56
eigval :      700.06   721.52   737.34   737.66   756.05   756.58
eigval :      756.79   757.12   765.98   773.76   798.01   814.32
eigval :      815.28   820.38   820.59   821.41   822.05   835.20
eigval :      856.22   867.84   869.25   869.99   870.38   871.62
eigval :      872.04   878.52   878.73   879.08   879.23   900.07
eigval :      900.78   900.88   900.89   901.83   915.86   916.00
eigval :      916.26   917.13   917.54   918.69   918.84   918.96
eigval :      919.40   925.61   925.85   926.24   926.54   927.76
eigval :      928.16   929.45   931.93   932.00   932.20   932.27
eigval :      932.28   932.30   932.58   932.80   965.28   967.10
eigval :      972.49   972.56   994.82  1004.07  1013.86  1019.60
eigval :     1019.68  1023.41  1065.05  1076.17  1076.23  1076.82
eigval :     1076.88  1088.33  1088.34  1088.45  1088.45  1122.04
eigval :     1122.07  1122.10  1122.23  1142.16  1142.82  1143.87
eigval :     1144.18  1144.51  1145.88  1162.09  1164.18  1182.73
eigval :     1182.75  1182.75  1182.77  1186.27  1186.73  1194.21
eigval :     1194.25  1195.92  1196.82  1202.53  1202.89  1204.64
eigval :     1204.76  1211.42  1219.98  1221.07  1255.50  1262.73
eigval :     1269.47  1269.94  1272.75  1273.02  1273.18  1274.29
eigval :     1282.19  1282.24  1282.30  1282.40  1284.79  1285.22
eigval :     1294.49  1296.45  1311.86  1312.85  1317.13  1318.97
eigval :     1319.12  1319.21  1319.51  1324.90  1325.68  1327.23
eigval :     1327.43  1330.87  1332.25  1333.18  1349.53  1398.75
eigval :     1400.46  1402.89  1408.08  1410.62  1411.28  1419.13
eigval :     1430.10  1434.81  1435.12  1436.19  1436.35  1464.78
eigval :     1465.19  1466.47  1466.54  1492.18  1494.57  1500.79
eigval :     1501.39  1501.60  1501.82  1521.27  1539.39  1550.18
eigval :     1551.66  1559.26  1559.96  1561.62  1561.91  1582.57
eigval :     1582.72  1582.77  1582.86  1591.36  1591.91  1592.51
eigval :     1592.90  1597.10  1597.73  1603.61  1603.72  1604.94
eigval :     1605.15  2360.52  3063.09  3063.47  3070.42  3070.53
eigval :     3070.59  3070.71  3071.72  3071.80  3071.89  3071.94
eigval :     3077.18  3077.35  3077.63  3077.83  3078.82  3079.26
eigval :     3079.30  3079.85  3080.20  3080.27  3081.05  3081.14
eigval :     3081.29  3082.02  3083.11  3084.06  3084.32  3084.38
eigval :     3084.45  3084.63  3089.47  3089.59  3089.95  3090.07
eigval :     3091.04  3091.35  3091.40  3091.81  3092.27  3092.46
eigval :     3092.52  3092.84  3093.05  3093.68  3096.52  3096.89

   temp. (K)  partition function   enthalpy   heat capacity  entropy
                                   cal/mol     cal/K/mol   cal/K/mol   J/K/mol
 298.15  VIB  0.169E+31            34592.332    210.887    221.904
         ROT  0.536E+09              888.752      2.981     42.924
         INT  0.905E+39            35481.085    213.868    264.828
         TR   0.259E+29             1481.254      4.968     46.230
         TOT                       36962.3386   218.8363   311.0585  1301.4689

       T/K    H(0)-H(T)+PV         H(T)/Eh          T*S/Eh         G(T)/Eh
   ------------------------------------------------------------------------
    298.15    0.589032E-01    0.957107E+00    0.147794E+00    0.809313E+00
   ------------------------------------------------------------------------

         :::::::::::::::::::::::::::::::::::::::::::::::::::::
         ::                  THERMODYNAMIC                  ::
         :::::::::::::::::::::::::::::::::::::::::::::::::::::
         :: total free energy        -175.630846920285 Eh   ::
         ::.................................................::
         :: total energy             -176.440159745640 Eh   ::
         :: zero point energy           0.898203539277 Eh   ::
         :: G(RRHO) w/o ZPVE           -0.088890713922 Eh   ::
         :: G(RRHO) contrib.            0.809312825355 Eh   ::
         :::::::::::::::::::::::::::::::::::::::::::::::::::::

           -------------------------------------------------
          | TOTAL ENERGY             -176.440159745640 Eh   |
          | TOTAL ENTHALPY           -175.483052970524 Eh   |
          | TOTAL FREE ENERGY        -175.630846920285 Eh   |
          | GRADIENT NORM               0.000111937814 Eh/α |
          | HOMO-LUMO GAP               1.765760845090 eV   |
           -------------------------------------------------

 * finished run on 2025/07/19 at 17:12:23.301
