   * xtb version 6.7.1 (edcfbbe) compiled by 'albert@albert-system' on 2024-07-22

   ID    Z sym.   atoms
    1    7 N      1, 9, 37, 44
    2    6 C      2-8, 10-36, 38-43, 45-70
    3    1 H      71-116

          program call               : xtb data2507/gas/2BTPA-INN/2BTPA-INN_gas_S0_finalOpt.xtbopt.xyz --gfn 2 --spinpol --tblite --uhf 2 --ohess vtight --parallel 40 --molden --ceasefiles --namespace data2507/gas/2BTPA-INN/2BTPA-INN_gas_T1_preOpt
 * total energy  :  -176.3586586 Eh     change        0.3764490E-07 Eh
 * total energy  :  -176.3619135 Eh     change       -0.3254814E-02 Eh
 * total energy  :  -176.3628035 Eh     change       -0.8900008E-03 Eh
 * total energy  :  -176.3629223 Eh     change       -0.1188429E-03 Eh
 * total energy  :  -176.3630542 Eh     change       -0.1319077E-03 Eh
 * total energy  :  -176.3631046 Eh     change       -0.5037963E-04 Eh
 * total energy  :  -176.3631482 Eh     change       -0.4362624E-04 Eh
 * total energy  :  -176.3631698 Eh     change       -0.2154776E-04 Eh
 * total energy  :  -176.3631945 Eh     change       -0.2468574E-04 Eh
 * total energy  :  -176.3632125 Eh     change       -0.1803008E-04 Eh
 * total energy  :  -176.3638940 Eh     change       -0.4863696E-06 Eh
 * total energy  :  -176.3638945 Eh     change       -0.5164741E-06 Eh
 * total energy  :  -176.3638945 Eh     change        0.2672564E-07 Eh
 * total energy  :  -176.3638945 Eh     change        0.3102343E-08 Eh
 * total energy  :  -176.3638946 Eh     change       -0.1539848E-06 Eh
 * total energy  :  -176.3638950 Eh     change       -0.3392402E-06 Eh
 * total energy  :  -176.3638942 Eh     change        0.7053705E-06 Eh
 * total energy  :  -176.3638950 Eh     change       -0.7727456E-06 Eh
 * total energy  :  -176.3638951 Eh     change       -0.3772234E-07 Eh
   *** GEOMETRY OPTIMIZATION CONVERGED AFTER 158 ITERATIONS ***

 final structure:
================
116
 xtb: 6.7.1 (edcfbbe)
N            0.01909731134669        0.22604524130293       -1.00156700966051
C           -0.00238439381256       -0.91219702109364       -0.77319100272551
C           -0.02320422642182       -2.25757708147216       -0.46853505240839
C           -1.27015560967815       -2.98289092627112       -0.41641444404590
C           -2.54151908481132       -2.30241092442817       -0.30162475592780
C           -2.66559850200702       -1.12684243101438        0.45589704486268
C           -3.85986447399443       -0.45530229488461        0.53634958527074
C           -4.99153848279400       -0.93433074144011       -0.13452789506075
N           -6.19873098179386       -0.23688169171603       -0.07675747452498
C           -7.40513290076203       -0.93527797897353       -0.03629170701947
C           -7.50275610836942       -2.14166536047842        0.66149536902223
C           -8.69193131991852       -2.83612971064643        0.69103492278551
C           -9.82627651548450       -2.35217686679672        0.03786377575743
C          -11.09179669024599       -3.09375504083019        0.07541055417642
C          -11.10459438861978       -4.48432840365710       -0.02194399802827
C          -12.29720497202418       -5.18178405613280        0.01034550062239
C          -13.49764884641232       -4.50442872060503        0.14614673977170
C          -13.49739895460874       -3.12305026654818        0.24665472004990
C          -12.30648004085359       -2.42295549013883        0.20888359322152
C           -9.72323438828090       -1.14384252556032       -0.65263220243957
C           -8.53554596324417       -0.44730070499019       -0.69635852226912
C           -6.19375304779250        1.15915154370953       -0.07079576835821
C           -7.13711609339893        1.87083167379030        0.67376527797467
C           -7.12831033137770        3.24864586288838        0.67496294106191
C           -6.17639897519333        3.96403325906123       -0.05238940453521
C           -6.16569791379039        5.43132962739088       -0.04189879047167
C           -7.35794740885545        6.15273617083723       -0.07694648820852
C           -7.34553039072098        7.53468085639759       -0.07021293579654
C           -6.14331882136390        8.22071832555434       -0.02245813255116
C           -4.95237189551591        7.51462248819151        0.01552382052702
C           -4.96178592134768        6.13273106430627        0.00302167792327
C           -5.23318074455598        3.24583535066392       -0.78889614593518
C           -5.24064341987229        1.86861541074046       -0.80541790713894
C           -4.88661403339325       -2.12183448821232       -0.86928552072357
C           -3.68974183861970       -2.79004573659987       -0.94624927534366
C           -1.19880999269608       -4.36130545676757       -0.45050065721320
N           -0.05553708335523       -5.03559782381763       -0.45165340481978
C            1.10461267216647       -4.38715300572216       -0.44265183736980
C            1.20429549021265       -3.01172761062606       -0.40572367142511
C            2.49060578687951       -2.35820147367948       -0.28136107003506
C            3.62584457643976       -2.85522417068916       -0.93938614444634
C            4.83669219590311       -2.21312251971348       -0.85103058831085
C            4.96798388057725       -1.04635869964763       -0.08845099476556
N            6.18989699533321       -0.37676032144044       -0.01577373756111
C            7.38252788855403       -1.10017228852486       -0.00645523027140
C            8.51674222170081       -0.61392332650613       -0.66099666622702
C            9.69081464084230       -1.33452014895314       -0.64964713585962
C            9.77562596812927       -2.56552386690665        0.00202438850599
C           11.02611200303500       -3.33326457819736        0.00348375864559
C           12.25547076944440       -2.69174511698735        0.14580545797636
C           13.43212682955098       -3.41656617945203        0.14859348670434
C           13.40309078021651       -4.79368128882387        0.00371507106406
C           12.18775863343625       -5.44197119348656       -0.14110746619380
C           11.00942592560414       -4.71990962548009       -0.13852500182227
C            8.63785025003769       -3.04685456292939        0.65097804968850
C            7.46238912558008       -2.32862707205582        0.65378590234860
C            6.21576283654888        1.01842075116535        0.03798808914927
C            7.17573628540777        1.68203158958541        0.80511765995062
C            7.19723308745754        3.05883276774916        0.85567919793181
C            6.26015037180483        3.82031729745282        0.15660142612219
C            6.28061744029207        5.28619835936847        0.22154920050718
C            7.48777632931445        5.98306243227535        0.21021134419706
C            7.50464360164842        7.36372260232924        0.26943188506374
C            6.31734292299582        8.07260705621300        0.34695095746068
C            5.11179568847009        7.39085560257100        0.36162614159788
C            5.09193536100903        6.01053395030095        0.29659754731812
C            5.30108147793449        3.14990398449459       -0.60394841478873
C            5.27830776085096        1.77421648489681       -0.66980174440899
C            3.84795654064368       -0.55936154794591        0.59565841177293
C            2.63902750283920       -1.20293247357606        0.50079751796715
H           -1.81054231263359       -0.75003302095412        0.99521579986399
H           -3.93660609000380        0.44443880243250        1.12896906559952
H           -6.63958178638892       -2.51819256378018        1.19037295285190
H           -8.75425767706925       -3.75466011109524        1.25541252854010
H          -10.17361559054354       -5.01796581586888       -0.14677661881832
H          -12.29139231836356       -6.25891808724072       -0.07307857345843
H          -14.42893714325045       -5.05045797566641        0.17341025037274
H          -14.43035539743302       -2.58951998344850        0.35722587569456
H          -12.31274254625177       -1.34700301365792        0.30638683989929
H          -10.57958043602500       -0.76327572562467       -1.18934639523618
H           -8.46644882488890        0.47403126529443       -1.25592386738313
H           -7.86547667983996        1.33213800543617        1.26233822026256
H           -7.85064767312157        3.78155661436309        1.27545559090665
H           -8.29882844540831        5.62459409502745       -0.13314846142244
H           -8.27759730859646        8.08008465649339       -0.10479902397247
H           -6.13478599751807        9.30062044832522       -0.01509180796882
H           -4.01169591162137        8.04427309591474        0.05703121959431
H           -4.03001556705736        5.58852262755425        0.05092918932170
H           -4.50204479416955        3.77613215468177       -1.38016660275717
H           -4.51412043086438        1.32972885334967       -1.39506318672982
H           -5.75059896562305       -2.49231455944412       -1.40202999367992
H           -3.61977473970850       -3.68240543732570       -1.55005541697523
H           -2.09356806560812       -4.96548903630310       -0.39686097977838
H            1.98551047218731       -5.01094842863990       -0.38576123471667
H            3.53550836329501       -3.73294530886823       -1.56175848872676
H            5.69129103162561       -2.58902234450217       -1.39491313780112
H            8.46121147890079        0.32578012962182       -1.19072574082415
H           10.54997204149324       -0.95417308412564       -1.18199765055646
H           12.28471515275329       -1.61983767697631        0.27764149750785
H           14.37686237737586       -2.90579862005277        0.26640107211022
H           14.32322733965087       -5.35895967403035        0.00358941896093
H           12.15905470234433       -6.51550711784445       -0.25902916229334
H           10.06651459275261       -5.23032575812019       -0.27071338899959
H            8.68684044446703       -3.98341425395652        1.18630434386240
H            6.59657281983752       -2.70442135560466        1.17886057989189
H            7.89308127167019        1.10670533054726        1.37216369921757
H            7.93191637475759        3.55396490477649        1.47328582649903
H            8.41711152753527        5.43766836922628        0.13126754343507
H            8.44797108651899        7.89027936948332        0.25275771216826
H            6.33169127085190        9.15138485000885        0.39543001452414
H            4.18264277663725        7.93825422114473        0.42609432375951
H            4.14898422806755        5.48459432381499        0.32662335272865
H            4.58113711830863        3.71696805481462       -1.17447681013912
H            4.53943438436356        1.27283967704758       -1.27694212713142
H            3.94429651726249        0.32431187318108        1.20914808969039
H            1.79190465975761       -0.82000997569555        1.04845032554154

 projected vibrational frequencies (cm⁻¹)
eigval :       -0.00    -0.00    -0.00    -0.00     0.00     0.00
eigval :        3.68     4.80     6.24    12.46    16.09    17.28
eigval :       19.02    22.55    27.57    27.95    28.60    35.47
eigval :       37.92    45.12    55.26    59.51    62.39    69.43
eigval :       72.13    75.93    82.95    83.35    87.61    91.58
eigval :       96.82   100.62   105.32   107.91   113.63   114.66
eigval :      125.03   134.34   149.33   160.94   184.75   190.28
eigval :      190.96   193.55   201.46   217.99   219.51   241.12
eigval :      246.62   251.66   264.30   265.08   310.94   317.19
eigval :      318.58   320.50   324.31   343.95   348.93   355.95
eigval :      370.33   370.53   370.81   370.90   374.71   380.54
eigval :      382.76   383.01   383.57   384.08   388.36   389.10
eigval :      403.36   406.58   420.99   421.90   428.95   429.23
eigval :      430.59   436.31   440.48   461.73   479.89   482.53
eigval :      482.83   495.70   500.87   504.23   518.19   520.38
eigval :      533.33   536.21   536.40   542.43   576.16   583.13
eigval :      586.90   588.53   588.57   588.64   588.67   591.79
eigval :      600.84   603.10   608.67   608.77   609.87   611.68
eigval :      621.02   634.22   654.49   664.90   664.99   665.12
eigval :      666.18   677.50   678.56   681.84   685.22   685.36
eigval :      688.10   698.07   736.56   736.74   756.40   756.50
eigval :      756.66   756.96   761.23   763.24   772.63   801.91
eigval :      806.31   813.17   819.63   820.09   822.59   823.06
eigval :      823.52   836.00   851.17   855.69   866.04   866.38
eigval :      867.57   868.52   877.05   877.15   877.44   877.74
eigval :      900.13   900.20   900.68   900.73   910.70   912.91
eigval :      913.79   915.15   916.11   916.24   917.83   918.01
eigval :      918.83   919.07   921.87   922.47   925.64   925.80
eigval :      926.62   927.01   931.51   931.57   931.98   932.00
eigval :      932.02   932.06   932.55   932.61   963.64   965.17
eigval :      971.37   971.45   986.08   998.70  1008.31  1016.23
eigval :     1016.75  1016.94  1040.27  1054.25  1074.60  1075.16
eigval :     1075.25  1075.39  1087.53  1087.57  1087.60  1087.64
eigval :     1119.24  1122.23  1122.26  1122.35  1122.38  1132.13
eigval :     1142.84  1143.07  1144.63  1144.73  1145.50  1147.98
eigval :     1180.80  1182.51  1182.54  1182.56  1182.61  1185.36
eigval :     1192.06  1192.20  1193.19  1199.23  1201.38  1203.09
eigval :     1203.23  1205.71  1219.10  1222.91  1240.03  1260.99
eigval :     1267.22  1267.65  1270.11  1270.70  1270.96  1271.17
eigval :     1281.99  1282.01  1282.11  1282.12  1283.89  1283.99
eigval :     1289.72  1290.16  1308.80  1313.20  1314.07  1314.17
eigval :     1319.51  1319.53  1319.71  1319.97  1322.29  1322.63
eigval :     1326.52  1327.17  1327.90  1332.31  1337.05  1347.60
eigval :     1362.22  1398.87  1404.41  1404.72  1411.38  1411.87
eigval :     1424.92  1428.23  1434.51  1434.67  1436.00  1436.01
eigval :     1459.91  1460.15  1460.66  1460.89  1471.38  1476.83
eigval :     1488.27  1495.25  1495.49  1495.80  1496.40  1506.38
eigval :     1510.47  1543.80  1544.59  1549.59  1550.30  1556.81
eigval :     1572.31  1573.43  1577.78  1579.87  1579.99  1580.15
eigval :     1580.21  1580.38  1584.30  1600.48  1600.60  1601.30
eigval :     1601.49  2225.34  3061.47  3062.39  3071.38  3071.40
eigval :     3072.17  3072.19  3073.37  3073.38  3074.21  3074.26
eigval :     3076.60  3076.91  3078.31  3078.34  3080.35  3080.37
eigval :     3081.10  3081.13  3081.95  3081.98  3083.01  3083.04
eigval :     3083.42  3083.72  3085.80  3085.87  3085.93  3085.96
eigval :     3087.99  3088.07  3090.67  3090.73  3091.20  3091.53
eigval :     3092.34  3092.39  3092.99  3093.01  3093.05  3093.23
eigval :     3093.54  3093.88  3097.94  3098.09  3101.85  3103.30

   temp. (K)  partition function   enthalpy   heat capacity  entropy
                                   cal/mol     cal/K/mol   cal/K/mol   J/K/mol
 298.15  VIB  0.257E+31            34817.132    212.505    223.222
         ROT  0.503E+09              888.752      2.981     42.799
         INT  0.129E+40            35705.884    215.486    266.021
         TR   0.259E+29             1481.254      4.968     46.230
         TOT                       37187.1380   220.4544   312.2508  1306.4576

       T/K    H(0)-H(T)+PV         H(T)/Eh          T*S/Eh         G(T)/Eh
   ------------------------------------------------------------------------
    298.15    0.592615E-01    0.953481E+00    0.148360E+00    0.805121E+00
   ------------------------------------------------------------------------

         :::::::::::::::::::::::::::::::::::::::::::::::::::::
         ::                  THERMODYNAMIC                  ::
         :::::::::::::::::::::::::::::::::::::::::::::::::::::
         :: total free energy        -175.558774380738 Eh   ::
         ::.................................................::
         :: total energy             -176.363894990600 Eh   ::
         :: zero point energy           0.894219587719 Eh   ::
         :: G(RRHO) w/o ZPVE           -0.089098977856 Eh   ::
         :: G(RRHO) contrib.            0.805120609863 Eh   ::
         :::::::::::::::::::::::::::::::::::::::::::::::::::::

           -------------------------------------------------
          | TOTAL ENERGY             -176.363894990600 Eh   |
          | TOTAL ENTHALPY           -175.410413926402 Eh   |
          | TOTAL FREE ENERGY        -175.558774380738 Eh   |
          | GRADIENT NORM               0.000135745719 Eh/α |
           -------------------------------------------------

 * finished run on 2025/07/19 at 17:34:57.097
