   * xtb version 6.7.1 (edcfbbe) compiled by 'albert@albert-system' on 2024-07-22

   ID    Z sym.   atoms
    1    6 C      1, 2, 4-9, 11-13, 17-27, 29, 30, 32-39, 43-52
    2    7 N      3, 10, 28, 31
    3   16 S      14, 40
    4    8 O      15, 16, 41, 42
    5    1 H      53-94

          program call               : xtb data2507/toluene/2Mi2SB/2Mi2SB_toluene_T1_crest.xyz --gfn 2 --uhf 2 --gbsa toluene --ohess vtight --parallel 40 --molden --ceasefiles --namespace data2507/toluene/2Mi2SB/2Mi2SB_toluene_T1_finalOpt
      * Solvation model:               GBSA
        Solvent                        toluene
        Solvent mass                       9.2140E+01 g/mol
          :  Hamiltonian                  GFN2-xTB          :
 * total energy  :  -145.8334762 Eh     change       -0.5572218E-08 Eh
 * total energy  :  -145.8338579 Eh     change       -0.3817415E-03 Eh
 * total energy  :  -145.8341620 Eh     change       -0.3040263E-03 Eh
 * total energy  :  -145.8342718 Eh     change       -0.1098026E-03 Eh
 * total energy  :  -145.8344159 Eh     change       -0.1441336E-03 Eh
 * total energy  :  -145.8345392 Eh     change       -0.1232935E-03 Eh
 * total energy  :  -145.8346471 Eh     change       -0.1078742E-03 Eh
 * total energy  :  -145.8347389 Eh     change       -0.9181917E-04 Eh
 * total energy  :  -145.8348141 Eh     change       -0.7523985E-04 Eh
 * total energy  :  -145.8348787 Eh     change       -0.6453703E-04 Eh
 * total energy  :  -145.8356918 Eh     change       -0.1056305E-05 Eh
 * total energy  :  -145.8356926 Eh     change       -0.8649762E-06 Eh
 * total energy  :  -145.8356934 Eh     change       -0.8244236E-06 Eh
 * total energy  :  -145.8356942 Eh     change       -0.7503393E-06 Eh
 * total energy  :  -145.8356951 Eh     change       -0.8692245E-06 Eh
 * total energy  :  -145.8356960 Eh     change       -0.9172872E-06 Eh
 * total energy  :  -145.8356969 Eh     change       -0.8783903E-06 Eh
 * total energy  :  -145.8356976 Eh     change       -0.7660872E-06 Eh
 * total energy  :  -145.8356976 Eh     change       -0.1376452E-07 Eh
   *** GEOMETRY OPTIMIZATION CONVERGED AFTER 152 ITERATIONS ***

 final structure:
================
94
 xtb: 6.7.1 (edcfbbe)
C            2.48242879960099        3.59768230671995       -2.05758857780816
C            3.33287190162530        3.10816071858978       -0.95492367396172
N            4.44276407766643        3.64246781014749       -0.56676343947400
C            4.88079558772217        2.90954126460107        0.51372127239824
C            6.03312313078327        3.02135792917022        1.27010703734838
C            6.20934365783986        2.12012695560414        2.31316041514367
C            5.27261344177368        1.12539310777906        2.58969158986536
C            4.11540855134618        0.99418505033074        1.84262764429489
C            3.92757348396998        1.89990813253861        0.80505777938330
N            2.95405025097711        2.02452531532793       -0.15342368318581
C            1.79315417722027        1.28906277529321       -0.25702262111533
C            1.00916460334959        1.04344926589863        0.85211194950143
C           -0.19317984887404        0.35275742518535        0.76865641599145
S           -1.25535738593199        0.41112472234795        2.19927286976291
O           -0.80357488919058        1.52245795507420        3.01226625811351
O           -1.24432945068816       -0.88194119128834        2.86120756185537
C           -2.92137510855104        0.74819579936163        1.64325056823157
C           -3.17965321049881        1.94531318649917        1.00582908954296
C           -4.47281478431374        2.24102725223729        0.61338244658776
C           -5.52163926118198        1.35281909931897        0.84924232038325
C           -6.95823396292144        1.71066190520364        0.50423870022412
C           -7.59088977303146        2.31280647497388        1.76953798362196
C           -7.75325892704415        0.46843702284630        0.08099829372969
C           -7.03286946451738        2.73649594706482       -0.63258770245694
C           -5.22536695614633        0.15013571144560        1.48892008690374
C           -3.93613273435477       -0.15646001976119        1.88393627839662
C           -0.66351881264376       -0.07677029234695       -0.51771698031679
N           -1.89261250165634       -0.71154983623998       -0.66567343972897
C           -2.24332700194444       -1.99183147507187       -0.24781582053006
C           -1.31495399246218       -2.84141385849665        0.52147203081605
N           -3.41242726773035       -2.34444978130457       -0.67703368198941
C           -3.90040768075429       -1.29625063136730       -1.42075074291116
C           -5.10031028957460       -1.14465705730073       -2.09495614434128
C           -5.29501118156195        0.03193368183479       -2.80382369060484
C           -4.33024960294809        1.03632805212346       -2.83713885458597
C           -3.12759213421265        0.90592687317678       -2.16505283155638
C           -2.92847959150549       -0.26911190629069       -1.45807272386948
C            0.11384786142544        0.15908198257312       -1.62683590673561
C            1.37204626254466        0.77677680630608       -1.54763395390955
S            2.63022270697218       -0.02320928899507       -2.53640251011565
O            3.83467374672125        0.78029165929982       -2.56448330585653
O            2.03974151216825       -0.35386454666326       -3.81790892169786
C            2.94479145845143       -1.51035437189210       -1.59852901092205
C            2.08501076919060       -2.58707954931800       -1.70599235991388
C            2.21988854269934       -3.65893615925284       -0.84003207886134
C            3.19678940721773       -3.66553367810129        0.15393894758396
C            3.36363806553042       -4.81263308169757        1.13782890241742
C            2.34798138123829       -5.93680521848928        0.91474935088539
C            3.17821003971949       -4.27227872463851        2.56443904537004
C            4.77377877480605       -5.40206297740418        0.98279908033105
C            4.05007025524992       -2.56344507491121        0.23689948906514
C            3.92638224898918       -1.49067522176490       -0.62359496389348
H            2.42213212460875        2.83692058446078       -2.83629615579008
H            1.47455630255378        3.80385666897081       -1.69900251205654
H            2.92334218789723        4.50162186550975       -2.46698051294684
H            6.76801686676186        3.77671564652437        1.04374695283381
H            7.09762191428780        2.18766156259564        2.92250575498631
H            5.45287051642181        0.44300905820879        3.40577816403280
H            3.39019316166007        0.22395812954229        2.05412746927023
H            1.26444922122448        1.48277998056759        1.80506598640467
H           -2.36999524662124        2.63995316326316        0.84079071820866
H           -4.65465705869099        3.18360665491004        0.12587817660237
H           -8.62551154059552        2.58492218106911        1.57407469253156
H           -7.56829759148487        1.59716284382686        2.58812276692284
H           -7.05011071298161        3.20378644535688        2.08137143106264
H           -7.93256211213161       -0.19904691492468        0.91874534221811
H           -7.21861081021131       -0.07438323549733       -0.69361404321827
H           -8.72226800390207        0.76934015266619       -0.30996136723329
H           -8.06787228997274        2.86384387812682       -0.94098310768279
H           -6.66465808428985        3.70912485098272       -0.31807756660718
H           -6.45637609533712        2.39506144507182       -1.48807856047377
H           -6.00362191318009       -0.56501014326059        1.69558181782275
H           -3.70431205381238       -1.08234275434851        2.38716116604044
H           -0.33813239252028       -2.86285613827426        0.03867102578144
H           -1.18463690221704       -2.43526227384340        1.52565128046156
H           -1.72411842051346       -3.84476165144214        0.58721627604941
H           -5.84812633718600       -1.92068417259123       -2.06441917461483
H           -6.21627619350696        0.17241121401645       -3.34882938944963
H           -4.51847334488415        1.93167659386335       -3.40943669937378
H           -2.36726339106354        1.66989741312977       -2.20649449220682
H           -0.19438075138403       -0.21737928968926       -2.59084788160781
H            1.33123091699364       -2.57975581680654       -2.47845832512812
H            1.54728296874422       -4.49293740643138       -0.95182755237138
H            1.33058543409403       -5.57812629399262        1.04771457221080
H            2.52167292595703       -6.72661242494261        1.64234799595570
H            2.45206126934406       -6.36849205052560       -0.07777211890909
H            3.93185908291565       -3.52941754844899        2.80930408301280
H            3.25835485226448       -5.08619391172109        3.28131989396825
H            2.19707101656987       -3.81381872023409        2.67261862010848
H            4.91982776052714       -5.76671484211019       -0.03180087894858
H            5.54104331553423       -4.66260610895643        1.19288432604257
H            4.90467923215124       -6.23382971820555        1.67108907946685
H            4.82655314627738       -2.53342058248307        0.98462704929134
H            4.58912579846554       -0.64066083703793       -0.56652072481925

          :  Hamiltonian                  GFN2-xTB          :
         :: gradient norm              0.000078656718 Eh/a0 ::
         :: HOMO-LUMO gap              0.898611328360 eV    ::
         :: SCC energy              -148.059648937579 Eh    ::
         :: -> dispersion             -0.146615247534 Eh    ::
         :: -> Gsolv                  -0.065201025252 Eh    ::
         :: repulsion energy           2.223951295064 Eh    ::

    * Orbital Energies and Occupations

         #    Occupation            Energy/Eh            Energy/eV
      -------------------------------------------------------------
         1        2.0000           -0.7803177             -21.2335
       ...           ...                  ...                  ...
       122        2.0000           -0.4251742             -11.5696
       123        2.0000           -0.4246349             -11.5549
       124        2.0000           -0.4188126             -11.3965
       125        2.0000           -0.4165883             -11.3359
       126        2.0000           -0.4147864             -11.2869
       127        2.0000           -0.4139766             -11.2649
       128        2.0000           -0.4095339             -11.1440
       129        1.9999           -0.4074292             -11.0867
       130        1.9997           -0.4064193             -11.0592
       131        1.9989           -0.4050792             -11.0228
       132        1.9913           -0.4030707             -10.9681
       133        1.0101           -0.3942222             -10.7273
       134        1.0000           -0.3032712              -8.2524 (HOMO)
       135                         -0.2702477              -7.3538 (LUMO)
       136                         -0.2613261              -7.1110
       137                         -0.2577802              -7.0146
       138                         -0.2564103              -6.9773
       139                         -0.2511318              -6.8336
       140                         -0.2447792              -6.6608
       141                         -0.2429289              -6.6104
       142                         -0.2308871              -6.2828
       143                         -0.2259599              -6.1487
       144                         -0.2024712              -5.5095
       145                         -0.1964272              -5.3451
       ...                                ...                  ...
       260                          1.1677801              31.7769
      -------------------------------------------------------------
                  HL-Gap            0.0330234 Eh            0.8986 eV

     #   Z          covCN         q      C6AA      α(0)
     1   6 C        3.755    -0.128    23.019     6.841
     2   6 C        3.146     0.161    24.288     8.063
     3   7 N        1.883    -0.268    27.809     7.817
     4   6 C        3.182     0.074    25.935     8.313
     5   6 C        2.909    -0.035    28.861     8.809
     6   6 C        2.922    -0.024    28.610     8.771
     7   6 C        2.923    -0.033    28.812     8.802
     8   6 C        2.907    -0.038    28.944     8.822
     9   6 C        3.070     0.036    27.116     8.538
    10   7 N        2.826    -0.014    21.530     6.891
    11   6 C        2.938     0.045    26.982     8.519
    12   6 C        2.969    -0.040    28.980     8.830
    13   6 C        2.958    -0.131    31.337     9.182
    14  16 S        3.818     0.958   107.855    17.479
    15   8 O        0.860    -0.592    25.925     6.827
    16   8 O        0.860    -0.589    25.849     6.817
    17   6 C        2.972    -0.082    30.051     8.992
    18   6 C        2.960    -0.033    28.812     8.804
    19   6 C        2.928    -0.033    28.817     8.804
    20   6 C        2.974     0.023    27.487     8.600
    21   6 C        3.902     0.028    20.054     6.365
    22   6 C        3.763    -0.109    22.630     6.781
    23   6 C        3.760    -0.117    22.786     6.805
    24   6 C        3.760    -0.118    22.799     6.807
    25   6 C        2.928    -0.031    28.774     8.797
    26   6 C        2.951    -0.027    28.687     8.785
    27   6 C        2.919     0.051    26.845     8.497
    28   7 N        2.828    -0.047    22.139     6.988
    29   6 C        3.143     0.148    24.554     8.108
    30   6 C        3.755    -0.138    23.217     6.870
    31   7 N        1.888    -0.267    27.789     7.815
    32   6 C        3.177     0.067    26.102     8.342
    33   6 C        2.910    -0.036    28.893     8.814
    34   6 C        2.923    -0.028    28.709     8.787
    35   6 C        2.925    -0.032    28.805     8.802
    36   6 C        2.908    -0.041    29.015     8.832
    37   6 C        3.078     0.032    27.212     8.553
    38   6 C        2.987    -0.048    29.195     8.863
    39   6 C        2.953    -0.143    31.669     9.230
    40  16 S        3.853     0.944   108.283    17.514
    41   8 O        0.860    -0.575    25.514     6.772
    42   8 O        0.860    -0.582    25.670     6.793
    43   6 C        2.971    -0.089    30.224     9.018
    44   6 C        2.954    -0.036    28.884     8.815
    45   6 C        2.926    -0.037    28.915     8.818
    46   6 C        2.973     0.019    27.577     8.614
    47   6 C        3.902     0.028    20.049     6.365
    48   6 C        3.761    -0.116    22.766     6.802
    49   6 C        3.761    -0.111    22.675     6.788
    50   6 C        3.761    -0.111    22.668     6.787
    51   6 C        2.928    -0.031    28.771     8.796
    52   6 C        2.959    -0.033    28.825     8.806
    53   1 H        0.924     0.078     1.996     2.209
    54   1 H        0.925     0.073     2.051     2.240
    55   1 H        0.925     0.088     1.895     2.153
    56   1 H        0.926     0.066     2.132     2.283
    57   1 H        0.926     0.064     2.153     2.294
    58   1 H        0.926     0.061     2.192     2.315
    59   1 H        0.926     0.050     2.317     2.380
    60   1 H        0.926     0.071     2.072     2.251
    61   1 H        0.926     0.042     2.422     2.434
    62   1 H        0.926     0.069     2.097     2.264
    63   1 H        0.925     0.053     2.286     2.364
    64   1 H        0.925     0.039     2.462     2.454
    65   1 H        0.925     0.038     2.476     2.461
    66   1 H        0.925     0.043     2.411     2.428
    67   1 H        0.925     0.043     2.407     2.426
    68   1 H        0.925     0.050     2.321     2.382
    69   1 H        0.925     0.050     2.326     2.385
    70   1 H        0.925     0.043     2.415     2.430
    71   1 H        0.925     0.044     2.393     2.419
    72   1 H        0.926     0.067     2.114     2.273
    73   1 H        0.926     0.052     2.291     2.367
    74   1 H        0.925     0.066     2.127     2.281
    75   1 H        0.924     0.094     1.841     2.122
    76   1 H        0.925     0.085     1.930     2.173
    77   1 H        0.926     0.064     2.150     2.293
    78   1 H        0.926     0.062     2.172     2.305
    79   1 H        0.926     0.058     2.222     2.331
    80   1 H        0.926     0.047     2.360     2.402
    81   1 H        0.926     0.068     2.105     2.269
    82   1 H        0.926     0.043     2.407     2.426
    83   1 H        0.926     0.067     2.117     2.275
    84   1 H        0.925     0.042     2.416     2.431
    85   1 H        0.925     0.048     2.349     2.397
    86   1 H        0.925     0.042     2.418     2.432
    87   1 H        0.925     0.041     2.432     2.439
    88   1 H        0.925     0.050     2.326     2.385
    89   1 H        0.925     0.036     2.504     2.475
    90   1 H        0.925     0.038     2.475     2.460
    91   1 H        0.925     0.042     2.428     2.436
    92   1 H        0.925     0.049     2.329     2.387
    93   1 H        0.926     0.059     2.212     2.326
    94   1 H        0.926     0.041     2.438     2.441

molecular dipole:
                 x           y           z       tot (Debye)
 q only:       -2.549      -0.605       0.473
   full:       -2.280      -0.560       0.570       6.142

 projected vibrational frequencies (cm⁻¹)
eigval :       -0.00    -0.00    -0.00    -0.00     0.00     0.00
eigval :        6.90     8.49    11.75    20.56    26.75    30.36
eigval :       33.66    35.45    38.67    50.48    58.00    63.56
eigval :       65.97    67.93    71.27    75.98    86.30    93.41
eigval :      104.66   109.54   116.76   126.63   132.94   145.44
eigval :      150.90   153.45   168.87   173.37   178.29   190.71
eigval :      196.40   203.47   208.09   219.45   223.05   223.49
eigval :      228.86   235.62   242.71   244.84   245.78   254.83
eigval :      269.29   275.39   284.20   290.09   299.92   307.34
eigval :      315.20   315.32   318.55   322.95   326.07   337.94
eigval :      352.45   360.58   362.32   368.57   376.67   380.86
eigval :      384.57   389.54   395.31   403.37   405.41   419.18
eigval :      422.35   457.62   459.24   465.15   475.02   480.37
eigval :      481.41   489.09   494.71   503.43   507.75   523.96
eigval :      527.55   534.44   538.06   547.02   558.99   586.18
eigval :      589.12   596.95   598.95   599.39   601.60   610.01
eigval :      612.44   620.00   640.63   657.34   677.37   678.86
eigval :      684.98   686.94   702.91   705.11   749.65   753.23
eigval :      768.77   771.16   787.79   805.75   810.85   833.97
eigval :      846.02   853.27   860.90   864.08   866.23   868.47
eigval :      872.34   881.10   881.34   900.52   900.78   908.17
eigval :      909.71   915.05   917.70   919.48   922.26   927.24
eigval :      934.82   958.39   959.74   961.63   962.36   963.00
eigval :      965.38   967.71   986.15   988.62   996.31  1013.31
eigval :     1019.08  1024.31  1029.91  1031.09  1034.37  1035.48
eigval :     1039.59  1041.76  1051.24  1052.00  1059.03  1065.56
eigval :     1094.05  1108.30  1112.51  1116.54  1131.62  1133.21
eigval :     1135.99  1137.10  1153.05  1163.10  1170.84  1174.58
eigval :     1180.74  1181.70  1186.07  1194.12  1195.59  1210.77
eigval :     1222.26  1224.03  1230.80  1230.93  1233.92  1239.88
eigval :     1252.83  1260.24  1260.47  1261.18  1271.86  1280.52
eigval :     1282.52  1283.06  1302.62  1316.20  1323.83  1324.10
eigval :     1332.24  1345.98  1377.95  1379.58  1382.87  1386.90
eigval :     1387.90  1391.91  1397.03  1400.06  1400.24  1402.47
eigval :     1402.81  1403.79  1423.62  1426.38  1433.40  1438.49
eigval :     1440.05  1445.37  1448.01  1455.57  1462.05  1462.68
eigval :     1466.07  1480.98  1483.02  1486.79  1487.61  1488.47
eigval :     1490.51  1494.96  1500.90  1504.88  1506.93  1509.42
eigval :     1513.18  1520.63  1536.77  1546.56  1565.07  1568.29
eigval :     1569.74  1574.31  1575.01  1581.56  1608.05  1611.22
eigval :     2998.71  2999.67  3011.54  3012.34  3026.15  3027.65
eigval :     3029.44  3030.53  3031.57  3032.29  3032.37  3035.45
eigval :     3037.07  3039.16  3039.83  3044.07  3045.59  3048.40
eigval :     3048.98  3050.41  3052.39  3052.79  3066.11  3069.81
eigval :     3085.59  3087.91  3088.28  3088.50  3089.87  3090.81
eigval :     3091.78  3093.50  3093.67  3099.73  3102.38  3102.66
eigval :     3104.41  3109.17  3111.86  3120.81  3122.03  3126.83

   temp. (K)  partition function   enthalpy   heat capacity  entropy
                                   cal/mol     cal/K/mol   cal/K/mol   J/K/mol
 298.15  VIB  0.526E+24            29999.921    180.216    188.707
         ROT  0.835E+08              888.752      2.981     39.228
         INT  0.439E+32            30888.673    183.197    227.936
         TR   0.191E+29             1481.254      4.968     45.627
         TOT                       32369.9268   188.1652   273.5621  1144.5838

       T/K    H(0)-H(T)+PV         H(T)/Eh          T*S/Eh         G(T)/Eh
   ------------------------------------------------------------------------
    298.15    0.515848E-01    0.785355E+00    0.129978E+00    0.655377E+00
   ------------------------------------------------------------------------

         :::::::::::::::::::::::::::::::::::::::::::::::::::::
         ::                  THERMODYNAMIC                  ::
         :::::::::::::::::::::::::::::::::::::::::::::::::::::
         :: total free energy        -145.180320858110 Eh   ::
         ::.................................................::
         :: total energy             -145.835697644096 Eh   ::
         :: zero point energy           0.733770197966 Eh   ::
         :: G(RRHO) w/o ZPVE           -0.078393411980 Eh   ::
         :: G(RRHO) contrib.            0.655376785986 Eh   ::
         :::::::::::::::::::::::::::::::::::::::::::::::::::::

           -------------------------------------------------
          | TOTAL ENERGY             -145.835697644096 Eh   |
          | TOTAL ENTHALPY           -145.050342684265 Eh   |
          | TOTAL FREE ENERGY        -145.180320858110 Eh   |
          | GRADIENT NORM               0.000077957639 Eh/α |
          | HOMO-LUMO GAP               0.898613223168 eV   |
           -------------------------------------------------

 * finished run on 2025/09/08 at 00:14:25.299
