   * xtb version 6.7.1 (edcfbbe) compiled by 'albert@albert-system' on 2024-07-22

   ID    Z sym.   atoms
    1    6 C      1, 2, 4-9, 11-13, 17-27, 29, 30, 32-39, 43-52
    2    7 N      3, 10, 28, 31
    3   16 S      14, 40
    4    8 O      15, 16, 41, 42
    5    1 H      53-94

          program call               : xtb data2507/toluene/2Mi2SB/2Mi2SB_toluene_S0_finalOpt.xtbopt.xyz --gfn 2 --uhf 2 --gbsa toluene --ohess vtight --parallel 40 --molden --ceasefiles --namespace data2507/toluene/2Mi2SB/2Mi2SB_toluene_T1_preOpt
      * Solvation model:               GBSA
        Solvent                        toluene
        Solvent mass                       9.2140E+01 g/mol
          :  Hamiltonian                  GFN2-xTB          :
 * total energy  :  -145.8233699 Eh     change        0.4044523E-08 Eh
 * total energy  :  -145.8287993 Eh     change       -0.5429387E-02 Eh
 * total energy  :  -145.8313948 Eh     change       -0.2595551E-02 Eh
 * total energy  :  -145.8317937 Eh     change       -0.3988250E-03 Eh
 * total energy  :  -145.8323411 Eh     change       -0.5474209E-03 Eh
 * total energy  :  -145.8326801 Eh     change       -0.3390507E-03 Eh
 * total energy  :  -145.8331072 Eh     change       -0.4270254E-03 Eh
 * total energy  :  -145.8334381 Eh     change       -0.3309142E-03 Eh
 * total energy  :  -145.8336701 Eh     change       -0.2319948E-03 Eh
 * total energy  :  -145.8338906 Eh     change       -0.2205411E-03 Eh
 * total energy  :  -145.8350743 Eh     change       -0.4968056E-06 Eh
 * total energy  :  -145.8350747 Eh     change       -0.4588715E-06 Eh
 * total energy  :  -145.8350751 Eh     change       -0.3696921E-06 Eh
 * total energy  :  -145.8350755 Eh     change       -0.3737302E-06 Eh
 * total energy  :  -145.8350759 Eh     change       -0.4315109E-06 Eh
 * total energy  :  -145.8350764 Eh     change       -0.4565352E-06 Eh
 * total energy  :  -145.8350768 Eh     change       -0.4440606E-06 Eh
 * total energy  :  -145.8350772 Eh     change       -0.3677584E-06 Eh
 * total energy  :  -145.8350773 Eh     change       -0.9877181E-07 Eh
   *** GEOMETRY OPTIMIZATION CONVERGED AFTER 68 ITERATIONS ***

 final structure:
================
94
 xtb: 6.7.1 (edcfbbe)
C            1.84270283656009        0.27917498175612        3.60457187424717
C            2.71498913762958       -0.46919476634104        2.68091750695851
N            3.82427574420590       -1.05369960450089        3.00210096112828
C            4.26649341450069       -1.72297421959793        1.88595183241020
C            5.39385735227944       -2.49998778974420        1.68511532208333
C            5.55112089595379       -3.09599272782946        0.44024906389692
C            4.62443699912672       -2.91133378862328       -0.58280672124419
C            3.49597204053910       -2.12948158125788       -0.40380959023261
C            3.32711481757530       -1.54392644830323        0.84205571824657
N            2.36163958545834       -0.70402159143272        1.35090522548429
C            1.19105518688115       -0.34829759512306        0.70275061334768
C            0.39209362185762       -1.32738375695711        0.14873414616708
C           -0.78764813573174       -1.04588766000943       -0.53228228635567
S           -1.98740481690151       -2.36338812107367       -0.61902690631609
O           -1.58222739196756       -3.36816328137543        0.34553799778459
O           -2.10433543802266       -2.84169887087995       -1.98625436517799
C           -3.57300153153013       -1.69527419713705       -0.12432353390205
C           -3.71148342371418       -1.18691959475015        1.15188490254193
C           -4.94032568001433       -0.69960708127590        1.56020710835245
C           -6.04323409888340       -0.71192712305100        0.70693810297674
C           -7.41946222757321       -0.26731875243198        1.17541274521774
C           -8.18031033520892       -1.53074104496501        1.60938669515288
C           -8.18965997061724        0.42826057241451        0.04507636619287
C           -7.33634315389523        0.70006438532823        2.36147537906696
C           -5.86642867388712       -1.22205697048317       -0.57860815668863
C           -4.64196020442749       -1.70833325823512       -0.99818052602958
C           -1.19004557333186        0.33996760934019       -0.66312506778898
N           -2.36205580523067        0.69431241538261       -1.31003151475176
C           -2.71098059926859        0.46888166770781       -2.64249080377197
C           -1.83088919392665       -0.26457949052815       -3.57072570804697
N           -3.82439503331711        1.04736951416869       -2.96034712501919
C           -4.27401311561978        1.70274369206805       -1.83900245092692
C           -5.40854818464080        2.46779498522992       -1.63253765111345
C           -5.57185018020799        3.05220974171975       -0.38305150677858
C           -4.64403358023996        2.86776835748508        0.63902569402905
C           -3.50894251499937        2.09681269159314        0.45477349255770
C           -3.33456767560230        1.52240955608894       -0.79539263941053
C           -0.39169490152590        1.31907157989541       -0.10882908057264
C            0.78958397065512        1.03799306039869        0.57051114248566
S            1.99333701797566        2.35349470684572        0.64205640824342
O            2.10961119750155        2.84906659141909        2.00324848733155
O            1.59266616552661        3.34730178816012       -0.33573801846522
C            3.57782893186507        1.67463779434084        0.15810256870641
C            3.71503671800848        1.14506513161243       -1.10951353207167
C            4.94267563495919        0.64785950800850       -1.50980182249726
C            6.04577412987260        0.67252511342259       -0.65718050461436
C            7.42157572361718        0.21648383274586       -1.11580269647087
C            7.34010356367008       -0.75065955738099       -2.30198410587644
C            8.17639697425010       -0.48532922139693        0.02114738835631
C            8.19667219085031        1.47298277174367       -1.54451599882660
C            5.87041774721104        1.20503627714364        0.61954712246170
C            4.64703298750809        1.70024587040065        1.03146942968450
H            1.80914271336224        1.33163970868157        3.31900729251131
H            0.82818996214995       -0.11580254089320        3.56529999764563
H            2.23588249724750        0.19084808657237        4.61261421050884
H            6.11726335538107       -2.63214645825777        2.47347163244913
H            6.41196840581616       -3.72210749608931        0.26039064588740
H            4.78030215855297       -3.39892263003546       -1.53270267326029
H            2.76659473000198       -2.00079949882446       -1.18785321939191
H            0.62882384166521       -2.36730403472905        0.31918781187215
H           -2.86128785861865       -1.19480773081322        1.81728324746225
H           -5.02931759240097       -0.31690903682300        2.56264298772057
H           -9.17746399688673       -1.26468906433074        1.95237886500366
H           -8.27232048085927       -2.22844469408835        0.78038019793475
H           -7.65645938605250       -2.03290619363748        2.41988996841241
H           -8.47757025708793       -0.26983694588761       -0.73537899395745
H           -7.58230497181249        1.21502177173662       -0.39418855592029
H           -9.10083525937777        0.87056874280254        0.44072957866815
H           -8.32729363713264        1.08894908632759        2.58355298892426
H           -6.97256731093236        0.20392289613098        3.25712525822486
H           -6.68288168480315        1.53507085625166        2.12370276803630
H           -6.69066803420135       -1.25475651754977       -1.27120645370693
H           -4.50207202591780       -2.11112671860557       -1.98944925098162
H           -0.81794768114808        0.13313903085160       -3.52036198279085
H           -1.79588878716800       -1.32037812877710       -3.29782389848460
H           -2.21854384044809       -0.16505583911145       -4.57985431387245
H           -6.13271902104771        2.59967080459896       -2.42023571816633
H           -6.43826083213940        3.66929506980515       -0.19878359797433
H           -4.80421630166140        3.34720253810212        1.59235465608597
H           -2.77853134776840        1.96852026036225        1.23793439598139
H           -0.62982921215054        2.35887275877614       -0.27802018160644
H            2.86474855379738        1.14365551158146       -1.77484486616127
H            5.03027392495145        0.24775178638190       -2.50550744561416
H            6.68260452620591       -1.58340423349514       -2.06720573109804
H            8.33066910226667       -1.14320995573049       -2.51931419327843
H            6.98236112672956       -0.25295014773041       -3.19924300307167
H            8.46139690605568        0.20973193485671        0.80530268588062
H            9.08813041324374       -0.93369310190196       -0.36631291919712
H            7.55932054785659       -1.26812291018567        0.45382464215963
H            8.28916513005127        2.17022689376555       -0.71523477952138
H            9.19380255619827        1.19796182357055       -1.88044146691678
H            7.68299948330338        1.97941521076565       -2.35889422357182
H            6.69526146085131        1.24818498898866        1.31092668817683
H            4.50797841081885        2.11939089034164        2.01603944517190

          :  Hamiltonian                  GFN2-xTB          :
         :: gradient norm              0.000087298150 Eh/a0 ::
         :: HOMO-LUMO gap              0.722526953143 eV    ::
         :: SCC energy              -148.057778302635 Eh    ::
         :: -> dispersion             -0.151322212997 Eh    ::
         :: -> Gsolv                  -0.065154820714 Eh    ::
         :: repulsion energy           2.222700965394 Eh    ::

    * Orbital Energies and Occupations

         #    Occupation            Energy/Eh            Energy/eV
      -------------------------------------------------------------
         1        2.0000           -0.7777124             -21.1626
       ...           ...                  ...                  ...
       122        2.0000           -0.4255957             -11.5810
       123        2.0000           -0.4255446             -11.5797
       124        2.0000           -0.4178653             -11.3707
       125        2.0000           -0.4164218             -11.3314
       126        2.0000           -0.4158340             -11.3154
       127        2.0000           -0.4150736             -11.2947
       128        2.0000           -0.4109061             -11.1813
       129        1.9998           -0.4082892             -11.1101
       130        1.9997           -0.4079081             -11.0997
       131        1.9986           -0.4065020             -11.0615
       132        1.9899           -0.4046281             -11.0105
       133        1.0121           -0.3960958             -10.7783
       134        1.0000           -0.2960817              -8.0568 (HOMO)
       135        0.0000           -0.2695292              -7.3343 (LUMO)
       136                         -0.2628921              -7.1537
       137                         -0.2575457              -7.0082
       138                         -0.2567676              -6.9870
       139                         -0.2540918              -6.9142
       140                         -0.2444019              -6.6505
       141                         -0.2442952              -6.6476
       142                         -0.2325249              -6.3273
       143                         -0.2268922              -6.1741
       144                         -0.2038095              -5.5459
       145                         -0.1976520              -5.3784
       ...                                ...                  ...
       260                          1.1588852              31.5349
      -------------------------------------------------------------
                  HL-Gap            0.0265525 Eh            0.7225 eV

     #   Z          covCN         q      C6AA      α(0)
     1   6 C        3.755    -0.138    23.215     6.870
     2   6 C        3.138     0.148    24.576     8.113
     3   7 N        1.887    -0.264    27.703     7.803
     4   6 C        3.174     0.068    26.101     8.344
     5   6 C        2.910    -0.034    28.853     8.808
     6   6 C        2.922    -0.026    28.644     8.777
     7   6 C        2.924    -0.032    28.797     8.800
     8   6 C        2.908    -0.038    28.942     8.821
     9   6 C        3.075     0.032    27.210     8.552
    10   7 N        2.825    -0.037    21.946     6.958
    11   6 C        2.920     0.043    27.029     8.526
    12   6 C        2.972    -0.036    28.900     8.818
    13   6 C        2.954    -0.137    31.509     9.207
    14  16 S        3.819     0.947   108.180    17.506
    15   8 O        0.860    -0.592    25.933     6.828
    16   8 O        0.860    -0.589    25.846     6.816
    17   6 C        2.972    -0.082    30.043     8.991
    18   6 C        2.959    -0.033    28.827     8.806
    19   6 C        2.927    -0.033    28.831     8.806
    20   6 C        2.973     0.022    27.509     8.603
    21   6 C        3.902     0.028    20.055     6.366
    22   6 C        3.763    -0.109    22.630     6.781
    23   6 C        3.760    -0.117    22.786     6.805
    24   6 C        3.760    -0.117    22.796     6.806
    25   6 C        2.928    -0.031    28.786     8.799
    26   6 C        2.951    -0.028    28.696     8.786
    27   6 C        2.920     0.043    27.026     8.525
    28   7 N        2.826    -0.037    21.953     6.959
    29   6 C        3.139     0.148    24.569     8.112
    30   6 C        3.755    -0.138    23.211     6.869
    31   7 N        1.887    -0.264    27.701     7.802
    32   6 C        3.174     0.068    26.101     8.344
    33   6 C        2.910    -0.034    28.854     8.808
    34   6 C        2.922    -0.026    28.647     8.777
    35   6 C        2.924    -0.032    28.797     8.800
    36   6 C        2.908    -0.038    28.946     8.822
    37   6 C        3.075     0.032    27.208     8.552
    38   6 C        2.972    -0.036    28.897     8.818
    39   6 C        2.954    -0.137    31.517     9.208
    40  16 S        3.819     0.947   108.172    17.505
    41   8 O        0.860    -0.589    25.846     6.816
    42   8 O        0.860    -0.593    25.936     6.828
    43   6 C        2.972    -0.082    30.041     8.990
    44   6 C        2.959    -0.033    28.827     8.807
    45   6 C        2.927    -0.033    28.833     8.806
    46   6 C        2.973     0.022    27.508     8.603
    47   6 C        3.902     0.028    20.055     6.366
    48   6 C        3.760    -0.117    22.796     6.806
    49   6 C        3.760    -0.117    22.786     6.805
    50   6 C        3.763    -0.109    22.632     6.781
    51   6 C        2.928    -0.031    28.780     8.798
    52   6 C        2.951    -0.028    28.695     8.786
    53   1 H        0.924     0.097     1.810     2.104
    54   1 H        0.925     0.067     2.123     2.278
    55   1 H        0.925     0.085     1.930     2.172
    56   1 H        0.926     0.068     2.112     2.273
    57   1 H        0.926     0.066     2.133     2.284
    58   1 H        0.926     0.060     2.199     2.319
    59   1 H        0.926     0.049     2.337     2.390
    60   1 H        0.926     0.068     2.109     2.271
    61   1 H        0.926     0.040     2.452     2.449
    62   1 H        0.926     0.068     2.102     2.267
    63   1 H        0.925     0.053     2.286     2.364
    64   1 H        0.925     0.039     2.460     2.453
    65   1 H        0.925     0.038     2.478     2.462
    66   1 H        0.925     0.043     2.410     2.428
    67   1 H        0.925     0.043     2.415     2.430
    68   1 H        0.925     0.050     2.316     2.380
    69   1 H        0.925     0.050     2.324     2.384
    70   1 H        0.925     0.042     2.416     2.431
    71   1 H        0.925     0.044     2.398     2.422
    72   1 H        0.926     0.066     2.128     2.281
    73   1 H        0.926     0.052     2.301     2.372
    74   1 H        0.925     0.066     2.126     2.280
    75   1 H        0.924     0.098     1.808     2.103
    76   1 H        0.925     0.085     1.931     2.173
    77   1 H        0.926     0.067     2.113     2.273
    78   1 H        0.926     0.066     2.133     2.284
    79   1 H        0.926     0.060     2.199     2.319
    80   1 H        0.926     0.049     2.338     2.391
    81   1 H        0.926     0.068     2.113     2.273
    82   1 H        0.926     0.040     2.453     2.449
    83   1 H        0.926     0.069     2.101     2.267
    84   1 H        0.925     0.044     2.399     2.422
    85   1 H        0.925     0.050     2.324     2.384
    86   1 H        0.925     0.042     2.417     2.431
    87   1 H        0.925     0.043     2.409     2.427
    88   1 H        0.925     0.050     2.315     2.379
    89   1 H        0.925     0.042     2.416     2.431
    90   1 H        0.925     0.039     2.458     2.452
    91   1 H        0.925     0.053     2.286     2.364
    92   1 H        0.925     0.038     2.479     2.462
    93   1 H        0.926     0.066     2.129     2.282
    94   1 H        0.926     0.052     2.298     2.371

molecular dipole:
                 x           y           z       tot (Debye)
 q only:       -0.000      -0.025       0.039
   full:       -0.001      -0.024       0.034       0.105

 projected vibrational frequencies (cm⁻¹)
eigval :       -0.00    -0.00     0.00     0.00     0.00     0.00
eigval :        5.25     7.71    12.52    14.39    15.41    24.97
eigval :       32.58    33.34    44.46    53.66    58.84    65.62
eigval :       67.01    70.40    71.28    81.91    83.37    99.22
eigval :      107.00   111.67   117.22   134.28   143.27   153.03
eigval :      160.27   163.57   166.51   174.16   176.48   192.43
eigval :      198.52   201.54   204.40   220.49   225.88   228.99
eigval :      231.06   232.76   240.72   241.76   247.89   250.73
eigval :      273.28   277.83   282.08   285.43   292.78   297.68
eigval :      310.78   314.00   314.76   324.58   331.27   338.44
eigval :      350.91   352.12   361.74   362.36   370.10   373.90
eigval :      388.97   389.02   402.31   404.33   415.67   419.11
eigval :      420.77   457.15   457.44   459.80   477.92   480.47
eigval :      482.26   485.62   498.04   502.29   507.61   526.11
eigval :      528.12   536.58   537.87   550.85   551.12   579.17
eigval :      585.84   593.42   599.31   599.52   602.68   603.81
eigval :      611.46   611.75   636.95   652.00   674.43   676.93
eigval :      685.88   686.03   700.75   701.92   750.47   753.54
eigval :      770.65   771.31   794.29   806.94   807.95   840.10
eigval :      848.01   856.10   858.86   865.25   866.13   867.17
eigval :      868.22   881.36   881.48   901.82   901.98   909.65
eigval :      909.80   910.89   917.68   918.53   923.84   924.59
eigval :      934.58   958.31   958.49   959.65   963.18   963.32
eigval :      963.98   964.21   987.30   988.55  1004.95  1014.75
eigval :     1023.93  1024.88  1029.46  1029.78  1030.82  1032.25
eigval :     1039.14  1039.20  1051.70  1052.31  1055.35  1061.24
eigval :     1089.42  1106.48  1114.78  1114.88  1132.71  1132.76
eigval :     1136.50  1136.64  1154.98  1159.90  1161.70  1167.52
eigval :     1172.75  1175.56  1179.72  1194.93  1195.14  1205.72
eigval :     1222.57  1222.81  1225.74  1232.66  1232.83  1238.99
eigval :     1250.74  1260.60  1260.71  1262.97  1266.76  1270.11
eigval :     1282.61  1282.73  1298.89  1309.69  1323.33  1323.41
eigval :     1339.44  1342.37  1377.95  1384.69  1386.80  1387.38
eigval :     1387.99  1388.14  1395.25  1398.10  1398.25  1402.40
eigval :     1402.70  1408.83  1422.80  1423.03  1434.41  1434.80
eigval :     1441.74  1441.94  1447.91  1454.33  1461.10  1461.19
eigval :     1461.69  1465.97  1482.10  1482.17  1486.23  1486.70
eigval :     1490.43  1491.06  1503.92  1504.33  1506.34  1506.37
eigval :     1519.67  1519.93  1525.01  1528.60  1569.07  1570.61
eigval :     1572.10  1572.28  1579.62  1579.77  1603.44  1604.76
eigval :     3000.51  3000.68  3014.32  3014.50  3028.90  3029.01
eigval :     3030.82  3030.87  3032.09  3032.10  3036.88  3036.97
eigval :     3039.40  3039.58  3045.33  3045.52  3047.75  3047.79
eigval :     3050.04  3050.24  3051.69  3052.11  3069.08  3069.41
eigval :     3085.93  3086.19  3086.89  3087.11  3089.56  3089.58
eigval :     3094.86  3094.97  3098.32  3098.35  3103.85  3104.13
eigval :     3110.59  3110.75  3119.87  3120.53  3125.80  3126.11

   temp. (K)  partition function   enthalpy   heat capacity  entropy
                                   cal/mol     cal/K/mol   cal/K/mol   J/K/mol
 298.15  VIB  0.131E+25            29998.071    180.490    189.216
         ROT  0.837E+08              888.752      2.981     39.233
         INT  0.110E+33            30886.823    183.471    228.449
         TR   0.191E+29             1481.254      4.968     45.627
         TOT                       32368.0769   188.4387   274.0756  1146.7325

       T/K    H(0)-H(T)+PV         H(T)/Eh          T*S/Eh         G(T)/Eh
   ------------------------------------------------------------------------
    298.15    0.515818E-01    0.785071E+00    0.130222E+00    0.654849E+00
   ------------------------------------------------------------------------

         :::::::::::::::::::::::::::::::::::::::::::::::::::::
         ::                  THERMODYNAMIC                  ::
         :::::::::::::::::::::::::::::::::::::::::::::::::::::
         :: total free energy        -145.180228185676 Eh   ::
         ::.................................................::
         :: total energy             -145.835077336849 Eh   ::
         :: zero point energy           0.733489515079 Eh   ::
         :: G(RRHO) w/o ZPVE           -0.078640363905 Eh   ::
         :: G(RRHO) contrib.            0.654849151174 Eh   ::
         :::::::::::::::::::::::::::::::::::::::::::::::::::::

           -------------------------------------------------
          | TOTAL ENERGY             -145.835077336849 Eh   |
          | TOTAL ENTHALPY           -145.050006007868 Eh   |
          | TOTAL FREE ENERGY        -145.180228185676 Eh   |
          | GRADIENT NORM               0.000090212331 Eh/α |
          | HOMO-LUMO GAP               0.722530893178 eV   |
           -------------------------------------------------

 * finished run on 2025/09/07 at 23:57:40.507
