   * xtb version 6.7.1 (edcfbbe) compiled by 'albert@albert-system' on 2024-07-22

   ID    Z sym.   atoms
    1    6 C      1, 2, 4-9, 11-13, 17-27, 29, 30, 32-39, 43-52
    2    7 N      3, 10, 28, 31
    3   16 S      14, 40
    4    8 O      15, 16, 41, 42
    5    1 H      53-94

          program call               : xtb data2507/toluene/2Mi2SB/2Mi2SB.xyz --gfn 2 --gbsa toluene --ohess vtight --parallel 40 --molden --ceasefiles --namespace data2507/toluene/2Mi2SB/2Mi2SB_toluene_S0_preOpt
      * Solvation model:               GBSA
        Solvent                        toluene
        Solvent mass                       9.2140E+01 g/mol
          :  Hamiltonian                  GFN2-xTB          :
 * total energy  :  -145.9080661 Eh     change       -0.3413646E-08 Eh
 * total energy  :  -145.9237321 Eh     change       -0.1566606E-01 Eh
 * total energy  :  -145.9283336 Eh     change       -0.4601495E-02 Eh
 * total energy  :  -145.9295766 Eh     change       -0.1242950E-02 Eh
 * total energy  :  -145.9303937 Eh     change       -0.8171639E-03 Eh
 * total energy  :  -145.9307612 Eh     change       -0.3674630E-03 Eh
 * total energy  :  -145.9310332 Eh     change       -0.2720431E-03 Eh
 * total energy  :  -145.9312739 Eh     change       -0.2406614E-03 Eh
 * total energy  :  -145.9314934 Eh     change       -0.2194521E-03 Eh
 * total energy  :  -145.9317093 Eh     change       -0.2159197E-03 Eh
 * total energy  :  -145.9330139 Eh     change       -0.1984396E-05 Eh
 * total energy  :  -145.9330152 Eh     change       -0.1387217E-05 Eh
 * total energy  :  -145.9330161 Eh     change       -0.8892670E-06 Eh
 * total energy  :  -145.9330170 Eh     change       -0.8191573E-06 Eh
 * total energy  :  -145.9330180 Eh     change       -0.1061959E-05 Eh
 * total energy  :  -145.9330192 Eh     change       -0.1221223E-05 Eh
 * total energy  :  -145.9330203 Eh     change       -0.1108975E-05 Eh
 * total energy  :  -145.9330212 Eh     change       -0.8191651E-06 Eh
 * total energy  :  -145.9330212 Eh     change       -0.2343339E-07 Eh
   *** GEOMETRY OPTIMIZATION CONVERGED AFTER 68 ITERATIONS ***

 final structure:
================
94
 xtb: 6.7.1 (edcfbbe)
C            2.44103724576188        4.00006790581297       -3.25542984555188
C            2.55357376112749        4.63999471471305       -1.92246463366113
N            3.20980903285663        5.72852911301419       -1.67976606930275
C            3.07720128332522        5.97231176015515       -0.33291594267735
C            3.56025633849171        7.01665420894479        0.44427912814317
C            3.24746104472748        7.01000137521418        1.78898838378333
C            2.46568072695580        6.00225655481201        2.35351660411733
C            1.97281437791769        4.95564938620360        1.59642250432184
C            2.30572406223939        4.94681047462800        0.25480889131663
N            1.96792185088230        4.10204674229663       -0.78690595050076
C            1.23821167436665        2.92181488047071       -0.68488831972094
C            0.07368868451994        2.75507693738356       -1.43891619726163
C           -0.69028865358006        1.61409016926202       -1.33050723720817
S           -2.17779187659880        1.56422653246657       -2.38026795321358
O           -1.86688465270372        0.78462774718602       -3.55486394869819
O           -2.53236105979807        2.94763144504911       -2.60681978740406
C           -3.46178398831180        0.78014007991317       -1.42759398772234
C           -3.84799552009342        1.37283942778029       -0.23997898860777
C           -4.81587032210658        0.76115030500601        0.53182154902214
C           -5.41253570222561       -0.43680263453742        0.13293435290405
C           -6.42845289093406       -1.09939837416544        1.04681735235249
C           -5.71621403016804       -1.44968048347614        2.36261532993200
C           -7.00343894058957       -2.38762548008050        0.45274580069183
C           -7.59023560968708       -0.13075552015732        1.31210204564864
C           -5.02389629640693       -0.98820862018273       -1.08411582944847
C           -4.04960298451327       -0.38805138160795       -1.86437000216959
C           -0.32520817616857        0.59628445027170       -0.45153989351311
N           -1.08403011596066       -0.56878998910042       -0.30017406079874
C           -1.78119742740312       -0.96705695857806        0.82956725382952
C           -1.80040463526531       -0.15653217277362        2.06905606137479
N           -2.38967074232595       -2.09821548979853        0.66755486885377
C           -2.09180181010258       -2.52409195485909       -0.60467708868560
C           -2.45500118084656       -3.68504163015947       -1.27554784620889
C           -1.97605042600058       -3.85831184144047       -2.55834891245092
C           -1.14373320217794       -2.91591132230557       -3.16415556719317
C           -0.76537019170697       -1.75669781748801       -2.51334912342060
C           -1.26659537563770       -1.56835618612929       -1.23811078770324
C            0.84179056483201        0.75770882608512        0.29601467735056
C            1.61853535210885        1.89120841226461        0.17434347089990
S            3.17636826821294        1.88204951483670        1.11735989660537
O            2.84928327054501        2.13452923877563        2.50118632873216
O            4.12929720388748        2.75384270125792        0.48041353324478
C            3.72619696517064        0.18977531141797        0.94296341379054
C            4.26240378726017       -0.21638002245769       -0.26246252540445
C            4.67535188801881       -1.52917496443249       -0.41735075666042
C            4.55903712334038       -2.44837671655307        0.62304342945692
C            4.99765931401664       -3.89774027791167        0.49137697288896
C            6.09572000968586       -4.17867933131907        1.52849319006561
C            5.55501531707863       -4.22246818143313       -0.89755705974416
C            3.78772225898134       -4.80881421698195        0.74978201164960
C            4.02096497090549       -2.00385737475511        1.83213742123416
C            3.60499803435415       -0.69622968145880        1.99736109723739
H            2.51487914372626        2.91765820605343       -3.17281414640955
H            1.48727229569424        4.24623562320148       -3.72225186453900
H            3.23894343599220        4.37760233187000       -3.88857294166086
H            4.15372964461626        7.80026546076514        0.00076044869786
H            3.61078223856942        7.80574624654621        2.42235791102270
H            2.23967795375811        6.03859843665158        3.40866731803741
H            1.37628779365877        4.17384773246579        2.04086949142098
H           -0.27159460969821        3.53514324535222       -2.09961636549770
H           -3.38931066478170        2.30366162775612        0.05817601252036
H           -5.10084177556825        1.22457756370625        1.46239974437874
H           -6.38235501530897       -2.02093352420844        3.00464937918647
H           -4.83001287817596       -2.04571959448086        2.15504896112926
H           -5.41446252697393       -0.55370125449932        2.89735715807459
H           -6.22170840727444       -3.12657013622533        0.29944455739979
H           -7.50886519663373       -2.19447206709501       -0.49055197466228
H           -7.73211879608073       -2.80755213572147        1.14271569211675
H           -8.32545710486359       -0.60522808375337        1.95783450173505
H           -7.25222775345566        0.78048130839206        1.79648408335436
H           -8.07639666830355        0.13955005289470        0.37699532755669
H           -5.46415980500026       -1.90354080349873       -1.43962355873867
H           -3.73098886883753       -0.81546379087219       -2.80222611172790
H           -0.87304623686019       -0.28908024018304        2.62591657878907
H           -1.91174537642266        0.90004508056462        1.83725675599433
H           -2.62656618610906       -0.48902469594222        2.68943379731903
H           -3.08033154646966       -4.42195954474632       -0.79813944355872
H           -2.24140373859628       -4.74885143969901       -3.10845553165024
H           -0.78359593960817       -3.09662654698628       -4.16573371285362
H           -0.12765343381078       -1.02600690675978       -2.98496398400837
H            1.15517730812655       -0.02525175257563        0.96901159991545
H            4.36530949278556        0.50192623366353       -1.06085106310029
H            5.09307324800402       -1.82332175119166       -1.36502314385891
H            6.94051815048141       -3.51091461206682        1.37292494111482
H            6.44397099268145       -5.20406492593753        1.42928393780140
H            5.73281170111382       -4.03946266594118        2.54259434543329
H            4.80722063403340       -4.05720246227495       -1.66945156768288
H            5.84449751512168       -5.27040390894695       -0.93198981016439
H            6.43722195011047       -3.62559473285873       -1.11631207190970
H            2.99212868028525       -4.59178430631293        0.03979844397578
H            4.07885587540098       -5.84996548267793        0.63302014367022
H            3.39541887787333       -4.67725194994954        1.75379712757381
H            3.92297051199156       -2.68325498052882        2.66356142057295
H            3.19678848450358       -0.34220444520965        2.93158935853833

          :  Hamiltonian                  GFN2-xTB          :
         :: gradient norm              0.000117134637 Eh/a0 ::
         :: HOMO-LUMO gap              2.461734849586 eV    ::
         :: SCC energy              -148.177535453931 Eh    ::
         :: -> dispersion             -0.140986990300 Eh    ::
         :: -> Gsolv                  -0.067617203422 Eh    ::
         :: repulsion energy           2.244514268654 Eh    ::

    * Orbital Energies and Occupations

         #    Occupation            Energy/Eh            Energy/eV
      -------------------------------------------------------------
         1        2.0000           -0.7916546             -21.5420
       ...           ...                  ...                  ...
       121        2.0000           -0.4293106             -11.6821
       122        2.0000           -0.4283263             -11.6554
       123        2.0000           -0.4253335             -11.5739
       124        2.0000           -0.4230972             -11.5131
       125        2.0000           -0.4208016             -11.4506
       126        2.0000           -0.4193187             -11.4102
       127        2.0000           -0.4166306             -11.3371
       128        2.0000           -0.3983555             -10.8398
       129        2.0000           -0.3967285             -10.7955
       130        2.0000           -0.3951003             -10.7512
       131        2.0000           -0.3927827             -10.6882
       132        2.0000           -0.3906344             -10.6297
       133        2.0000           -0.3901819             -10.6174 (HOMO)
       134                         -0.2997150              -8.1557 (LUMO)
       135                         -0.2881830              -7.8419
       136                         -0.2634630              -7.1692
       137                         -0.2613622              -7.1120
       138                         -0.2498907              -6.7999
       139                         -0.2493924              -6.7863
       140                         -0.2470579              -6.7228
       141                         -0.2446904              -6.6584
       142                         -0.2178038              -5.9267
       143                         -0.2118963              -5.7660
       144                         -0.1927059              -5.2438
       ...                                ...                  ...
       260                          1.1798792              32.1061
      -------------------------------------------------------------
                  HL-Gap            0.0904669 Eh            2.4617 eV

     #   Z          covCN         q      C6AA      α(0)
     1   6 C        3.755    -0.126    22.968     6.833
     2   6 C        3.155     0.151    24.465     8.088
     3   7 N        1.885    -0.294    28.484     7.912
     4   6 C        3.191     0.071    25.949     8.308
     5   6 C        2.911    -0.046    29.140     8.852
     6   6 C        2.923    -0.041    29.008     8.832
     7   6 C        2.928    -0.036    28.907     8.817
     8   6 C        2.908    -0.052    29.303     8.876
     9   6 C        3.078     0.043    26.965     8.514
    10   7 N        2.828    -0.059    22.380     7.026
    11   6 C        2.922     0.079    26.233     8.399
    12   6 C        2.978    -0.035    28.874     8.814
    13   6 C        2.964    -0.088    30.213     9.016
    14  16 S        3.817     0.978   107.283    17.433
    15   8 O        0.860    -0.571    25.411     6.759
    16   8 O        0.860    -0.584    25.729     6.801
    17   6 C        2.974    -0.082    30.047     8.991
    18   6 C        2.965    -0.033    28.826     8.807
    19   6 C        2.929    -0.027    28.681     8.783
    20   6 C        2.974     0.031    27.312     8.572
    21   6 C        3.903     0.029    20.028     6.361
    22   6 C        3.763    -0.117    22.779     6.803
    23   6 C        3.761    -0.117    22.779     6.804
    24   6 C        3.761    -0.112    22.698     6.792
    25   6 C        2.927    -0.028    28.709     8.787
    26   6 C        2.953    -0.024    28.609     8.773
    27   6 C        2.922     0.069    26.447     8.433
    28   7 N        2.828    -0.072    22.635     7.066
    29   6 C        3.153     0.140    24.693     8.127
    30   6 C        3.756    -0.131    23.066     6.848
    31   7 N        1.885    -0.287    28.294     7.885
    32   6 C        3.190     0.064    26.100     8.333
    33   6 C        2.911    -0.045    29.107     8.847
    34   6 C        2.923    -0.039    28.974     8.827
    35   6 C        2.928    -0.035    28.873     8.812
    36   6 C        2.907    -0.047    29.175     8.857
    37   6 C        3.075     0.027    27.321     8.570
    38   6 C        2.977    -0.042    29.042     8.840
    39   6 C        2.964    -0.093    30.333     9.034
    40  16 S        3.807     0.986   107.058    17.415
    41   8 O        0.860    -0.572    25.451     6.764
    42   8 O        0.860    -0.568    25.355     6.751
    43   6 C        2.972    -0.085    30.125     9.003
    44   6 C        2.960    -0.030    28.741     8.793
    45   6 C        2.926    -0.031    28.783     8.798
    46   6 C        2.973     0.027    27.400     8.586
    47   6 C        3.903     0.029    20.038     6.363
    48   6 C        3.761    -0.112    22.689     6.790
    49   6 C        3.761    -0.116    22.766     6.802
    50   6 C        3.761    -0.113    22.703     6.792
    51   6 C        2.928    -0.028    28.698     8.785
    52   6 C        2.951    -0.030    28.739     8.793
    53   1 H        0.925     0.056     2.246     2.344
    54   1 H        0.925     0.071     2.071     2.251
    55   1 H        0.925     0.085     1.927     2.171
    56   1 H        0.926     0.049     2.331     2.388
    57   1 H        0.926     0.044     2.393     2.419
    58   1 H        0.926     0.042     2.423     2.434
    59   1 H        0.926     0.027     2.623     2.533
    60   1 H        0.926     0.085     1.925     2.170
    61   1 H        0.926     0.043     2.403     2.424
    62   1 H        0.926     0.070     2.088     2.260
    63   1 H        0.925     0.051     2.302     2.373
    64   1 H        0.925     0.051     2.309     2.376
    65   1 H        0.925     0.042     2.419     2.432
    66   1 H        0.925     0.046     2.370     2.408
    67   1 H        0.925     0.041     2.440     2.443
    68   1 H        0.925     0.049     2.337     2.391
    69   1 H        0.925     0.051     2.313     2.378
    70   1 H        0.925     0.043     2.415     2.430
    71   1 H        0.925     0.038     2.479     2.462
    72   1 H        0.926     0.074     2.043     2.235
    73   1 H        0.926     0.052     2.297     2.370
    74   1 H        0.925     0.076     2.026     2.226
    75   1 H        0.925     0.057     2.238     2.340
    76   1 H        0.925     0.092     1.864     2.135
    77   1 H        0.926     0.053     2.278     2.360
    78   1 H        0.926     0.046     2.373     2.409
    79   1 H        0.926     0.041     2.431     2.438
    80   1 H        0.926     0.030     2.592     2.518
    81   1 H        0.926     0.080     1.981     2.201
    82   1 H        0.926     0.047     2.354     2.399
    83   1 H        0.926     0.072     2.060     2.245
    84   1 H        0.925     0.038     2.470     2.458
    85   1 H        0.925     0.051     2.312     2.378
    86   1 H        0.925     0.044     2.399     2.422
    87   1 H        0.925     0.042     2.423     2.434
    88   1 H        0.925     0.048     2.339     2.392
    89   1 H        0.925     0.042     2.420     2.432
    90   1 H        0.925     0.038     2.473     2.459
    91   1 H        0.925     0.051     2.308     2.376
    92   1 H        0.925     0.044     2.391     2.418
    93   1 H        0.926     0.068     2.107     2.270
    94   1 H        0.926     0.058     2.219     2.329

molecular dipole:
                 x           y           z       tot (Debye)
 q only:       -1.436      -4.676       1.713
   full:       -1.203      -4.268       1.470      11.874

 projected vibrational frequencies (cm⁻¹)
eigval :       -0.00    -0.00    -0.00     0.00     0.00     0.00
eigval :       -9.12     2.24     9.14    16.98    21.77    27.16
eigval :       28.90    34.15    36.40    42.95    50.64    51.99
eigval :       59.88    62.69    72.19    77.72    90.21    93.20
eigval :      100.75   108.80   111.10   112.14   119.47   136.29
eigval :      140.70   149.54   156.39   158.97   167.25   174.11
eigval :      178.50   191.28   203.79   210.53   213.25   215.37
eigval :      227.78   234.03   238.26   246.69   255.46   263.45
eigval :      271.34   285.08   288.73   299.28   305.03   308.57
eigval :      311.12   319.30   319.68   323.57   329.80   341.81
eigval :      364.22   365.70   373.36   377.45   380.26   387.57
eigval :      398.53   408.58   412.80   413.76   417.49   424.69
eigval :      440.34   456.83   457.92   468.57   473.05   488.42
eigval :      490.24   494.08   503.72   517.77   520.68   529.74
eigval :      539.28   543.01   545.62   560.51   567.95   598.75
eigval :      599.54   602.68   604.44   608.30   610.86   619.73
eigval :      632.81   649.87   661.63   676.86   686.15   688.93
eigval :      689.80   699.62   706.57   707.66   753.15   755.30
eigval :      771.58   772.24   811.57   815.19   816.54   863.51
eigval :      865.56   865.93   872.71   874.97   875.90   879.83
eigval :      881.15   881.97   888.67   896.32   899.05   915.78
eigval :      916.90   917.54   920.88   926.32   928.96   929.37
eigval :      946.57   958.39   960.99   961.31   962.55   962.96
eigval :      968.37   985.14   989.01   992.01  1009.80  1017.29
eigval :     1022.55  1024.46  1033.29  1033.86  1034.38  1037.63
eigval :     1055.34  1058.79  1070.60  1071.30  1084.24  1088.76
eigval :     1118.47  1118.81  1127.95  1128.45  1128.69  1133.11
eigval :     1137.33  1138.49  1167.23  1170.25  1189.92  1190.91
eigval :     1191.14  1196.79  1201.89  1209.29  1215.28  1223.82
eigval :     1226.04  1227.75  1229.81  1232.57  1253.98  1257.51
eigval :     1257.72  1270.42  1279.54  1281.97  1282.51  1283.84
eigval :     1300.62  1302.16  1323.06  1325.65  1328.73  1359.45
eigval :     1361.43  1386.70  1387.10  1388.39  1389.06  1390.08
eigval :     1400.29  1401.29  1401.86  1403.59  1403.97  1414.63
eigval :     1425.70  1425.72  1426.88  1442.03  1445.08  1452.44
eigval :     1458.28  1460.14  1461.31  1464.95  1481.71  1482.49
eigval :     1483.92  1484.28  1486.88  1489.65  1494.74  1497.21
eigval :     1497.78  1497.99  1509.01  1509.05  1509.67  1513.18
eigval :     1514.90  1566.90  1568.29  1573.90  1575.25  1579.81
eigval :     1581.37  1584.52  1593.59  1594.70  1622.53  1623.90
eigval :     2999.94  3004.03  3027.14  3028.25  3028.27  3028.34
eigval :     3030.39  3030.96  3032.84  3033.67  3034.81  3036.01
eigval :     3037.43  3037.58  3038.13  3040.59  3043.74  3048.20
eigval :     3050.17  3051.16  3054.34  3054.58  3063.64  3073.35
eigval :     3079.26  3081.73  3084.36  3084.79  3090.16  3094.11
eigval :     3095.34  3097.37  3101.33  3101.89  3102.04  3103.82
eigval :     3104.65  3106.28  3106.35  3109.10  3127.94  3133.62

   temp. (K)  partition function   enthalpy   heat capacity  entropy
                                   cal/mol     cal/K/mol   cal/K/mol   J/K/mol
 298.15  VIB  0.980E+25            29951.892    177.590    190.970
         ROT  0.956E+08              888.752      2.981     39.499
         INT  0.937E+33            30840.644    180.571    230.469
         TR   0.191E+29             1481.254      4.968     45.627
         TOT                       32321.8981   185.5387   276.0960  1155.1859

       T/K    H(0)-H(T)+PV         H(T)/Eh          T*S/Eh         G(T)/Eh
   ------------------------------------------------------------------------
    298.15    0.515082E-01    0.789244E+00    0.131182E+00    0.658061E+00
   ------------------------------------------------------------------------

         :::::::::::::::::::::::::::::::::::::::::::::::::::::
         ::                  THERMODYNAMIC                  ::
         :::::::::::::::::::::::::::::::::::::::::::::::::::::
         :: total free energy        -145.274959710905 Eh   ::
         ::.................................................::
         :: total energy             -145.933021182201 Eh   ::
         :: zero point energy           0.737735390268 Eh   ::
         :: G(RRHO) w/o ZPVE           -0.079673918972 Eh   ::
         :: G(RRHO) contrib.            0.658061471296 Eh   ::
         :::::::::::::::::::::::::::::::::::::::::::::::::::::

           -------------------------------------------------
          | TOTAL ENERGY             -145.933021182201 Eh   |
          | TOTAL ENTHALPY           -145.143777568628 Eh   |
          | TOTAL FREE ENERGY        -145.274959710905 Eh   |
          | GRADIENT NORM               0.000117154915 Eh/α |
          | HOMO-LUMO GAP               2.461729495789 eV   |
           -------------------------------------------------

 * finished run on 2025/09/07 at 23:46:46.706
