   * xtb version 6.7.1 (edcfbbe) compiled by 'albert@albert-system' on 2024-07-22

   ID    Z sym.   atoms
    1    6 C      1, 2, 4-9, 11-13, 17-27, 29, 30, 32-39, 43-52
    2    7 N      3, 10, 28, 31
    3   16 S      14, 40
    4    8 O      15, 16, 41, 42
    5    1 H      53-94

          program call               : xtb data2507/toluene/2Mi2SB/2Mi2SB_toluene_S0_crest.xyz --gfn 2 --gbsa toluene --ohess vtight --parallel 40 --molden --ceasefiles --namespace data2507/toluene/2Mi2SB/2Mi2SB_toluene_S0_finalOpt
      * Solvation model:               GBSA
        Solvent                        toluene
        Solvent mass                       9.2140E+01 g/mol
          :  Hamiltonian                  GFN2-xTB          :
 * total energy  :  -145.9377332 Eh     change       -0.3593726E-08 Eh
 * total energy  :  -145.9380405 Eh     change       -0.3072750E-03 Eh
 * total energy  :  -145.9382537 Eh     change       -0.2132447E-03 Eh
 * total energy  :  -145.9383142 Eh     change       -0.6054138E-04 Eh
 * total energy  :  -145.9383854 Eh     change       -0.7118336E-04 Eh
 * total energy  :  -145.9384361 Eh     change       -0.5071599E-04 Eh
 * total energy  :  -145.9384703 Eh     change       -0.3418435E-04 Eh
 * total energy  :  -145.9384917 Eh     change       -0.2141646E-04 Eh
 * total energy  :  -145.9385135 Eh     change       -0.2173010E-04 Eh
 * total energy  :  -145.9385306 Eh     change       -0.1713764E-04 Eh
 * total energy  :  -145.9386175 Eh     change       -0.1803375E-04 Eh
 * total energy  :  -145.9386292 Eh     change       -0.1175084E-04 Eh
 * total energy  :  -145.9386367 Eh     change       -0.7450016E-05 Eh
 * total energy  :  -145.9386430 Eh     change       -0.6281821E-05 Eh
 * total energy  :  -145.9386495 Eh     change       -0.6546812E-05 Eh
 * total energy  :  -145.9386556 Eh     change       -0.6097865E-05 Eh
 * total energy  :  -145.9386593 Eh     change       -0.3708439E-05 Eh
 * total energy  :  -145.9386611 Eh     change       -0.1790465E-05 Eh
 * total energy  :  -145.9386611 Eh     change       -0.4412826E-07 Eh
   *** GEOMETRY OPTIMIZATION CONVERGED AFTER 22 ITERATIONS ***

 final structure:
================
94
 xtb: 6.7.1 (edcfbbe)
C            2.07787887541224        0.32789580374981        3.43024242960973
C            2.88150991123666       -0.44203126674643        2.45622015643025
N            4.01396202006616       -1.01693183194913        2.70705656835323
C            4.38120249974690       -1.68219328761089        1.56273912787863
C            5.48815990560981       -2.47669457785445        1.29438608893657
C            5.57492222962495       -3.05138471354994        0.04218827078037
C            4.59256184410021       -2.84910062929118       -0.92763980036859
C            3.48105474119695       -2.06601529910220       -0.67999747446508
C            3.39109181125721       -1.49263968696503        0.57534174683546
N            2.44618159249078       -0.66847378532056        1.15912742444239
C            1.22964351880956       -0.30308918926857        0.57175603073207
C            0.24731364261533       -1.27434094600282        0.37269708487211
C           -0.96134146829462       -0.95065792436487       -0.20549454747261
S           -2.15083514664474       -2.31214454140745       -0.39691945573590
O           -1.78481526227223       -3.29201361697688        0.59951777824249
O           -2.08842777930125       -2.74859871298395       -1.77423440042031
C           -3.77219604553183       -1.67797016271570       -0.02314131377052
C           -4.02409104492904       -1.23900727999239        1.26168026136301
C           -5.29249347116297       -0.79600144029288        1.58874151335369
C           -6.32039417954561       -0.78508282199966        0.64666919833202
C           -7.73693242755802       -0.38794159799584        1.02774453600100
C           -8.48602485752177       -1.68065007273092        1.39103483030234
C           -8.45352340973661        0.30413851827841       -0.13865683485128
C           -7.75658734150511        0.56128209197373        2.23160948554439
C           -6.02910942301684       -1.23012677135406       -0.64226534470865
C           -4.76477215678613       -1.67545051171870       -0.98244545696502
C           -1.23083431636603        0.35253877379835       -0.61350750432333
N           -2.45784764089319        0.71976524754167       -1.17982513173765
C           -2.89468428765420        0.54993559929351       -2.48416940101559
C           -2.07758360718744       -0.15240973741516       -3.49727830698035
N           -4.04538219618695        1.10363504804121       -2.69850202580360
C           -4.42382953030037        1.69627550717250       -1.51860935022449
C           -5.55192337621723        2.44174054310868       -1.20175149993289
C           -5.64552735038658        2.94781363039537        0.07919654748166
C           -4.65038991175493        2.72430061095553        1.03114585514474
C           -3.51918354703893        1.98718434979127        0.73654971820562
C           -3.42245964134414        1.48252999171662       -0.54742676790390
C           -0.24572726009205        1.32175470592922       -0.42239599603820
C            0.96502874612436        0.99745645872096        0.15215224708854
S            2.16925882391357        2.35306314995161        0.29055635622309
O            2.08594487166154        2.87725803023451        1.63590551564292
O            1.83729525813480        3.27275150754035       -0.77287518554836
C            3.78942318962553        1.67649185356157       -0.00918794972631
C            4.05651078115273        1.13606199799057       -1.25145611366127
C            5.32551697465046        0.65770903562199       -1.52309752411471
C            6.33980749653885        0.71523572049018       -0.56840219548470
C            7.76006919000307        0.28050940772606       -0.89005842281957
C            7.80367825156802       -0.71328328178909       -2.05625604039677
C            8.42454701858930       -0.38036698425497        0.32448980027862
C            8.54409018385461        1.54564412731105       -1.27585563842754
C            6.03351493405505        1.26332984825610        0.67686114684635
C            4.76798421717170        1.74150299330408        0.96253473861364
H            1.96753908505074        1.36096717698811        3.10037910779784
H            1.08445549941637       -0.10870819839508        3.52953589092495
H            2.58074368765550        0.30743402220893        4.39217913331008
H            6.23721339350767       -2.64118901096116        2.05240871709002
H            6.41982514193311       -3.68091613130173       -0.19446184256501
H            4.69834144442850       -3.32286275942712       -1.89196335218857
H            2.71242035274941       -1.92035255017450       -1.42393501601812
H            0.40932564937022       -2.29493392741719        0.68646776696734
H           -3.23269016981080       -1.26668813315297        1.99480536653161
H           -5.47186517327483       -0.46399648556306        2.59689560445970
H           -9.51026069508362       -1.44848572032801        1.67313354788716
H           -8.50461862233315       -2.36417690924695        0.54550034370358
H           -8.00072465832283       -2.18302276623556        2.22488689578311
H           -8.66692190053383       -0.38734323380097       -0.94844055049092
H           -7.84532657946268        1.11854375239140       -0.52204113386555
H           -9.40263160917998        0.70948881437463        0.20384513828031
H           -8.76625716350062        0.93501447016653        2.38439586324749
H           -7.45450150458482        0.05622169722873        3.14494895845560
H           -7.09763864083957        1.40742251628493        2.05578717999988
H           -6.79218936481962       -1.24122838611375       -1.40184625577121
H           -4.53835972477996       -2.02921294889148       -1.97594537117842
H           -1.09338833695310        0.30865309254024       -3.57585772369046
H           -1.94686252256828       -1.19768311247090       -3.21648031851005
H           -2.58280056631827       -0.09602627158001       -4.45650914020259
H           -6.31235094990428        2.62147987919215       -1.94483501473885
H           -6.50676440748892        3.53862036914935        0.35388896812012
H           -4.76184182803799        3.14475500215993        2.01923899277163
H           -2.74143047840921        1.82444781367828        1.46729370517545
H           -0.40607711468638        2.34091405490110       -0.74140916179789
H            3.27649211812427        1.11145242261567       -1.99683803680545
H            5.51542433757440        0.24370430170170       -2.49835672801597
H            7.13509019326035       -1.54882083779122       -1.86591677233377
H            8.81447165641686       -1.09837446124629       -2.16813508833396
H            7.52883393565702       -0.24062397555548       -2.99530599796496
H            8.61329206945098        0.33349801866821        1.12063763597582
H            9.38174241502850       -0.80522359599702        0.03167874392963
H            7.79329888459063       -1.17648964658359        0.70903094613105
H            8.54587991064443        2.26186897803365       -0.45774824508858
H            9.57315913174021        1.28587888887787       -1.51265369262766
H            8.09701127754776        2.02208441857453       -2.14561527201869
H            6.78642489341281        1.33041262187209        1.44385195593890
H            4.52980394175182        2.17331175653486        1.92178048767423

          :  Hamiltonian                  GFN2-xTB          :
         :: gradient norm              0.000193972499 Eh/a0 ::
         :: HOMO-LUMO gap              2.466951186415 eV    ::
         :: SCC energy              -148.184039986086 Eh    ::
         :: -> dispersion             -0.151002061510 Eh    ::
         :: -> Gsolv                  -0.059573935437 Eh    ::
         :: repulsion energy           2.245378844183 Eh    ::

    * Orbital Energies and Occupations

         #    Occupation            Energy/Eh            Energy/eV
      -------------------------------------------------------------
         1        2.0000           -0.7947462             -21.6261
       ...           ...                  ...                  ...
       121        2.0000           -0.4290238             -11.6743
       122        2.0000           -0.4264766             -11.6050
       123        2.0000           -0.4260937             -11.5946
       124        2.0000           -0.4253151             -11.5734
       125        2.0000           -0.4235192             -11.5245
       126        2.0000           -0.4181928             -11.3796
       127        2.0000           -0.4165154             -11.3340
       128        2.0000           -0.4001665             -10.8891
       129        2.0000           -0.3987459             -10.8504
       130        2.0000           -0.3971957             -10.8082
       131        2.0000           -0.3962800             -10.7833
       132        2.0000           -0.3956044             -10.7649
       133        2.0000           -0.3930414             -10.6952 (HOMO)
       134                         -0.3023828              -8.2283 (LUMO)
       135                         -0.2900373              -7.8923
       136                         -0.2632536              -7.1635
       137                         -0.2623937              -7.1401
       138                         -0.2511425              -6.8339
       139                         -0.2505244              -6.8171
       140                         -0.2472979              -6.7293
       141                         -0.2471981              -6.7266
       142                         -0.2204654              -5.9992
       143                         -0.2191069              -5.9622
       144                         -0.1929982              -5.2517
       ...                                ...                  ...
       260                          1.1677873              31.7771
      -------------------------------------------------------------
                  HL-Gap            0.0906587 Eh            2.4669 eV

     #   Z          covCN         q      C6AA      α(0)
     1   6 C        3.755    -0.135    23.150     6.860
     2   6 C        3.150     0.146    24.578     8.109
     3   7 N        1.887    -0.291    28.398     7.900
     4   6 C        3.187     0.065    26.089     8.334
     5   6 C        2.911    -0.043    29.076     8.842
     6   6 C        2.923    -0.038    28.957     8.825
     7   6 C        2.928    -0.036    28.899     8.816
     8   6 C        2.908    -0.054    29.330     8.880
     9   6 C        3.079     0.028    27.300     8.566
    10   7 N        2.828    -0.077    22.732     7.081
    11   6 C        2.925     0.073    26.371     8.421
    12   6 C        2.974    -0.030    28.753     8.796
    13   6 C        2.965    -0.089    30.235     9.019
    14  16 S        3.816     0.984   107.099    17.418
    15   8 O        0.860    -0.579    25.617     6.786
    16   8 O        0.860    -0.576    25.538     6.775
    17   6 C        2.974    -0.083    30.080     8.996
    18   6 C        2.965    -0.031    28.775     8.799
    19   6 C        2.928    -0.030    28.761     8.795
    20   6 C        2.974     0.027    27.396     8.586
    21   6 C        3.902     0.028    20.044     6.364
    22   6 C        3.763    -0.110    22.647     6.784
    23   6 C        3.760    -0.117    22.791     6.806
    24   6 C        3.760    -0.117    22.797     6.807
    25   6 C        2.929    -0.028    28.697     8.785
    26   6 C        2.952    -0.025    28.631     8.776
    27   6 C        2.926     0.073    26.368     8.421
    28   7 N        2.828    -0.078    22.747     7.084
    29   6 C        3.150     0.147    24.555     8.105
    30   6 C        3.755    -0.134    23.134     6.858
    31   7 N        1.887    -0.292    28.430     7.904
    32   6 C        3.187     0.065    26.087     8.333
    33   6 C        2.911    -0.044    29.084     8.843
    34   6 C        2.923    -0.039    28.963     8.825
    35   6 C        2.928    -0.036    28.904     8.817
    36   6 C        2.908    -0.054    29.343     8.882
    37   6 C        3.079     0.027    27.304     8.567
    38   6 C        2.975    -0.030    28.734     8.793
    39   6 C        2.965    -0.089    30.241     9.020
    40  16 S        3.815     0.985   107.081    17.416
    41   8 O        0.860    -0.576    25.532     6.775
    42   8 O        0.860    -0.580    25.626     6.787
    43   6 C        2.974    -0.083    30.079     8.996
    44   6 C        2.965    -0.031    28.773     8.799
    45   6 C        2.928    -0.031    28.767     8.796
    46   6 C        2.974     0.027    27.396     8.586
    47   6 C        3.902     0.028    20.044     6.364
    48   6 C        3.760    -0.117    22.796     6.806
    49   6 C        3.761    -0.117    22.786     6.805
    50   6 C        3.763    -0.110    22.650     6.784
    51   6 C        2.929    -0.027    28.684     8.783
    52   6 C        2.953    -0.025    28.635     8.777
    53   1 H        0.925     0.082     1.959     2.189
    54   1 H        0.925     0.060     2.203     2.321
    55   1 H        0.925     0.083     1.953     2.186
    56   1 H        0.926     0.053     2.286     2.364
    57   1 H        0.926     0.049     2.328     2.386
    58   1 H        0.926     0.046     2.367     2.406
    59   1 H        0.926     0.027     2.623     2.533
    60   1 H        0.926     0.088     1.900     2.155
    61   1 H        0.926     0.046     2.374     2.409
    62   1 H        0.926     0.073     2.057     2.243
    63   1 H        0.925     0.054     2.272     2.357
    64   1 H        0.925     0.040     2.445     2.445
    65   1 H        0.925     0.039     2.461     2.453
    66   1 H        0.925     0.043     2.405     2.425
    67   1 H        0.925     0.044     2.393     2.419
    68   1 H        0.925     0.050     2.321     2.382
    69   1 H        0.925     0.050     2.322     2.383
    70   1 H        0.925     0.043     2.409     2.427
    71   1 H        0.925     0.044     2.393     2.419
    72   1 H        0.926     0.072     2.062     2.246
    73   1 H        0.926     0.057     2.240     2.340
    74   1 H        0.925     0.059     2.208     2.324
    75   1 H        0.925     0.082     1.957     2.187
    76   1 H        0.925     0.082     1.959     2.189
    77   1 H        0.926     0.052     2.289     2.366
    78   1 H        0.926     0.049     2.328     2.386
    79   1 H        0.926     0.046     2.368     2.406
    80   1 H        0.926     0.027     2.629     2.536
    81   1 H        0.926     0.087     1.911     2.162
    82   1 H        0.926     0.045     2.384     2.415
    83   1 H        0.926     0.073     2.058     2.243
    84   1 H        0.925     0.044     2.396     2.421
    85   1 H        0.925     0.050     2.321     2.383
    86   1 H        0.925     0.043     2.411     2.428
    87   1 H        0.925     0.044     2.402     2.424
    88   1 H        0.925     0.050     2.320     2.382
    89   1 H        0.925     0.044     2.396     2.421
    90   1 H        0.925     0.041     2.440     2.443
    91   1 H        0.925     0.054     2.274     2.358
    92   1 H        0.925     0.039     2.464     2.455
    93   1 H        0.926     0.072     2.064     2.247
    94   1 H        0.926     0.057     2.232     2.336

molecular dipole:
                 x           y           z       tot (Debye)
 q only:        0.019      -0.083       0.196
   full:        0.021      -0.084       0.167       0.478

 projected vibrational frequencies (cm⁻¹)
eigval :       -0.00    -0.00    -0.00     0.00     0.00     0.00
eigval :        5.24     8.79    11.77    18.82    23.83    26.30
eigval :       27.01    33.07    42.99    57.18    60.51    63.60
eigval :       65.80    69.28    74.72    82.89    84.62    96.93
eigval :      108.04   111.90   124.36   133.61   143.51   154.61
eigval :      157.43   161.07   166.56   172.12   177.02   188.77
eigval :      193.31   197.63   198.70   212.66   221.56   223.02
eigval :      228.01   232.46   236.26   239.91   248.20   255.64
eigval :      267.29   277.92   282.34   291.57   293.00   301.23
eigval :      312.79   314.71   316.61   325.41   336.93   339.32
eigval :      356.02   356.53   363.20   364.89   390.23   391.27
eigval :      406.79   411.09   417.97   419.47   420.87   422.45
eigval :      436.99   457.59   458.86   462.29   486.25   490.32
eigval :      490.67   496.46   505.64   517.06   519.25   530.50
eigval :      536.22   543.27   544.26   563.40   567.99   599.06
eigval :      599.33   602.14   608.35   610.52   612.00   615.62
eigval :      630.98   656.49   657.88   685.22   686.01   687.36
eigval :      689.22   698.20   705.34   705.86   753.92   756.11
eigval :      777.47   779.01   805.22   808.71   818.53   860.34
eigval :      864.85   870.29   873.18   874.68   877.30   879.73
eigval :      881.83   882.53   897.73   901.81   903.38   906.26
eigval :      909.41   916.94   921.60   924.11   924.44   926.35
eigval :      942.46   959.46   959.59   964.18   964.63   964.91
eigval :      965.28   985.65   987.99   997.32  1015.24  1021.09
eigval :     1029.88  1030.07  1032.83  1032.97  1039.84  1040.02
eigval :     1053.69  1055.95  1070.00  1071.87  1083.35  1088.81
eigval :     1118.09  1118.57  1126.72  1131.74  1132.06  1132.50
eigval :     1137.88  1138.12  1167.24  1170.88  1187.97  1192.45
eigval :     1194.09  1194.78  1198.69  1201.98  1205.67  1222.65
eigval :     1222.86  1227.99  1233.07  1233.51  1254.08  1257.99
eigval :     1258.26  1271.36  1277.97  1278.67  1282.51  1282.63
eigval :     1295.98  1299.40  1325.64  1326.53  1326.82  1363.40
eigval :     1363.70  1385.25  1387.92  1388.25  1391.09  1391.65
eigval :     1396.99  1398.11  1398.73  1402.98  1403.30  1416.23
eigval :     1423.69  1424.27  1427.51  1446.80  1447.23  1453.76
eigval :     1454.24  1460.03  1460.17  1465.40  1480.60  1481.21
eigval :     1482.50  1482.89  1487.39  1487.46  1488.16  1489.76
eigval :     1503.34  1504.25  1504.51  1505.58  1511.31  1519.11
eigval :     1519.99  1567.91  1568.89  1574.34  1574.50  1581.43
eigval :     1583.07  1583.28  1594.22  1594.47  1623.19  1624.63
eigval :     3005.03  3005.47  3018.70  3020.96  3029.98  3030.23
eigval :     3031.32  3031.51  3032.34  3033.93  3037.30  3037.60
eigval :     3039.54  3041.60  3044.45  3046.12  3047.14  3048.74
eigval :     3050.69  3052.60  3056.94  3057.62  3070.62  3070.89
eigval :     3078.43  3078.68  3083.31  3083.66  3090.87  3092.04
eigval :     3094.95  3095.35  3096.24  3096.61  3103.49  3103.73
eigval :     3106.09  3106.20  3123.96  3125.41  3129.27  3130.54

   temp. (K)  partition function   enthalpy   heat capacity  entropy
                                   cal/mol     cal/K/mol   cal/K/mol   J/K/mol
 298.15  VIB  0.559E+24            29705.730    178.431    187.221
         ROT  0.855E+08              888.752      2.981     39.277
         INT  0.478E+32            30594.482    181.412    226.498
         TR   0.191E+29             1481.254      4.968     45.627
         TOT                       32075.7358   186.3805   272.1243  1138.5682

       T/K    H(0)-H(T)+PV         H(T)/Eh          T*S/Eh         G(T)/Eh
   ------------------------------------------------------------------------
    298.15    0.511159E-01    0.789436E+00    0.129295E+00    0.660141E+00
   ------------------------------------------------------------------------

         :::::::::::::::::::::::::::::::::::::::::::::::::::::
         ::                  THERMODYNAMIC                  ::
         :::::::::::::::::::::::::::::::::::::::::::::::::::::
         :: total free energy        -145.278519853080 Eh   ::
         ::.................................................::
         :: total energy             -145.938661139123 Eh   ::
         :: zero point energy           0.738320401757 Eh   ::
         :: G(RRHO) w/o ZPVE           -0.078179115714 Eh   ::
         :: G(RRHO) contrib.            0.660141286043 Eh   ::
         :::::::::::::::::::::::::::::::::::::::::::::::::::::

           -------------------------------------------------
          | TOTAL ENERGY             -145.938661139123 Eh   |
          | TOTAL ENTHALPY           -145.149224798688 Eh   |
          | TOTAL FREE ENERGY        -145.278519853080 Eh   |
          | GRADIENT NORM               0.000193917392 Eh/α |
          | HOMO-LUMO GAP               2.466947558539 eV   |
           -------------------------------------------------

 * finished run on 2025/09/07 at 23:57:26.295
