   * xtb version 6.7.1 (edcfbbe) compiled by 'albert@albert-system' on 2024-07-22

   ID    Z sym.   atoms
    1    8 O      1, 3
    2   16 S      2
    3    6 C      4-40
    4    1 H      41-66

          program call               : xtb data2507/gas/DPPSPF/DPPSPF_gas_S0_finalOpt.xtbopt.xyz --gfn 2 --spinpol --tblite --uhf 2 --ohess vtight --parallel 40 --molden --ceasefiles --namespace data2507/gas/DPPSPF/DPPSPF_gas_T1_preOpt
 * total energy  :  -103.7197010 Eh     change        0.2443186E-07 Eh
 * total energy  :  -103.7296571 Eh     change       -0.9956025E-02 Eh
 * total energy  :  -103.7322769 Eh     change       -0.2619859E-02 Eh
 * total energy  :  -103.7326087 Eh     change       -0.3317618E-03 Eh
 * total energy  :  -103.7331621 Eh     change       -0.5534520E-03 Eh
 * total energy  :  -103.7334879 Eh     change       -0.3258201E-03 Eh
 * total energy  :  -103.7337830 Eh     change       -0.2950703E-03 Eh
 * total energy  :  -103.7339641 Eh     change       -0.1810418E-03 Eh
 * total energy  :  -103.7340593 Eh     change       -0.9525904E-04 Eh
 * total energy  :  -103.7341341 Eh     change       -0.7480046E-04 Eh
 * total energy  :  -103.7347640 Eh     change       -0.1075565E-05 Eh
 * total energy  :  -103.7347651 Eh     change       -0.1118783E-05 Eh
 * total energy  :  -103.7347661 Eh     change       -0.1045719E-05 Eh
 * total energy  :  -103.7347671 Eh     change       -0.9799031E-06 Eh
 * total energy  :  -103.7347679 Eh     change       -0.8027276E-06 Eh
 * total energy  :  -103.7347686 Eh     change       -0.7003819E-06 Eh
 * total energy  :  -103.7347696 Eh     change       -0.1002334E-05 Eh
 * total energy  :  -103.7347713 Eh     change       -0.1641686E-05 Eh
 * total energy  :  -103.7347713 Eh     change       -0.1922972E-07 Eh
   *** GEOMETRY OPTIMIZATION CONVERGED AFTER 94 ITERATIONS ***

 final structure:
================
66
 xtb: 6.7.1 (edcfbbe)
O            6.28574491203279        0.92389621248227       -2.24790469897062
S            5.72512490437528        1.11813923586715       -0.93534587694201
O            5.77964705603799        2.43401077285729       -0.35258918274431
C            6.50629276242114       -0.04748051414336        0.19053827095091
C            7.21644849453220       -1.11643259631417       -0.31978414858363
C            7.76781783873723       -2.04042988595858        0.55228321504495
C            7.59678844128342       -1.88628836119153        1.91914877509485
C            6.88192843903823       -0.80877502981761        2.42027440841576
C            6.32948382932137        0.11639430759102        1.55103057842753
C            4.03951808736850        0.54695835972950       -0.92168805103756
C            3.69973061631442       -0.59517996806353       -1.64528837232734
C            2.42564025504396       -1.08947635873773       -1.58956033783738
C            1.41287142609422       -0.45611649737435       -0.80658577421184
C            0.09028437890936       -0.95361499948117       -0.75167548860370
C           -0.22688494532652       -2.30901143401332       -1.14512861737102
C           -1.48243578867193       -2.81126172798706       -1.09484981833309
C           -2.55570065016139       -1.98233026165274       -0.66225557647164
C           -2.26362320752228       -0.61970383604321       -0.28394007314103
C           -1.00615179414321       -0.13224688693628       -0.30432686384750
C           -3.54632949032147        0.08041175384615        0.12663305683927
C           -3.37762007627766        0.55487752785664        1.55616989288061
C           -3.72898193714494       -0.26301801439889        2.62188911085642
C           -3.52007008879045        0.15312170494341        3.92510244776956
C           -2.94551465736676        1.38604210227710        4.17936491940513
C           -2.57747936607062        2.20030808288015        3.12144763466220
C           -2.78926941094754        1.78709882507839        1.81897873120387
C           -3.95487750215866        1.19443825137513       -0.81960816366980
C           -4.87645975368432        2.15246385521493       -0.41194727899797
C           -5.30419530081905        3.13273658863921       -1.28826796510230
C           -4.82221938132440        3.16562807483843       -2.58596918105633
C           -3.91320466407147        2.20872676974136       -3.00169292919204
C           -3.48643213301715        1.22548823855300       -2.12638464087949
C           -4.56269813186213       -1.03330227660657       -0.03291990538521
C           -5.91287053254467       -1.00412143696572        0.18958358317765
C           -6.66420664334705       -2.15714469913763       -0.05228677008093
C           -6.05400964751616       -3.32477561495449       -0.52212028667136
C           -4.70307499015013       -3.37442091524120       -0.75931359192309
C           -3.92723707928007       -2.21980274482766       -0.51768699269877
C            1.80369090381497        0.71186817670272       -0.08343577287953
C            3.08586065191213        1.18679690688820       -0.13273805046004
H            7.33954003135066       -1.19521016381779       -1.38864518615760
H            8.33109401718437       -2.87746235540790        0.16774092843060
H            8.02686237509126       -2.60718974909056        2.59868541088093
H            6.75738997588273       -0.69068981500476        3.48624695328040
H            5.77880949433642        0.97215768073345        1.90878112534862
H            4.45532273072249       -1.05654143549129       -2.26204774228517
H            2.17353905187529       -1.94771272756370       -2.19116413270364
H            0.58187750105188       -2.95582784503001       -1.44504522610544
H           -1.68199663030145       -3.83605032169621       -1.37031173966884
H           -0.82384100774689        0.89619075604106       -0.03886409623118
H           -4.17128040354204       -1.23049832101069        2.43218553015000
H           -3.80547755464319       -0.49073546971071        4.74413747166242
H           -2.78282306900649        1.71047809223530        5.19641475809876
H           -2.12443145214452        3.16244670391644        3.31112597564336
H           -2.50832440442388        2.43238088616847        0.99899879559905
H           -5.25189860496073        2.13818035263362        0.60118265119113
H           -6.01690933384694        3.87357602731775       -0.95641638810048
H           -5.15585580838666        3.93178129311685       -3.26986261743969
H           -3.53502898893561        2.22398223883250       -4.01327871164488
H           -2.78176232131463        0.47874659298519       -2.46251413990506
H           -6.39711717758779       -0.10910777871205        0.55042134608295
H           -7.72868995980254       -2.14648348579826        0.12432993319187
H           -6.66361870431889       -4.19862858030035       -0.70060285791034
H           -4.23249592273128       -4.27384978201408       -1.12569685828101
H            1.08744048123951        1.20708184617201        0.55212878822066
H            3.38501991524710        2.06629954654130        0.41618201311357

 projected vibrational frequencies (cm⁻¹)
eigval :       -0.00    -0.00    -0.00     0.00     0.00     0.00
eigval :        6.62    10.52    20.15    21.36    34.27    36.05
eigval :       43.04    46.37    52.58    59.20    70.00    75.41
eigval :       83.62   106.33   126.74   133.64   143.32   146.76
eigval :      174.13   206.35   211.43   223.88   234.61   256.66
eigval :      267.64   275.88   283.85   289.35   307.40   323.77
eigval :      340.37   354.33   362.15   363.94   371.43   378.20
eigval :      389.13   391.57   421.85   435.93   449.90   452.50
eigval :      464.16   477.72   487.56   505.03   518.31   533.13
eigval :      535.80   584.75   586.44   587.92   589.09   597.37
eigval :      601.71   608.39   627.90   646.77   657.72   662.21
eigval :      668.60   676.17   681.98   693.33   699.20   712.14
eigval :      741.03   747.82   750.60   759.24   778.63   781.55
eigval :      788.88   814.74   831.28   840.30   878.96   879.37
eigval :      880.38   890.60   892.97   895.82   899.84   901.05
eigval :      904.92   907.20   908.73   912.09   913.19   914.13
eigval :      926.58   930.87   931.11   931.32   934.16   935.97
eigval :      956.76   967.88   974.29   984.39  1000.77  1004.04
eigval :     1054.53  1069.88  1074.56  1085.70  1088.43  1098.75
eigval :     1101.56  1103.36  1119.26  1122.50  1125.44  1127.70
eigval :     1129.57  1152.70  1161.14  1177.70  1178.09  1178.93
eigval :     1181.70  1181.83  1200.70  1202.73  1203.29  1209.75
eigval :     1223.92  1235.32  1237.52  1249.57  1251.37  1260.25
eigval :     1269.34  1285.04  1287.01  1302.32  1317.60  1320.94
eigval :     1322.72  1326.26  1332.73  1338.68  1359.91  1380.09
eigval :     1395.82  1401.86  1425.79  1430.86  1431.37  1436.64
eigval :     1443.93  1465.96  1471.44  1473.53  1474.71  1500.97
eigval :     1531.55  1561.89  1565.65  1575.02  1585.51  1589.14
eigval :     1595.13  1597.68  1599.83  1632.69  3072.62  3073.64
eigval :     3074.23  3076.10  3077.92  3079.90  3081.21  3081.27
eigval :     3082.34  3085.80  3086.60  3086.66  3087.80  3092.83
eigval :     3093.88  3094.10  3094.38  3095.08  3095.33  3099.66
eigval :     3102.55  3103.94  3104.96  3105.22  3110.53  3112.63

   temp. (K)  partition function   enthalpy   heat capacity  entropy
                                   cal/mol     cal/K/mol   cal/K/mol   J/K/mol
 298.15  VIB  0.103E+17            19435.511    120.310    122.515
         ROT  0.560E+08              888.752      2.981     38.434
         INT  0.576E+24            20324.263    123.291    160.949
         TR   0.120E+29             1481.254      4.968     44.695
         TOT                       21805.5169   128.2590   205.6436   860.4129

       T/K    H(0)-H(T)+PV         H(T)/Eh          T*S/Eh         G(T)/Eh
   ------------------------------------------------------------------------
    298.15    0.347493E-01    0.534683E+00    0.977079E-01    0.436975E+00
   ------------------------------------------------------------------------

         :::::::::::::::::::::::::::::::::::::::::::::::::::::
         ::                  THERMODYNAMIC                  ::
         :::::::::::::::::::::::::::::::::::::::::::::::::::::
         :: total free energy        -103.297795946614 Eh   ::
         ::.................................................::
         :: total energy             -103.734771298158 Eh   ::
         :: zero point energy           0.499933967389 Eh   ::
         :: G(RRHO) w/o ZPVE           -0.062958615844 Eh   ::
         :: G(RRHO) contrib.            0.436975351545 Eh   ::
         :::::::::::::::::::::::::::::::::::::::::::::::::::::

           -------------------------------------------------
          | TOTAL ENERGY             -103.734771298158 Eh   |
          | TOTAL ENTHALPY           -103.200088027662 Eh   |
          | TOTAL FREE ENERGY        -103.297795946614 Eh   |
          | GRADIENT NORM               0.000115098279 Eh/α |
           -------------------------------------------------

 * finished run on 2025/07/18 at 08:03:19.312
