   * xtb version 6.7.1 (edcfbbe) compiled by 'albert@albert-system' on 2024-07-22

   ID    Z sym.   atoms
    1    8 O      1, 3
    2   16 S      2
    3    6 C      4-40
    4    1 H      41-66

          program call               : xtb data2507/gas/DPPSPF/DPPSPF_gas_T1_crest.xyz --gfn 2 --spinpol --tblite --uhf 2 --ohess vtight --parallel 40 --molden --ceasefiles --namespace data2507/gas/DPPSPF/DPPSPF_gas_T1_finalOpt
 * total energy  :  -103.7347935 Eh     change       -0.2131031E-07 Eh
 * total energy  :  -103.7348072 Eh     change       -0.1370386E-04 Eh
 * total energy  :  -103.7348109 Eh     change       -0.3684551E-05 Eh
 * total energy  :  -103.7348114 Eh     change       -0.4984730E-06 Eh
 * total energy  :  -103.7348119 Eh     change       -0.5627843E-06 Eh
 * total energy  :  -103.7348124 Eh     change       -0.5206825E-06 Eh
 * total energy  :  -103.7348132 Eh     change       -0.7613229E-06 Eh
 * total energy  :  -103.7348139 Eh     change       -0.7404183E-06 Eh
 * total energy  :  -103.7348142 Eh     change       -0.2389993E-06 Eh
 * total energy  :  -103.7348143 Eh     change       -0.7861466E-07 Eh
   *** GEOMETRY OPTIMIZATION CONVERGED AFTER 10 ITERATIONS ***

 final structure:
================
66
 xtb: 6.7.1 (edcfbbe)
O            6.32040870966280       -1.52044041364606        1.75980858930434
S            5.72538428282261       -1.32681892012428        0.46241666597708
O            5.77640456976328       -2.40816787924558       -0.48759058582973
C            6.46355022999277        0.13174455849631       -0.28831106519358
C            7.08155633206054        1.06969061630727        0.51559698992736
C            7.60219329393174        2.21638254544676       -0.06044259096647
C            7.49266407159460        2.41228347646088       -1.42844183380234
C            6.87033272018838        1.46374519441410       -2.22575710298380
C            6.34901423197335        0.31621121350598       -1.65276433571487
C            4.03492443996679       -0.80871337640177        0.66294216671445
C            3.67191680350488       -0.05369821639837        1.77718005257123
C            2.39015115349470        0.40540223265035        1.90806098624551
C            1.39232269624778        0.12591003862528        0.92469714813647
C            0.06171289320244        0.58498637691081        1.05785428665783
C           -0.28490519832615        1.65419984157087        1.96870615323777
C           -1.55003005442817        2.11237684883460        2.11319068629920
C           -2.60396902560099        1.51913098727434        1.36293224391932
C           -2.28186547029626        0.44205024203766        0.45723928127935
C           -1.01557194126181        0.00694611303078        0.29452163910828
C           -3.54614600224996       -0.03979929145013       -0.23093072752525
C           -3.35302025783827        0.14382374708525       -1.72331186668569
C           -3.71266031074775        1.33190506009942       -2.34554769732935
C           -3.47831266874488        1.51562798728078       -3.69706556729470
C           -2.87011059475979        0.51968944579949       -4.44070940343504
C           -2.49480772785985       -0.66194388537081       -3.82381138432522
C           -2.73188905106566       -0.84803084709919       -2.47435115017534
C           -3.93586314249189       -1.45824762562536        0.14124065339916
C           -4.83189839429275       -2.16565936684200       -0.65254379650262
C           -5.24112471382174       -3.43532146448468       -0.28881503657115
C           -4.76578298964190       -4.01336088938751        0.87623464822980
C           -3.88283054998423       -3.31042824124928        1.67691084918675
C           -3.47481584592570       -2.03841997152689        1.31545735883954
C           -4.58758813169591        0.88434436575111        0.36919363155932
C           -5.93624086819550        0.92566234037668        0.13905898350015
C           -6.71346086451453        1.85680796245134        0.83279316316958
C           -6.13057222597091        2.73162831025966        1.75528872591221
C           -4.78151091584406        2.70312523415129        2.00684869950528
C           -3.98001883656090        1.77071939655723        1.31329152241420
C            1.80778430467113       -0.65048875388168       -0.20028124927274
C            3.09627744571917       -1.09144604444325       -0.32774911213616
H            7.16210413854408        0.87601630908407        1.57369512393404
H            8.09470950490758        2.95456088969591        0.55460559865043
H            7.89949245821110        3.30658065547002       -1.87693421206836
H            6.79434150463305        1.61830332356082       -3.29163255119080
H            5.87274271829820       -0.44855119837433       -2.24578162377343
H            4.41618912750612        0.13024908665257        2.53629418173320
H            2.12077191550288        0.94769199184712        2.79986506203262
H            0.50852144843894        2.13316632402019        2.51948293394722
H           -1.77133343875485        2.92927922871656        2.78371925597529
H           -0.81234769193390       -0.81625101393249       -0.37048656829878
H           -4.18112786970229        2.11789607170576       -1.77075745954463
H           -3.77002019808475        2.44242329542325       -4.16906037070186
H           -2.68696922067551        0.66366127505362       -5.49515482976903
H           -2.01586675223834       -1.44298876590906       -4.39612367761539
H           -2.44475253319660       -1.77668098326987       -2.00230720546360
H           -5.20129084936431       -1.72479334072237       -1.56732046245296
H           -5.93375096449585       -3.97534699075714       -0.91776851239135
H           -5.08428489897762       -5.00557621261480        1.15922053204318
H           -3.51022588112786       -3.75162259480803        2.58962957792786
H           -2.79035665295623       -1.49497519319176        1.95054783070293
H           -6.39978616428622        0.25507251083128       -0.56887786541202
H           -7.77702595472557        1.90079925632307        0.65570455969512
H           -6.75982323671689        3.43832772753325        2.27655527800116
H           -4.33185661580974        3.37487895142860        2.72185442331509
H            1.10451547906971       -0.85979868852615       -0.98996452582611
H            3.41063375025727       -1.67800790974143       -1.17698720110026

 projected vibrational frequencies (cm⁻¹)
eigval :       -0.00    -0.00    -0.00    -0.00     0.00     0.00
eigval :        5.41    10.38    20.03    21.56    34.49    36.07
eigval :       43.16    46.35    52.67    58.67    69.61    76.00
eigval :       83.51   106.80   125.63   136.14   142.92   146.87
eigval :      173.52   204.84   211.40   223.58   234.95   257.72
eigval :      267.49   275.98   284.70   288.83   307.37   324.06
eigval :      340.42   354.40   362.20   364.34   371.51   378.22
eigval :      387.37   396.31   421.67   432.08   449.24   452.62
eigval :      464.30   477.88   487.23   504.90   518.46   533.00
eigval :      535.87   584.66   586.38   587.87   589.06   597.23
eigval :      601.75   608.37   627.91   646.38   657.52   662.15
eigval :      668.66   676.18   681.79   693.08   699.34   712.06
eigval :      741.39   747.64   750.63   759.28   778.54   781.53
eigval :      788.33   813.49   829.89   840.62   879.01   879.13
eigval :      880.32   890.81   892.88   895.85   899.97   901.14
eigval :      905.13   907.23   908.82   911.30   912.18   914.15
eigval :      926.23   930.75   930.98   931.35   934.23   935.96
eigval :      956.81   967.81   974.42   984.31  1000.69  1004.34
eigval :     1054.72  1069.75  1074.28  1085.43  1088.24  1098.51
eigval :     1101.75  1103.12  1119.60  1122.68  1125.33  1127.66
eigval :     1129.77  1152.90  1161.30  1177.85  1178.30  1179.05
eigval :     1181.79  1181.93  1200.73  1202.62  1203.42  1210.90
eigval :     1224.32  1235.51  1237.60  1249.32  1251.74  1260.25
eigval :     1269.84  1285.09  1287.07  1302.72  1317.61  1321.04
eigval :     1322.75  1326.76  1333.09  1339.55  1360.58  1380.52
eigval :     1396.36  1402.35  1426.53  1430.93  1431.46  1436.69
eigval :     1444.78  1465.79  1471.78  1473.42  1475.12  1501.18
eigval :     1531.44  1562.04  1565.75  1575.15  1585.66  1589.29
eigval :     1594.99  1597.85  1600.00  1632.55  3072.31  3073.32
eigval :     3074.05  3075.97  3077.81  3079.72  3081.07  3081.16
eigval :     3082.13  3085.64  3086.42  3086.52  3087.46  3092.80
eigval :     3094.09  3094.25  3094.67  3095.24  3095.67  3099.71
eigval :     3103.04  3104.43  3105.62  3106.14  3111.04  3113.54

   temp. (K)  partition function   enthalpy   heat capacity  entropy
                                   cal/mol     cal/K/mol   cal/K/mol   J/K/mol
 298.15  VIB  0.126E+17            19437.359    120.317    122.720
         ROT  0.558E+08              888.752      2.981     38.430
         INT  0.703E+24            20326.111    123.298    161.149
         TR   0.120E+29             1481.254      4.968     44.695
         TOT                       21807.3648   128.2660   205.8442   861.2523

       T/K    H(0)-H(T)+PV         H(T)/Eh          T*S/Eh         G(T)/Eh
   ------------------------------------------------------------------------
    298.15    0.347522E-01    0.534701E+00    0.978032E-01    0.436898E+00
   ------------------------------------------------------------------------

         :::::::::::::::::::::::::::::::::::::::::::::::::::::
         ::                  THERMODYNAMIC                  ::
         :::::::::::::::::::::::::::::::::::::::::::::::::::::
         :: total free energy        -103.297916276072 Eh   ::
         ::.................................................::
         :: total energy             -103.734814217627 Eh   ::
         :: zero point energy           0.499948937247 Eh   ::
         :: G(RRHO) w/o ZPVE           -0.063050995692 Eh   ::
         :: G(RRHO) contrib.            0.436897941555 Eh   ::
         :::::::::::::::::::::::::::::::::::::::::::::::::::::

           -------------------------------------------------
          | TOTAL ENERGY             -103.734814217627 Eh   |
          | TOTAL ENTHALPY           -103.200113032484 Eh   |
          | TOTAL FREE ENERGY        -103.297916276072 Eh   |
          | GRADIENT NORM               0.000061947142 Eh/α |
           -------------------------------------------------

 * finished run on 2025/07/18 at 08:07:53.819
