   * xtb version 6.7.1 (edcfbbe) compiled by 'albert@albert-system' on 2024-07-22

   ID    Z sym.   atoms
    1    8 O      1, 3
    2   16 S      2
    3    6 C      4-40
    4    1 H      41-66

          program call               : xtb data2507/gas/DPPSPF/DPPSPF_gas_S0_crest.xyz --gfn 2 --ohess vtight --parallel 40 --molden --ceasefiles --namespace data2507/gas/DPPSPF/DPPSPF_gas_S0_finalOpt
          :  Hamiltonian                  GFN2-xTB          :
 * total energy  :  -103.8283267 Eh     change       -0.1502741E-08 Eh
 * total energy  :  -103.8283274 Eh     change       -0.6364621E-06 Eh
 * total energy  :  -103.8283280 Eh     change       -0.6105459E-06 Eh
 * total energy  :  -103.8283295 Eh     change       -0.1571938E-05 Eh
 * total energy  :  -103.8283307 Eh     change       -0.1174092E-05 Eh
 * total energy  :  -103.8283319 Eh     change       -0.1194497E-05 Eh
 * total energy  :  -103.8283330 Eh     change       -0.1059933E-05 Eh
 * total energy  :  -103.8283340 Eh     change       -0.1022631E-05 Eh
 * total energy  :  -103.8283352 Eh     change       -0.1163847E-05 Eh
 * total energy  :  -103.8283365 Eh     change       -0.1392818E-05 Eh
 * total energy  :  -103.8283416 Eh     change       -0.8343540E-06 Eh
 * total energy  :  -103.8283422 Eh     change       -0.6031896E-06 Eh
 * total energy  :  -103.8283427 Eh     change       -0.4671294E-06 Eh
 * total energy  :  -103.8283430 Eh     change       -0.3463480E-06 Eh
 * total energy  :  -103.8283433 Eh     change       -0.2637157E-06 Eh
 * total energy  :  -103.8283435 Eh     change       -0.1827174E-06 Eh
 * total energy  :  -103.8283436 Eh     change       -0.1352804E-06 Eh
 * total energy  :  -103.8283437 Eh     change       -0.1115593E-06 Eh
 * total energy  :  -103.8283437 Eh     change       -0.1218319E-07 Eh
   *** GEOMETRY OPTIMIZATION CONVERGED AFTER 22 ITERATIONS ***

 final structure:
================
66
 xtb: 6.7.1 (edcfbbe)
O            6.06468081207673        1.69169154500837       -1.74307824741473
S            5.65867651225996        1.36197073785364       -0.40197392291924
O            5.74101262444040        2.38260721170132        0.60965865751641
C            6.59760996967903       -0.07257209675064        0.14141900577279
C            7.36702418870688       -0.77201096262983       -0.76661144404397
C            8.05726261169514       -1.89613462984130       -0.34318360853338
C            7.96405140930856       -2.30523959646448        0.97770988325370
C            7.18775890311880       -1.59457003971681        1.88063852816409
C            6.49697384454279       -0.47046364521020        1.46043234787491
C            3.98165845120681        0.72410371841426       -0.43797677605876
C            3.61930566946216       -0.14375075581841       -1.45045216463348
C            2.34240787852893       -0.67173836695861       -1.46598151607095
C            1.42364038690501       -0.33406089412811       -0.47103188636097
C            0.06320763094533       -0.88913501407899       -0.48853480557057
C           -0.15008740566852       -2.23022929866731       -0.80943209383975
C           -1.42208285836566       -2.77316822660156       -0.82047923828887
C           -2.49988762532499       -1.95759493448678       -0.51543969773258
C           -2.29460810474536       -0.60587017050157       -0.20252926546496
C           -1.02707320469971       -0.07246525013910       -0.17869551333084
C           -3.61095246045890        0.07881490935805        0.10934070257171
C           -3.53021417861177        0.59194003063288        1.53413725933408
C           -3.94418115912151       -0.19318315056525        2.60177537215800
C           -3.80907908603283        0.26234588871781        3.90176393422097
C           -3.24926255614206        1.50274638201320        4.15211195512999
C           -2.82219991580636        2.28573240949938        3.09304477379344
C           -2.95905476669969        1.83291902302971        1.79364436082552
C           -3.97928859066381        1.16692093441227       -0.88042194531401
C           -4.93880568286004        2.11546605438346       -0.54491967881741
C           -5.32639817153065        3.07694268052228       -1.46004160326126
C           -4.76512434298133        3.10054451184043       -2.72541604746778
C           -3.81754488042913        2.15288012209104       -3.06973999626719
C           -3.42998695348094        1.18898975819251       -2.15538039652218
C           -4.59204100903520       -1.06316145579628       -0.07390142419067
C           -5.96431717639917       -1.04907754055445        0.05553981805986
C           -6.66783760534655       -2.22220717297893       -0.18193894957302
C           -6.00812820597937       -3.38609031124216       -0.54695267117290
C           -4.63006537996459       -3.40540766945263       -0.68525736466216
C           -3.92321310260216       -2.23761604539699       -0.44869304192781
C            1.81243817478846        0.54521002239545        0.54014459345926
C            3.09115222070838        1.07005080655832        0.55943608648768
H            7.42299973459863       -0.41493219453365       -1.78314246503134
H            8.66777769424762       -2.45007601791411       -1.04027430411890
H            8.50326093334978       -3.18088348246503        1.30756814941215
H            7.12362226983497       -1.91551453585781        2.90941756437104
H            5.89511168647987        0.11162452905981        2.14059929952548
H            4.33546259860921       -0.37867429920021       -2.22232563333136
H            2.04294098173248       -1.33305863359319       -2.26524127375447
H            0.69999240919406       -2.86003633144661       -1.02754161193042
H           -1.56950478805724       -3.81551987975423       -1.06049857962894
H           -0.87136456294137        0.97122629742740        0.04859940527733
H           -4.37720959088570       -1.16554652577293        2.41743190330753
H           -4.14185452000532       -0.35701344044862        4.72189885013309
H           -3.14460335993649        1.85747783146468        5.16675215791585
H           -2.38043892610953        3.25396532249796        3.27876260529891
H           -2.63153607238041        2.45460178915758        0.97268990662423
H           -5.37651071718004        2.10900141425268        0.44303795598514
H           -6.06998481682734        3.81023638228860       -1.18356439538725
H           -5.06646820157272        3.85258734184005       -3.43943014376577
H           -3.37698066792528        2.16103676163309       -4.05597321364930
H           -2.69347762001154        0.45034324603296       -2.43643990580678
H           -6.48529851759307       -0.14659876304392        0.33810118816881
H           -7.74319028946537       -2.22763369707003       -0.08157557194328
H           -6.57668484598514       -4.28676130523542       -0.72694132930578
H           -4.11800770365736       -4.31174245501384       -0.97235978450763
H            1.11237634657533        0.80099052079338        1.32165940605238
H            3.41284187448509        1.75639496865837        1.32720098670690

          :  Hamiltonian                  GFN2-xTB          :
         :: gradient norm              0.000070827261 Eh/a0 ::
         :: HOMO-LUMO gap              2.953888803066 eV    ::
         :: SCC energy              -105.699982907606 Eh    ::
         :: -> dispersion             -0.093412293427 Eh    ::
         :: repulsion energy           1.871639167974 Eh    ::

    * Orbital Energies and Occupations

         #    Occupation            Energy/Eh            Energy/eV
      -------------------------------------------------------------
         1        2.0000           -0.7640260             -20.7902
       ...           ...                  ...                  ...
        84        2.0000           -0.4248032             -11.5595
        85        2.0000           -0.4238302             -11.5330
        86        2.0000           -0.4217199             -11.4756
        87        2.0000           -0.4207097             -11.4481
        88        2.0000           -0.4162677             -11.3272
        89        2.0000           -0.4145501             -11.2805
        90        2.0000           -0.4082357             -11.1087
        91        2.0000           -0.4061470             -11.0518
        92        2.0000           -0.4021075             -10.9419
        93        2.0000           -0.3997911             -10.8789
        94        2.0000           -0.3988374             -10.8529
        95        2.0000           -0.3934516             -10.7064
        96        2.0000           -0.3829435             -10.4204 (HOMO)
        97                         -0.2743900              -7.4665 (LUMO)
        98                         -0.2567747              -6.9872
        99                         -0.2463832              -6.7044
       100                         -0.2436257              -6.6294
       101                         -0.2405325              -6.5452
       102                         -0.2353629              -6.4046
       103                         -0.2324748              -6.3260
       104                         -0.2272597              -6.1841
       105                         -0.2232355              -6.0745
       106                         -0.2214323              -6.0255
       107                         -0.2194789              -5.9723
       ...                                ...                  ...
       191                          1.2097633              32.9193
      -------------------------------------------------------------
                  HL-Gap            0.1085535 Eh            2.9539 eV

     #   Z          covCN         q      C6AA      α(0)
     1   8 O        0.860    -0.539    24.674     6.660
     2  16 S        3.816     0.937   108.465    17.529
     3   8 O        0.860    -0.539    24.675     6.660
     4   6 C        2.972    -0.073    29.807     8.955
     5   6 C        2.954    -0.025    28.632     8.776
     6   6 C        2.922    -0.024    28.598     8.770
     7   6 C        2.920    -0.024    28.614     8.772
     8   6 C        2.922    -0.024    28.597     8.769
     9   6 C        2.959    -0.027    28.672     8.783
    10   6 C        2.972    -0.077    29.915     8.972
    11   6 C        2.957    -0.029    28.716     8.789
    12   6 C        2.926    -0.030    28.758     8.794
    13   6 C        2.977     0.018    27.596     8.617
    14   6 C        2.979     0.006    27.883     8.662
    15   6 C        2.925    -0.037    28.926     8.820
    16   6 C        2.913    -0.034    28.851     8.808
    17   6 C        3.036     0.002    27.951     8.672
    18   6 C        3.057     0.006    27.835     8.652
    19   6 C        2.920    -0.038    28.936     8.821
    20   6 C        3.947     0.007    20.394     6.417
    21   6 C        2.980     0.017    27.630     8.622
    22   6 C        2.923    -0.036    28.893     8.815
    23   6 C        2.920    -0.030    28.746     8.792
    24   6 C        2.920    -0.032    28.803     8.801
    25   6 C        2.920    -0.030    28.759     8.794
    26   6 C        2.924    -0.034    28.856     8.809
    27   6 C        2.980     0.017    27.629     8.622
    28   6 C        2.924    -0.034    28.839     8.807
    29   6 C        2.920    -0.030    28.747     8.792
    30   6 C        2.920    -0.032    28.791     8.799
    31   6 C        2.920    -0.029    28.736     8.791
    32   6 C        2.923    -0.036    28.888     8.814
    33   6 C        3.059     0.005    27.848     8.654
    34   6 C        2.914    -0.033    28.815     8.802
    35   6 C        2.922    -0.031    28.779     8.797
    36   6 C        2.921    -0.032    28.802     8.801
    37   6 C        2.914    -0.033    28.832     8.805
    38   6 C        3.036     0.001    27.967     8.674
    39   6 C        2.926    -0.030    28.749     8.793
    40   6 C        2.952    -0.027    28.666     8.782
    41   1 H        0.926     0.064     2.157     2.297
    42   1 H        0.926     0.050     2.321     2.382
    43   1 H        0.926     0.048     2.344     2.394
    44   1 H        0.926     0.049     2.335     2.390
    45   1 H        0.926     0.052     2.294     2.369
    46   1 H        0.926     0.051     2.307     2.375
    47   1 H        0.926     0.049     2.333     2.388
    48   1 H        0.926     0.033     2.542     2.493
    49   1 H        0.926     0.035     2.514     2.480
    50   1 H        0.926     0.036     2.503     2.474
    51   1 H        0.926     0.030     2.587     2.515
    52   1 H        0.926     0.031     2.578     2.511
    53   1 H        0.926     0.031     2.571     2.508
    54   1 H        0.926     0.031     2.565     2.505
    55   1 H        0.926     0.031     2.574     2.509
    56   1 H        0.926     0.031     2.575     2.510
    57   1 H        0.926     0.031     2.570     2.507
    58   1 H        0.926     0.031     2.567     2.505
    59   1 H        0.926     0.031     2.570     2.507
    60   1 H        0.926     0.029     2.605     2.524
    61   1 H        0.926     0.032     2.559     2.501
    62   1 H        0.926     0.032     2.554     2.499
    63   1 H        0.926     0.032     2.561     2.502
    64   1 H        0.926     0.032     2.559     2.501
    65   1 H        0.926     0.050     2.321     2.382
    66   1 H        0.926     0.062     2.177     2.307

molecular dipole:
                 x           y           z       tot (Debye)
 q only:       -1.246      -2.182       0.563
   full:       -1.197      -2.193       0.561       6.509

 projected vibrational frequencies (cm⁻¹)
eigval :       -0.00    -0.00    -0.00     0.00     0.00     0.00
eigval :        5.67    13.44    17.49    21.59    31.46    37.00
eigval :       43.72    47.33    53.48    61.60    71.78    79.20
eigval :       83.12   120.92   126.10   135.34   144.16   153.97
eigval :      185.24   209.58   213.65   231.07   247.23   268.16
eigval :      274.99   283.62   289.36   306.80   315.85   340.56
eigval :      345.84   362.76   367.83   370.45   375.24   378.74
eigval :      395.21   417.50   441.61   446.87   461.28   473.78
eigval :      482.31   498.77   501.03   517.74   531.10   544.26
eigval :      573.70   585.17   588.12   589.12   596.49   611.41
eigval :      618.23   625.70   636.06   658.60   670.04   670.47
eigval :      680.79   690.37   694.88   702.19   725.60   729.73
eigval :      749.94   753.79   761.89   775.77   803.01   808.72
eigval :      836.96   874.55   877.65   880.21   880.42   880.81
eigval :      885.44   902.50   905.27   906.19   907.32   911.16
eigval :      915.36   918.03   919.48   927.48   927.85   929.34
eigval :      931.30   931.67   932.73   933.01   934.83   936.02
eigval :      968.46   988.37   998.11  1002.20  1010.87  1069.91
eigval :     1074.82  1079.56  1086.82  1089.02  1090.18  1102.98
eigval :     1111.19  1117.84  1122.03  1125.84  1128.10  1133.04
eigval :     1153.79  1170.96  1176.54  1178.04  1179.12  1182.23
eigval :     1182.44  1185.72  1194.95  1203.26  1206.59  1227.71
eigval :     1230.14  1238.90  1240.59  1254.19  1257.20  1261.20
eigval :     1278.27  1286.45  1288.55  1303.00  1317.27  1320.37
eigval :     1322.36  1322.94  1327.25  1362.64  1390.41  1421.03
eigval :     1429.25  1430.85  1434.55  1436.99  1445.54  1448.59
eigval :     1464.04  1474.02  1476.67  1484.69  1572.72  1576.67
eigval :     1578.09  1581.36  1586.93  1590.38  1592.61  1597.79
eigval :     1598.16  1599.79  1603.73  1605.18  3071.72  3072.68
eigval :     3074.69  3075.18  3075.30  3078.08  3081.35  3081.47
eigval :     3081.58  3082.35  3085.20  3086.68  3087.12  3087.43
eigval :     3088.23  3088.72  3090.90  3093.11  3093.64  3094.14
eigval :     3095.28  3095.44  3102.11  3102.90  3104.33  3104.79

   temp. (K)  partition function   enthalpy   heat capacity  entropy
                                   cal/mol     cal/K/mol   cal/K/mol   J/K/mol
 298.15  VIB  0.545E+16            19021.315    118.152    119.915
         ROT  0.562E+08              888.752      2.981     38.442
         INT  0.306E+24            19910.067    121.133    158.357
         TR   0.120E+29             1481.254      4.968     44.695
         TOT                       21391.3211   126.1011   203.0524   849.5711

       T/K    H(0)-H(T)+PV         H(T)/Eh          T*S/Eh         G(T)/Eh
   ------------------------------------------------------------------------
    298.15    0.340892E-01    0.538151E+00    0.964767E-01    0.441674E+00
   ------------------------------------------------------------------------

         :::::::::::::::::::::::::::::::::::::::::::::::::::::
         ::                  THERMODYNAMIC                  ::
         :::::::::::::::::::::::::::::::::::::::::::::::::::::
         :: total free energy        -103.386669349747 Eh   ::
         ::.................................................::
         :: total energy             -103.828343739631 Eh   ::
         :: zero point energy           0.504061881108 Eh   ::
         :: G(RRHO) w/o ZPVE           -0.062387491224 Eh   ::
         :: G(RRHO) contrib.            0.441674389884 Eh   ::
         :::::::::::::::::::::::::::::::::::::::::::::::::::::

           -------------------------------------------------
          | TOTAL ENERGY             -103.828343739631 Eh   |
          | TOTAL ENTHALPY           -103.290192618489 Eh   |
          | TOTAL FREE ENERGY        -103.386669349747 Eh   |
          | GRADIENT NORM               0.000070852628 Eh/α |
          | HOMO-LUMO GAP               2.953891029714 eV   |
           -------------------------------------------------

 * finished run on 2025/07/18 at 08:03:08.715
