   * xtb version 6.7.1 (edcfbbe) compiled by 'albert@albert-system' on 2024-07-22

   ID    Z sym.   atoms
    1    8 O      1, 3
    2   16 S      2
    3    6 C      4-40
    4    1 H      41-66

          program call               : xtb data2507/gas/DPPSPF/DPPSPF.xyz --gfn 2 --ohess vtight --parallel 40 --molden --ceasefiles --namespace data2507/gas/DPPSPF/DPPSPF_gas_S0_preOpt
          :  Hamiltonian                  GFN2-xTB          :
 * total energy  :  -103.8120676 Eh     change       -0.1823068E-08 Eh
 * total energy  :  -103.8232561 Eh     change       -0.1118848E-01 Eh
 * total energy  :  -103.8265773 Eh     change       -0.3321139E-02 Eh
 * total energy  :  -103.8272272 Eh     change       -0.6499021E-03 Eh
 * total energy  :  -103.8274413 Eh     change       -0.2141239E-03 Eh
 * total energy  :  -103.8275514 Eh     change       -0.1101565E-03 Eh
 * total energy  :  -103.8276627 Eh     change       -0.1112554E-03 Eh
 * total energy  :  -103.8277775 Eh     change       -0.1148223E-03 Eh
 * total energy  :  -103.8278986 Eh     change       -0.1210404E-03 Eh
 * total energy  :  -103.8280014 Eh     change       -0.1028286E-03 Eh
 * total energy  :  -103.8282936 Eh     change       -0.1577517E-05 Eh
 * total energy  :  -103.8282957 Eh     change       -0.2131776E-05 Eh
 * total energy  :  -103.8282984 Eh     change       -0.2703564E-05 Eh
 * total energy  :  -103.8283014 Eh     change       -0.3012450E-05 Eh
 * total energy  :  -103.8283044 Eh     change       -0.2964344E-05 Eh
 * total energy  :  -103.8283069 Eh     change       -0.2493349E-05 Eh
 * total energy  :  -103.8283086 Eh     change       -0.1736629E-05 Eh
 * total energy  :  -103.8283098 Eh     change       -0.1164915E-05 Eh
 * total energy  :  -103.8283098 Eh     change       -0.2805201E-07 Eh
   *** GEOMETRY OPTIMIZATION CONVERGED AFTER 44 ITERATIONS ***

 final structure:
================
66
 xtb: 6.7.1 (edcfbbe)
O            6.28826136923474        1.76039286779459       -2.39915235510435
S            5.95897222418846        1.75463851733594       -0.99782613502513
O            5.99250048847104        3.00347959018948       -0.28289849513793
C            7.03266462104330        0.57561968310021       -0.16589529305796
C            7.89192896280171       -0.21194750344121       -0.90535210033728
C            8.68906565381096       -1.13883345811862       -0.25335354611372
C            8.61134797398725       -1.26649947112761        1.12443522171752
C            7.74353478997948       -0.47011751791464        1.85649726233406
C            6.94596487699333        0.45740135104588        1.20775316549870
C            4.34030165913387        1.01140929977215       -0.77788746727628
C            4.05909325199515       -0.17185655441463       -1.43404127097974
C            2.83027279961301       -0.77520173949428       -1.24622453863043
C            1.87845826629791       -0.19728345224325       -0.40464624387607
C            0.56794244959267       -0.83286520231521       -0.21017724475876
C            0.46774293682804       -2.21566800953136       -0.05327540354273
C           -0.75643580788391       -2.83040164217867        0.13759613339094
C           -1.90065281821025       -2.04926014868139        0.15970801126942
C           -1.80890779689418       -0.65972621602053       -0.00774317188099
C           -0.58848051328186       -0.04973506112736       -0.18143651426597
C           -3.18113823584586       -0.01886076014946        0.06162874732419
C           -3.17419293515417        0.95560778840898        1.22362318068526
C           -3.55649886694110        0.55442958633900        2.49662269205359
C           -3.49170925782860        1.43804730697338        3.56001740263042
C           -3.03404805262800        2.72959159388809        3.36748106828836
C           -2.63796347844495        3.13254053974542        2.10342473071894
C           -2.70504393790283        2.25163514026976        1.03960755543424
C           -3.61139915428333        0.63185409619469       -1.23889010321644
C           -4.64868669493013        1.55754689289853       -1.24281221029179
C           -5.08916380741703        2.11424250717666       -2.42949752035431
C           -4.50338473511176        1.74948645461163       -3.62972553403170
C           -3.47790761214934        0.82056724469160       -3.63435873904325
C           -3.03741453733196        0.26121826878971       -2.44760728892460
C           -4.06523812478544       -1.23041968405765        0.28654455700560
C           -5.43675228673950       -1.28416888409477        0.41367095064181
C           -6.04070060240945       -2.52075027749322        0.59713525641298
C           -5.28398769272713       -3.68176107422598        0.64732725315980
C           -3.90614876939543       -3.63549265647728        0.51314768704878
C           -3.29844697522404       -2.40395158533346        0.33053211688242
C            2.18491532528735        0.99839872729656        0.24551870331892
C            3.41649906944651        1.59955669230209        0.06334172680037
H            7.92837327964503       -0.07609018323140       -1.97508796831468
H            9.36981120880767       -1.75822166115126       -0.81766911613909
H            9.23349522269027       -1.98840618917178        1.63245512181887
H            7.69080427707964       -0.57184154420690        2.92998395023339
H            6.26879923663589        1.09896999460971        1.74984700920007
H            4.79897457089328       -0.59576841299155       -2.09514865788387
H            2.59297400556241       -1.68892940693905       -1.77028080544157
H            1.36876337098365       -2.81154261795088       -0.05629950139210
H           -0.81634467413526       -3.90057244431032        0.26792001282414
H           -0.51981244294209        1.01799035310183       -0.32436615487493
H           -3.91002963719041       -0.45336848670284        2.65886312360057
H           -3.79965686921047        1.11361887980993        4.54332442006447
H           -2.98483544093639        3.41863205920691        4.19759496021014
H           -2.27541251611027        4.13767001226613        1.94410042449500
H           -2.40334584541083        2.57781624288030        0.05456884006392
H           -5.10632771029279        1.85380151134514       -0.30982180109896
H           -5.89321480770344        2.83562888507372       -2.41640794063945
H           -4.84601064948249        2.18584205135181       -4.55621691087327
H           -3.01738048562891        0.52681668960331       -4.56626649913069
H           -2.23994054710912       -0.46734186504795       -2.46340023523563
H           -6.03271361454456       -0.38470370826848        0.37448781417622
H           -7.11412365966158       -2.57873883352694        0.70147934697950
H           -5.77606386273634       -4.63260551976928        0.79090969727462
H           -3.31853807910388       -4.54073832294291        0.54946885407997
H            1.45946280987864        1.44449888294311        0.90960798471370
H            3.67712883483070        2.52471938363979        0.55354578450554

          :  Hamiltonian                  GFN2-xTB          :
         :: gradient norm              0.000090689796 Eh/a0 ::
         :: HOMO-LUMO gap              2.964306845887 eV    ::
         :: SCC energy              -105.699918281087 Eh    ::
         :: -> dispersion             -0.093486522520 Eh    ::
         :: repulsion energy           1.871608484147 Eh    ::

    * Orbital Energies and Occupations

         #    Occupation            Energy/Eh            Energy/eV
      -------------------------------------------------------------
         1        2.0000           -0.7640941             -20.7921
       ...           ...                  ...                  ...
        84        2.0000           -0.4248397             -11.5605
        85        2.0000           -0.4237862             -11.5318
        86        2.0000           -0.4217281             -11.4758
        87        2.0000           -0.4206925             -11.4476
        88        2.0000           -0.4163086             -11.3283
        89        2.0000           -0.4145344             -11.2801
        90        2.0000           -0.4081679             -11.1068
        91        2.0000           -0.4061155             -11.0510
        92        2.0000           -0.4020973             -10.9416
        93        2.0000           -0.3997261             -10.8771
        94        2.0000           -0.3990827             -10.8596
        95        2.0000           -0.3934294             -10.7058
        96        2.0000           -0.3829736             -10.4212 (HOMO)
        97                         -0.2740374              -7.4569 (LUMO)
        98                         -0.2567012              -6.9852
        99                         -0.2465608              -6.7093
       100                         -0.2439110              -6.6372
       101                         -0.2408950              -6.5551
       102                         -0.2352877              -6.4025
       103                         -0.2324678              -6.3258
       104                         -0.2272038              -6.1825
       105                         -0.2231762              -6.0729
       106                         -0.2214673              -6.0264
       107                         -0.2194710              -5.9721
       ...                                ...                  ...
       191                          1.2115601              32.9682
      -------------------------------------------------------------
                  HL-Gap            0.1089362 Eh            2.9643 eV

     #   Z          covCN         q      C6AA      α(0)
     1   8 O        0.860    -0.540    24.680     6.661
     2  16 S        3.816     0.938   108.450    17.527
     3   8 O        0.860    -0.540    24.677     6.660
     4   6 C        2.972    -0.072    29.797     8.954
     5   6 C        2.954    -0.025    28.623     8.775
     6   6 C        2.922    -0.024    28.595     8.769
     7   6 C        2.920    -0.024    28.613     8.772
     8   6 C        2.922    -0.024    28.595     8.769
     9   6 C        2.960    -0.027    28.674     8.783
    10   6 C        2.972    -0.076    29.904     8.970
    11   6 C        2.958    -0.029    28.720     8.790
    12   6 C        2.926    -0.030    28.755     8.794
    13   6 C        2.978     0.018    27.594     8.617
    14   6 C        2.979     0.006    27.883     8.662
    15   6 C        2.925    -0.037    28.926     8.820
    16   6 C        2.913    -0.034    28.851     8.808
    17   6 C        3.036     0.002    27.951     8.672
    18   6 C        3.056     0.006    27.834     8.652
    19   6 C        2.920    -0.038    28.935     8.821
    20   6 C        3.947     0.007    20.395     6.417
    21   6 C        2.980     0.017    27.631     8.623
    22   6 C        2.923    -0.036    28.893     8.815
    23   6 C        2.920    -0.030    28.746     8.792
    24   6 C        2.920    -0.032    28.802     8.801
    25   6 C        2.920    -0.030    28.758     8.794
    26   6 C        2.924    -0.034    28.854     8.809
    27   6 C        2.980     0.017    27.628     8.622
    28   6 C        2.924    -0.034    28.839     8.807
    29   6 C        2.920    -0.030    28.747     8.792
    30   6 C        2.920    -0.032    28.791     8.799
    31   6 C        2.920    -0.029    28.736     8.791
    32   6 C        2.923    -0.036    28.888     8.814
    33   6 C        3.059     0.005    27.848     8.654
    34   6 C        2.914    -0.033    28.815     8.802
    35   6 C        2.922    -0.031    28.780     8.797
    36   6 C        2.921    -0.032    28.802     8.801
    37   6 C        2.914    -0.033    28.832     8.805
    38   6 C        3.036     0.001    27.967     8.674
    39   6 C        2.926    -0.030    28.746     8.793
    40   6 C        2.951    -0.026    28.655     8.780
    41   1 H        0.926     0.065     2.147     2.291
    42   1 H        0.926     0.050     2.318     2.381
    43   1 H        0.926     0.048     2.342     2.393
    44   1 H        0.926     0.049     2.336     2.390
    45   1 H        0.926     0.050     2.319     2.382
    46   1 H        0.926     0.049     2.338     2.391
    47   1 H        0.926     0.049     2.334     2.389
    48   1 H        0.926     0.033     2.543     2.494
    49   1 H        0.926     0.035     2.514     2.480
    50   1 H        0.926     0.036     2.503     2.474
    51   1 H        0.926     0.030     2.586     2.515
    52   1 H        0.926     0.031     2.577     2.511
    53   1 H        0.926     0.031     2.571     2.507
    54   1 H        0.926     0.032     2.565     2.504
    55   1 H        0.926     0.031     2.575     2.509
    56   1 H        0.926     0.031     2.575     2.509
    57   1 H        0.926     0.031     2.570     2.507
    58   1 H        0.926     0.031     2.566     2.505
    59   1 H        0.926     0.031     2.570     2.507
    60   1 H        0.926     0.029     2.606     2.525
    61   1 H        0.926     0.032     2.559     2.501
    62   1 H        0.926     0.032     2.554     2.499
    63   1 H        0.926     0.032     2.561     2.502
    64   1 H        0.926     0.032     2.559     2.502
    65   1 H        0.926     0.050     2.318     2.381
    66   1 H        0.926     0.063     2.164     2.301

molecular dipole:
                 x           y           z       tot (Debye)
 q only:       -1.042      -2.040       1.140
   full:       -0.991      -2.049       1.140       6.472

 projected vibrational frequencies (cm⁻¹)
eigval :       -0.00    -0.00    -0.00     0.00     0.00     0.00
eigval :        5.93    13.62    17.09    21.37    31.78    36.55
eigval :       43.73    47.16    53.34    61.17    72.03    78.53
eigval :       83.00   119.39   127.40   133.76   144.08   153.78
eigval :      185.37   210.11   214.18   231.19   247.36   267.62
eigval :      274.11   282.64   289.51   306.77   315.67   338.56
eigval :      345.40   362.80   367.56   370.17   374.75   378.65
eigval :      396.54   417.24   442.74   447.98   461.15   474.32
eigval :      482.69   498.81   500.98   517.46   531.08   544.19
eigval :      573.71   585.19   588.12   589.11   596.53   611.46
eigval :      618.25   625.77   636.06   658.88   670.03   670.54
eigval :      680.99   690.35   694.85   702.34   725.58   729.85
eigval :      750.05   753.76   761.89   775.79   803.04   808.64
eigval :      836.89   874.70   877.67   880.35   880.41   880.77
eigval :      885.49   902.53   905.27   906.57   907.32   911.05
eigval :      915.16   918.03   919.51   927.85   927.99   929.69
eigval :      931.29   931.72   932.84   933.13   934.81   935.98
eigval :      968.47   988.40   998.23  1002.16  1010.89  1069.87
eigval :     1074.87  1079.58  1086.79  1089.05  1090.28  1103.19
eigval :     1111.31  1117.96  1122.41  1125.89  1128.13  1132.71
eigval :     1153.71  1170.94  1176.63  1177.96  1179.31  1182.22
eigval :     1182.42  1185.51  1195.00  1203.35  1206.68  1227.67
eigval :     1230.20  1238.83  1240.24  1254.35  1257.18  1261.02
eigval :     1278.29  1286.49  1288.56  1303.07  1317.25  1320.29
eigval :     1322.35  1322.89  1327.30  1362.71  1390.49  1421.03
eigval :     1429.25  1430.78  1434.58  1436.92  1446.03  1448.63
eigval :     1464.14  1474.23  1476.60  1484.86  1572.83  1576.82
eigval :     1578.08  1581.50  1586.94  1590.38  1592.64  1597.81
eigval :     1598.13  1599.80  1603.77  1605.21  3071.77  3072.72
eigval :     3074.71  3075.19  3075.30  3077.93  3081.36  3081.48
eigval :     3081.59  3082.43  3085.17  3086.67  3086.91  3087.48
eigval :     3088.11  3088.66  3090.77  3093.21  3093.65  3094.19
eigval :     3095.05  3095.31  3100.26  3102.25  3103.01  3104.35

   temp. (K)  partition function   enthalpy   heat capacity  entropy
                                   cal/mol     cal/K/mol   cal/K/mol   J/K/mol
 298.15  VIB  0.548E+16            19026.183    118.130    119.935
         ROT  0.563E+08              888.752      2.981     38.445
         INT  0.308E+24            19914.935    121.111    158.380
         TR   0.120E+29             1481.254      4.968     44.695
         TOT                       21396.1893   126.0787   203.0754   849.6674

       T/K    H(0)-H(T)+PV         H(T)/Eh          T*S/Eh         G(T)/Eh
   ------------------------------------------------------------------------
    298.15    0.340970E-01    0.538148E+00    0.964877E-01    0.441660E+00
   ------------------------------------------------------------------------

         :::::::::::::::::::::::::::::::::::::::::::::::::::::
         ::                  THERMODYNAMIC                  ::
         :::::::::::::::::::::::::::::::::::::::::::::::::::::
         :: total free energy        -103.386649801747 Eh   ::
         ::.................................................::
         :: total energy             -103.828309796925 Eh   ::
         :: zero point energy           0.504050663204 Eh   ::
         :: G(RRHO) w/o ZPVE           -0.062390668026 Eh   ::
         :: G(RRHO) contrib.            0.441659995178 Eh   ::
         :::::::::::::::::::::::::::::::::::::::::::::::::::::

           -------------------------------------------------
          | TOTAL ENERGY             -103.828309796925 Eh   |
          | TOTAL ENTHALPY           -103.290162135770 Eh   |
          | TOTAL FREE ENERGY        -103.386649801747 Eh   |
          | GRADIENT NORM               0.000090661667 Eh/α |
          | HOMO-LUMO GAP               2.964304995671 eV   |
           -------------------------------------------------

 * finished run on 2025/07/18 at 07:58:17.635
