   * xtb version 6.7.1 (edcfbbe) compiled by 'albert@albert-system' on 2024-07-22

   ID    Z sym.   atoms
    1    7 N      1, 7, 21
    2    6 C      2-6, 8-20, 22-34
    3    1 H      35-53

          program call               : xtb data2507/toluene/2CzBN/2CzBN.xyz --gfn 2 --gbsa toluene --ohess vtight --parallel 40 --molden --ceasefiles --namespace data2507/toluene/2CzBN/2CzBN_toluene_S0_preOpt
      * Solvation model:               GBSA
        Solvent                        toluene
        Solvent mass                       9.2140E+01 g/mol
          :  Hamiltonian                  GFN2-xTB          :
 * total energy  :   -84.8906854 Eh     change       -0.1036497E-08 Eh
 * total energy  :   -84.9029977 Eh     change       -0.1231233E-01 Eh
 * total energy  :   -84.9057083 Eh     change       -0.2710590E-02 Eh
 * total energy  :   -84.9063556 Eh     change       -0.6472698E-03 Eh
 * total energy  :   -84.9067245 Eh     change       -0.3689851E-03 Eh
 * total energy  :   -84.9068211 Eh     change       -0.9651721E-04 Eh
 * total energy  :   -84.9068993 Eh     change       -0.7821239E-04 Eh
 * total energy  :   -84.9069702 Eh     change       -0.7095689E-04 Eh
 * total energy  :   -84.9070243 Eh     change       -0.5410160E-04 Eh
 * total energy  :   -84.9070775 Eh     change       -0.5317092E-04 Eh
 * total energy  :   -84.9081242 Eh     change       -0.1366149E-05 Eh
 * total energy  :   -84.9081256 Eh     change       -0.1357013E-05 Eh
 * total energy  :   -84.9081268 Eh     change       -0.1230206E-05 Eh
 * total energy  :   -84.9081275 Eh     change       -0.7214642E-06 Eh
 * total energy  :   -84.9081279 Eh     change       -0.3235905E-06 Eh
 * total energy  :   -84.9081280 Eh     change       -0.1236934E-06 Eh
 * total energy  :   -84.9081279 Eh     change        0.6136536E-07 Eh
 * total energy  :   -84.9081281 Eh     change       -0.1739650E-06 Eh
 * total energy  :   -84.9081282 Eh     change       -0.8174052E-07 Eh
   *** GEOMETRY OPTIMIZATION CONVERGED AFTER 42 ITERATIONS ***

 final structure:
================
53
 xtb: 6.7.1 (edcfbbe)
N           -2.33521867696901       -6.31375353863896       -0.58349198859354
C           -1.72469944436574       -5.36447690112689       -0.37490077414271
C           -0.97384316570852       -4.19755714878354       -0.11299490100887
C            0.28168101216206       -4.29170091035915        0.49251599331595
C            0.99863851807401       -3.14268449889354        0.74932001800403
C            0.49339844415736       -1.88627286198015        0.41541644933563
N            1.23523287811618       -0.74253474972379        0.71366598108227
C            0.75878116988927        0.39170058157719        1.34930889241076
C           -0.43691014965734        0.58268291704604        2.02391691543580
C           -0.66195722153439        1.81922662761856        2.59913615238349
C            0.28680612852754        2.83572363000009        2.52696704848624
C            1.50271229391286        2.63060870900472        1.90407756215610
C            1.74954872507217        1.39677349200951        1.31773007293265
C            2.88384203162975        0.83281342988727        0.63787730679759
C            4.13430153599134        1.32994602472702        0.29559539508816
C            5.00983494193864        0.50837755728436       -0.38757696141937
C            4.64695114734942       -0.78916625675071       -0.73938726438844
C            3.40675710159887       -1.30522789748064       -0.41072513163106
C            2.53176395557672       -0.49025003786245        0.29158429511040
C           -0.76188701603042       -1.79371851180453       -0.22221461456868
N           -1.28410887604431       -0.55688182451015       -0.61505466547929
C           -0.61619043562707        0.40841990025381       -1.34795921442229
C            0.58995324844924        0.31911291103930       -2.02540058468927
C            1.03356115337000        1.43943172900754       -2.70222816794794
C            0.28733586792108        2.61486824278137       -2.72581977544824
C           -0.94063886552001        2.69022679850514       -2.09775743185858
C           -1.40590202405166        1.57717435412933       -1.41046116530345
C           -2.61698455494543        1.29215060469774       -0.69071787235701
C           -3.75421780981996        2.03546828640756       -0.40353937406393
C           -4.75647770355899        1.45064809039149        0.34561618089996
C           -4.63074688933192        0.14577448976269        0.81583799963533
C           -3.50777438925465       -0.61349173084608        0.54315797285014
C           -2.50650511825804       -0.03615161573881       -0.22328028368355
C           -1.48564188201544       -2.95167071398094       -0.47144644057829
H            0.67534566115918       -5.25819094581291        0.76712993769893
H            1.95540816920422       -3.20196003079487        1.24532456946724
H           -1.16805408081481       -0.20617651673589        2.11242443445606
H           -1.59263687677823        1.99617285710696        3.11771362628130
H            0.07254096047405        3.79077418612542        2.98333605682733
H            2.25046164219384        3.40872484177429        1.87749059916557
H            4.41031672535623        2.34047909252363        0.55601306215292
H            5.98781913590602        0.87566269069492       -0.66151663868567
H            5.34703022472682       -1.40599500277417       -1.28358187831057
H            3.13238529173201       -2.30735263505111       -0.70509942005394
H            1.16411144094437       -0.59468583580443       -2.03857945069986
H            1.97716887287455        1.39771165322611       -3.22599472969229
H            0.66971345427726        3.47204864897730       -3.26005700172703
H           -1.53249219781120        3.59188652968983       -2.14353211081494
H           -3.84692391368914        3.05110473671427       -0.75732302617850
H           -5.65000010241463        2.01113113383518        0.57768760662612
H           -5.42599217959989       -0.28333969281640        1.40774529752869
H           -3.41721437829685       -1.61972243881514        0.92576610658252
H           -2.44038278048137       -2.88386644970304       -0.97171866496434

          :  Hamiltonian                  GFN2-xTB          :
         :: gradient norm              0.000043919773 Eh/a0 ::
         :: HOMO-LUMO gap              2.308277919777 eV    ::
         :: SCC energy               -86.541087273868 Eh    ::
         :: -> dispersion             -0.083581705567 Eh    ::
         :: -> Gsolv                  -0.034674832768 Eh    ::
         :: repulsion energy           1.632959085738 Eh    ::

    * Orbital Energies and Occupations

         #    Occupation            Energy/Eh            Energy/eV
      -------------------------------------------------------------
         1        2.0000           -0.6956734             -18.9302
       ...           ...                  ...                  ...
        67        2.0000           -0.4302618             -11.7080
        68        2.0000           -0.4284997             -11.6601
        69        2.0000           -0.4271002             -11.6220
        70        2.0000           -0.4248228             -11.5600
        71        2.0000           -0.4242854             -11.5454
        72        2.0000           -0.4237656             -11.5312
        73        2.0000           -0.4219397             -11.4816
        74        2.0000           -0.4109932             -11.1837
        75        2.0000           -0.4099411             -11.1551
        76        2.0000           -0.3863976             -10.5144
        77        2.0000           -0.3826091             -10.4113
        78        2.0000           -0.3736494             -10.1675
        79        2.0000           -0.3712931             -10.1034 (HOMO)
        80                         -0.2864655              -7.7951 (LUMO)
        81                         -0.2590634              -7.0495
        82                         -0.2507322              -6.8228
        83                         -0.2489287              -6.7737
        84                         -0.2308870              -6.2828
        85                         -0.2245854              -6.1113
        86                         -0.2201244              -5.9899
        87                         -0.2084836              -5.6731
        88                         -0.2005190              -5.4564
        89                         -0.1922129              -5.2304
        90                         -0.1913194              -5.2061
       ...                                ...                  ...
       155                          1.1535488              31.3897
      -------------------------------------------------------------
                  HL-Gap            0.0848276 Eh            2.3083 eV

     #   Z          covCN         q      C6AA      α(0)
     1   7 N        0.911    -0.261    26.775     7.484
     2   6 C        1.912     0.120    28.157     8.570
     3   6 C        2.971     0.015    27.676     8.629
     4   6 C        2.923    -0.023    28.576     8.766
     5   6 C        2.921    -0.039    28.970     8.826
     6   6 C        2.911     0.059    26.680     8.470
     7   7 N        2.800    -0.043    22.066     6.977
     8   6 C        3.072     0.048    26.839     8.494
     9   6 C        2.910    -0.049    29.205     8.861
    10   6 C        2.924    -0.033    28.817     8.803
    11   6 C        2.920    -0.039    28.979     8.828
    12   6 C        2.913    -0.033    28.829     8.804
    13   6 C        3.066    -0.016    28.341     8.730
    14   6 C        3.067    -0.015    28.309     8.725
    15   6 C        2.913    -0.032    28.807     8.801
    16   6 C        2.920    -0.040    28.986     8.829
    17   6 C        2.924    -0.033    28.825     8.805
    18   6 C        2.910    -0.051    29.271     8.871
    19   6 C        3.070     0.048    26.850     8.496
    20   6 C        2.910     0.056    26.734     8.478
    21   7 N        2.801    -0.047    22.154     6.991
    22   6 C        3.072     0.049    26.832     8.493
    23   6 C        2.910    -0.049    29.229     8.865
    24   6 C        2.924    -0.033    28.825     8.805
    25   6 C        2.920    -0.040    28.995     8.830
    26   6 C        2.913    -0.034    28.835     8.805
    27   6 C        3.066    -0.017    28.359     8.732
    28   6 C        3.067    -0.016    28.330     8.728
    29   6 C        2.913    -0.033    28.815     8.802
    30   6 C        2.920    -0.040    28.999     8.831
    31   6 C        2.924    -0.033    28.831     8.805
    32   6 C        2.910    -0.051    29.274     8.872
    33   6 C        3.071     0.048    26.844     8.495
    34   6 C        2.930    -0.034    28.844     8.808
    35   1 H        0.926     0.057     2.231     2.336
    36   1 H        0.926     0.063     2.163     2.300
    37   1 H        0.926     0.025     2.657     2.549
    38   1 H        0.926     0.032     2.552     2.498
    39   1 H        0.926     0.033     2.539     2.492
    40   1 H        0.926     0.036     2.504     2.474
    41   1 H        0.926     0.035     2.511     2.478
    42   1 H        0.926     0.033     2.540     2.492
    43   1 H        0.926     0.035     2.518     2.481
    44   1 H        0.926     0.031     2.578     2.511
    45   1 H        0.926     0.025     2.664     2.552
    46   1 H        0.926     0.032     2.555     2.500
    47   1 H        0.926     0.033     2.547     2.496
    48   1 H        0.926     0.035     2.515     2.480
    49   1 H        0.926     0.035     2.516     2.480
    50   1 H        0.926     0.033     2.547     2.496
    51   1 H        0.926     0.034     2.534     2.489
    52   1 H        0.926     0.026     2.638     2.540
    53   1 H        0.926     0.057     2.237     2.339

molecular dipole:
                 x           y           z       tot (Debye)
 q only:        0.843       0.860       0.311
   full:        1.028       1.082       0.388       3.920

 projected vibrational frequencies (cm⁻¹)
eigval :       -0.00    -0.00    -0.00     0.00     0.00     0.00
eigval :       24.10    33.61    41.25    51.49    55.72    73.35
eigval :      104.29   105.84   114.66   119.75   147.69   158.19
eigval :      168.83   179.64   191.45   202.88   264.75   272.98
eigval :      274.86   277.86   307.32   329.37   356.39   399.06
eigval :      401.13   420.47   421.25   426.65   438.02   441.65
eigval :      454.94   456.96   516.60   518.26   524.43   528.99
eigval :      533.24   542.70   543.54   547.11   561.87   586.63
eigval :      589.19   608.68   620.87   633.66   671.91   673.04
eigval :      678.81   692.46   705.96   708.54   710.07   754.33
eigval :      756.02   769.50   771.01   781.49   783.14   822.52
eigval :      835.54   869.15   872.37   875.34   876.32   888.35
eigval :      895.28   897.79   902.66   904.01   904.20   905.80
eigval :      920.15   924.78   925.17   925.91   927.55   930.76
eigval :      984.38  1011.21  1012.81  1069.75  1070.61  1072.74
eigval :     1074.82  1083.69  1118.00  1147.09  1150.83  1151.38
eigval :     1169.01  1174.92  1179.47  1179.76  1182.20  1190.45
eigval :     1213.07  1232.06  1232.97  1235.51  1242.38  1256.22
eigval :     1293.02  1296.16  1298.40  1299.17  1306.35  1336.49
eigval :     1356.17  1356.66  1359.22  1361.11  1367.25  1406.96
eigval :     1422.46  1426.59  1427.20  1431.18  1471.57  1473.48
eigval :     1483.11  1485.53  1486.23  1528.62  1566.15  1575.91
eigval :     1576.03  1589.96  1590.31  1598.33  1599.05  1612.23
eigval :     1613.54  2362.51  3071.35  3074.83  3076.10  3076.59
eigval :     3077.30  3079.58  3081.77  3082.05  3084.77  3086.76
eigval :     3089.14  3089.44  3093.72  3094.61  3096.38  3096.91
eigval :     3097.07  3097.21  3106.43

   temp. (K)  partition function   enthalpy   heat capacity  entropy
                                   cal/mol     cal/K/mol   cal/K/mol   J/K/mol
 298.15  VIB  0.310E+10            14270.227     95.996     85.729
         ROT  0.178E+08              888.752      2.981     36.154
         INT  0.551E+17            15158.979     98.977    121.883
         TR   0.873E+28             1481.254      4.968     44.070
         TOT                       16640.2333   103.9449   165.9527   694.3461

       T/K    H(0)-H(T)+PV         H(T)/Eh          T*S/Eh         G(T)/Eh
   ------------------------------------------------------------------------
    298.15    0.265179E-01    0.426282E+00    0.788495E-01    0.347433E+00
   ------------------------------------------------------------------------

         :::::::::::::::::::::::::::::::::::::::::::::::::::::
         ::                  THERMODYNAMIC                  ::
         :::::::::::::::::::::::::::::::::::::::::::::::::::::
         :: total free energy         -84.560695225476 Eh   ::
         ::.................................................::
         :: total energy              -84.908128185858 Eh   ::
         :: zero point energy           0.399764544761 Eh   ::
         :: G(RRHO) w/o ZPVE           -0.052331584379 Eh   ::
         :: G(RRHO) contrib.            0.347432960382 Eh   ::
         :::::::::::::::::::::::::::::::::::::::::::::::::::::

           -------------------------------------------------
          | TOTAL ENERGY              -84.908128185858 Eh   |
          | TOTAL ENTHALPY            -84.481845741406 Eh   |
          | TOTAL FREE ENERGY         -84.560695225476 Eh   |
          | GRADIENT NORM               0.000043884020 Eh/α |
          | HOMO-LUMO GAP               2.308277179010 eV   |
           -------------------------------------------------

 * finished run on 2025/08/22 at 09:58:11.030
