   * xtb version 6.7.1 (edcfbbe) compiled by 'albert@albert-system' on 2024-07-22

   ID    Z sym.   atoms
    1    7 N      1, 7, 21
    2    6 C      2-6, 8-20, 22-34
    3    1 H      35-53

          program call               : xtb data2507/toluene/2CzBN/2CzBN_toluene_S0_finalOpt.xtbopt.xyz --gfn 2 --uhf 2 --gbsa toluene --ohess vtight --parallel 40 --molden --ceasefiles --namespace data2507/toluene/2CzBN/2CzBN_toluene_T1_preOpt
      * Solvation model:               GBSA
        Solvent                        toluene
        Solvent mass                       9.2140E+01 g/mol
          :  Hamiltonian                  GFN2-xTB          :
 * total energy  :   -84.8047043 Eh     change       -0.7904077E-08 Eh
 * total energy  :   -84.8081250 Eh     change       -0.3420783E-02 Eh
 * total energy  :   -84.8093590 Eh     change       -0.1233991E-02 Eh
 * total energy  :   -84.8094868 Eh     change       -0.1277528E-03 Eh
 * total energy  :   -84.8095749 Eh     change       -0.8815238E-04 Eh
 * total energy  :   -84.8096116 Eh     change       -0.3668667E-04 Eh
 * total energy  :   -84.8096504 Eh     change       -0.3878630E-04 Eh
 * total energy  :   -84.8096836 Eh     change       -0.3315191E-04 Eh
 * total energy  :   -84.8097044 Eh     change       -0.2084696E-04 Eh
 * total energy  :   -84.8097247 Eh     change       -0.2025315E-04 Eh
 * total energy  :   -84.8097851 Eh     change       -0.6078715E-06 Eh
 * total energy  :   -84.8097857 Eh     change       -0.6021260E-06 Eh
 * total energy  :   -84.8097863 Eh     change       -0.6097627E-06 Eh
 * total energy  :   -84.8097869 Eh     change       -0.6271987E-06 Eh
 * total energy  :   -84.8097876 Eh     change       -0.6356614E-06 Eh
 * total energy  :   -84.8097882 Eh     change       -0.6161158E-06 Eh
 * total energy  :   -84.8097888 Eh     change       -0.5925243E-06 Eh
 * total energy  :   -84.8097893 Eh     change       -0.5495921E-06 Eh
 * total energy  :   -84.8097893 Eh     change       -0.4169522E-08 Eh
   *** GEOMETRY OPTIMIZATION CONVERGED AFTER 44 ITERATIONS ***

 final structure:
================
53
 xtb: 6.7.1 (edcfbbe)
N           -5.60782186872418        3.29827588321893       -0.31973136500354
C           -4.51205101816589        2.93483626123250       -0.16940298135048
C           -3.22121592792428        2.49827775177720        0.03955493344442
C           -2.22423809603118        3.38289027476076        0.59863021140540
C           -0.94451845449107        2.96710553431525        0.75533315278659
C           -0.55062527691507        1.64185609353642        0.42251639105622
N            0.71470220308314        1.18386839367903        0.74046885590684
C            1.90424667706599        1.79973969859364        0.39820503009827
C            2.11810135466170        3.00221704954993       -0.26472578094561
C            3.42310291983104        3.37039785650525       -0.53806003407523
C            4.49624088171208        2.55933930566176       -0.16689859504440
C            4.29096394575871        1.34687519132148        0.46921072545286
C            2.99085383899471        0.95446064753690        0.75126087609256
C            2.41972596025371       -0.21495621303830        1.35521074093750
C            2.95644116268200       -1.36744248318206        1.91007714438837
C            2.09831316766239       -2.28777531695459        2.48773735975450
C            0.72500293070939       -2.05337729422836        2.54944969231845
C            0.16702236691116       -0.91713600829178        1.99108792835902
C            1.01390653922994       -0.02261714794944        1.35149741739592
C           -1.53727371913468        0.76290839480707       -0.16819280256779
N           -1.14487918315223       -0.49600894454250       -0.62636283156914
C           -1.75579579779705       -1.69322114817299       -0.30967146485490
C           -2.89450490356185       -1.93232527012414        0.45013920546250
C           -3.26672507223631       -3.24710671016362        0.66215773903960
C           -2.52462480920685       -4.30403177087199        0.13881473568190
C           -1.37526497219289       -4.07374071683093       -0.59762526113919
C           -0.98290262452707       -2.76348517813546       -0.82370348842519
C            0.13454247842641       -2.16950985510495       -1.50789528414643
C            1.20555253159132       -2.68899503389531       -2.21880530233540
C            2.09745789950672       -1.80988603135669       -2.80891279381735
C            1.90983120693957       -0.43276240335789       -2.72497319275544
C            0.84918315284628        0.10646496452842       -2.01983073195007
C           -0.01295940709399       -0.76917854516012       -1.37417932628816
C           -2.82818455753844        1.18855293963653       -0.33473888551069
H           -2.52989928442435        4.37580391597256        0.89157119602798
H           -0.21246460008243        3.61889709602126        1.20784093189758
H            1.29492346749749        3.62953097288849       -0.57042906473098
H            3.61354353224447        4.30065686732091       -1.05131347070166
H            5.50189380942307        2.88170019487163       -0.39181385503890
H            5.12316776641175        0.71333647087300        0.73461521233585
H            4.02220987417727       -1.53619297789819        1.89866338314768
H            2.49804446263996       -3.19201515636061        2.92149551482944
H            0.08473983475061       -2.76607917981423        3.04619432343334
H           -0.89193428932133       -0.72532877882092        2.07375245814577
H           -3.47168447290667       -1.12191916829374        0.86909355958781
H           -4.15078170814012       -3.45643645481029        1.24547614159123
H           -2.85022739974950       -5.31735879136609        0.32001992678291
H           -0.79134035850918       -4.89476270346220       -0.98391621111695
H            1.33357948570622       -3.75603245157609       -2.31560131994315
H            2.94092105654525       -2.19490652719980       -3.36185961786665
H            2.60025877564570        0.23004048507963       -3.22420859028748
H            0.69158091734608        1.17362572027983       -1.99044005307447
H           -3.55190439650384        0.54933407538447       -0.81906771653851

          :  Hamiltonian                  GFN2-xTB          :
         :: gradient norm              0.000058735925 Eh/a0 ::
         :: HOMO-LUMO gap              0.347720552981 eV    ::
         :: SCC energy               -86.419283039740 Eh    ::
         :: -> dispersion             -0.083353838771 Eh    ::
         :: -> Gsolv                  -0.040361968073 Eh    ::
         :: repulsion energy           1.609493717602 Eh    ::

    * Orbital Energies and Occupations

         #    Occupation            Energy/Eh            Energy/eV
      -------------------------------------------------------------
         1        2.0000           -0.6939742             -18.8840
       ...           ...                  ...                  ...
        68        2.0000           -0.4316794             -11.7466
        69        2.0000           -0.4309336             -11.7263
        70        2.0000           -0.4279160             -11.6442
        71        2.0000           -0.4217959             -11.4776
        72        2.0000           -0.4194948             -11.4150
        73        2.0000           -0.4181749             -11.3791
        74        2.0000           -0.4046255             -11.0104
        75        2.0000           -0.4023978             -10.9498
        76        2.0000           -0.3944554             -10.7337
        77        2.0000           -0.3901785             -10.6173
        78        1.9733           -0.3797482             -10.3335
        79        1.0267           -0.3729179             -10.1476
        80        0.9987           -0.2718865              -7.3984 (HOMO)
        81        0.0011           -0.2591079              -7.0507 (LUMO)
        82        0.0001           -0.2571305              -6.9969
        83                         -0.2406904              -6.5495
        84                         -0.2361830              -6.4269
        85                         -0.2339797              -6.3669
        86                         -0.2111728              -5.7463
        87                         -0.2063481              -5.6150
        88                         -0.2003393              -5.4515
        89                         -0.1993849              -5.4255
        90                         -0.1895310              -5.1574
        91                         -0.1626731              -4.4266
       ...                                ...                  ...
       155                          1.1570593              31.4852
      -------------------------------------------------------------
                  HL-Gap            0.0127786 Eh            0.3477 eV

     #   Z          covCN         q      C6AA      α(0)
     1   7 N        0.911    -0.360    29.264     7.824
     2   6 C        1.910     0.092    28.799     8.667
     3   6 C        2.962    -0.019    28.469     8.752
     4   6 C        2.913    -0.039    28.965     8.825
     5   6 C        2.907    -0.044    29.083     8.843
     6   6 C        2.907     0.010    27.803     8.646
     7   7 N        2.793     0.007    21.144     6.829
     8   6 C        3.070     0.043    26.971     8.515
     9   6 C        2.909    -0.037    28.932     8.820
    10   6 C        2.921    -0.035    28.870     8.811
    11   6 C        2.919    -0.029    28.715     8.787
    12   6 C        2.911    -0.029    28.722     8.788
    13   6 C        3.062    -0.011    28.226     8.712
    14   6 C        3.060    -0.014    28.308     8.725
    15   6 C        2.911    -0.029    28.726     8.789
    16   6 C        2.919    -0.031    28.765     8.795
    17   6 C        2.922    -0.035    28.882     8.813
    18   6 C        2.909    -0.037    28.920     8.818
    19   6 C        3.073     0.039    27.044     8.527
    20   6 C        2.902     0.047    26.939     8.510
    21   7 N        2.800    -0.017    21.571     6.898
    22   6 C        3.070     0.049    26.837     8.494
    23   6 C        2.909    -0.041    29.019     8.833
    24   6 C        2.922    -0.031    28.780     8.798
    25   6 C        2.920    -0.031    28.764     8.795
    26   6 C        2.912    -0.029    28.723     8.788
    27   6 C        3.065    -0.010    28.206     8.709
    28   6 C        3.063    -0.013    28.271     8.719
    29   6 C        2.912    -0.029    28.727     8.789
    30   6 C        2.920    -0.033    28.811     8.802
    31   6 C        2.923    -0.032    28.792     8.799
    32   6 C        2.910    -0.041    29.031     8.835
    33   6 C        3.073     0.046    26.900     8.504
    34   6 C        2.920    -0.048    29.184     8.859
    35   1 H        0.926     0.028     2.610     2.526
    36   1 H        0.926     0.041     2.433     2.439
    37   1 H        0.926     0.042     2.416     2.431
    38   1 H        0.926     0.042     2.425     2.435
    39   1 H        0.926     0.044     2.400     2.423
    40   1 H        0.926     0.045     2.383     2.414
    41   1 H        0.926     0.045     2.386     2.415
    42   1 H        0.926     0.043     2.410     2.428
    43   1 H        0.926     0.039     2.460     2.453
    44   1 H        0.926     0.033     2.538     2.491
    45   1 H        0.926     0.038     2.482     2.464
    46   1 H        0.926     0.042     2.419     2.432
    47   1 H        0.926     0.044     2.393     2.419
    48   1 H        0.926     0.046     2.366     2.405
    49   1 H        0.926     0.045     2.379     2.412
    50   1 H        0.926     0.043     2.404     2.425
    51   1 H        0.926     0.041     2.433     2.439
    52   1 H        0.926     0.035     2.520     2.483
    53   1 H        0.926     0.032     2.557     2.501

molecular dipole:
                 x           y           z       tot (Debye)
 q only:        3.673      -2.218       0.158
   full:        3.893      -2.208       0.230      11.390

 projected vibrational frequencies (cm⁻¹)
eigval :       -0.00    -0.00    -0.00    -0.00     0.00     0.00
eigval :       18.38    31.45    35.00    50.14    58.02    77.18
eigval :      101.03   102.73   111.14   120.59   141.91   155.53
eigval :      169.29   174.72   186.55   199.73   252.00   269.10
eigval :      272.10   273.51   308.69   320.29   346.56   362.13
eigval :      392.79   395.89   399.37   412.23   418.17   430.80
eigval :      435.39   439.36   495.46   509.11   511.34   515.93
eigval :      526.36   533.01   535.63   545.26   559.44   563.15
eigval :      582.59   584.93   605.85   620.52   633.89   663.35
eigval :      666.95   674.40   691.94   701.45   706.82   750.88
eigval :      752.75   762.93   767.15   771.07   776.06   777.84
eigval :      803.59   846.77   863.79   868.07   872.32   872.90
eigval :      886.75   890.04   891.68   896.91   903.33   904.24
eigval :      904.83   905.11   914.74   916.26   920.17   922.28
eigval :      948.62  1003.05  1009.35  1062.28  1064.26  1067.68
eigval :     1068.75  1074.88  1105.73  1123.04  1136.64  1141.25
eigval :     1154.16  1165.97  1166.71  1169.83  1175.69  1180.01
eigval :     1188.45  1209.30  1214.81  1225.08  1226.13  1243.20
eigval :     1256.46  1270.69  1281.73  1284.89  1291.23  1298.26
eigval :     1318.36  1332.22  1346.24  1361.80  1369.87  1375.10
eigval :     1385.67  1395.83  1406.90  1420.67  1432.75  1450.74
eigval :     1456.04  1469.54  1475.45  1479.31  1522.24  1538.23
eigval :     1551.65  1557.24  1558.90  1571.23  1572.32  1577.33
eigval :     1589.48  2193.93  3081.71  3081.90  3082.30  3082.85
eigval :     3083.36  3084.64  3086.57  3087.53  3088.01  3088.76
eigval :     3093.23  3093.99  3094.80  3095.05  3095.59  3100.30
eigval :     3100.75  3101.29  3102.03

   temp. (K)  partition function   enthalpy   heat capacity  entropy
                                   cal/mol     cal/K/mol   cal/K/mol   J/K/mol
 298.15  VIB  0.741E+10            14617.428     97.787     87.897
         ROT  0.178E+08              888.752      2.981     36.156
         INT  0.132E+18            15506.181    100.768    124.053
         TR   0.873E+28             1481.254      4.968     44.070
         TOT                       16987.4345   105.7365   168.1233   703.4277

       T/K    H(0)-H(T)+PV         H(T)/Eh          T*S/Eh         G(T)/Eh
   ------------------------------------------------------------------------
    298.15    0.270712E-01    0.422273E+00    0.798808E-01    0.342392E+00
   ------------------------------------------------------------------------

         :::::::::::::::::::::::::::::::::::::::::::::::::::::
         ::                  THERMODYNAMIC                  ::
         :::::::::::::::::::::::::::::::::::::::::::::::::::::
         :: total free energy         -84.467397331110 Eh   ::
         ::.................................................::
         :: total energy              -84.809789318210 Eh   ::
         :: zero point energy           0.395201575878 Eh   ::
         :: G(RRHO) w/o ZPVE           -0.052809588779 Eh   ::
         :: G(RRHO) contrib.            0.342391987100 Eh   ::
         :::::::::::::::::::::::::::::::::::::::::::::::::::::

           -------------------------------------------------
          | TOTAL ENERGY              -84.809789318210 Eh   |
          | TOTAL ENTHALPY            -84.387516542263 Eh   |
          | TOTAL FREE ENERGY         -84.467397331110 Eh   |
          | GRADIENT NORM               0.000058722935 Eh/α |
          | HOMO-LUMO GAP               0.347723322141 eV   |
           -------------------------------------------------

 * finished run on 2025/08/22 at 10:00:07.294
