   * xtb version 6.7.1 (edcfbbe) compiled by 'albert@albert-system' on 2024-07-22

   ID    Z sym.   atoms
    1    7 N      1, 7, 21
    2    6 C      2-6, 8-20, 22-34
    3    1 H      35-53

          program call               : xtb data2507/toluene/2CzBN/2CzBN_toluene_T1_crest.xyz --gfn 2 --uhf 2 --gbsa toluene --ohess vtight --parallel 40 --molden --ceasefiles --namespace data2507/toluene/2CzBN/2CzBN_toluene_T1_finalOpt
      * Solvation model:               GBSA
        Solvent                        toluene
        Solvent mass                       9.2140E+01 g/mol
          :  Hamiltonian                  GFN2-xTB          :
 * total energy  :   -84.8088695 Eh     change       -0.9811657E-08 Eh
 * total energy  :   -84.8089674 Eh     change       -0.9790094E-04 Eh
 * total energy  :   -84.8090560 Eh     change       -0.8854724E-04 Eh
 * total energy  :   -84.8091118 Eh     change       -0.5585286E-04 Eh
 * total energy  :   -84.8091711 Eh     change       -0.5922655E-04 Eh
 * total energy  :   -84.8092385 Eh     change       -0.6740190E-04 Eh
 * total energy  :   -84.8093006 Eh     change       -0.6217944E-04 Eh
 * total energy  :   -84.8093717 Eh     change       -0.7108618E-04 Eh
 * total energy  :   -84.8094253 Eh     change       -0.5362434E-04 Eh
 * total energy  :   -84.8094747 Eh     change       -0.4931554E-04 Eh
 * total energy  :   -84.8098039 Eh     change       -0.1568527E-05 Eh
 * total energy  :   -84.8098054 Eh     change       -0.1458139E-05 Eh
 * total energy  :   -84.8098067 Eh     change       -0.1265282E-05 Eh
 * total energy  :   -84.8098077 Eh     change       -0.1040326E-05 Eh
 * total energy  :   -84.8098086 Eh     change       -0.8508188E-06 Eh
 * total energy  :   -84.8098093 Eh     change       -0.7178798E-06 Eh
 * total energy  :   -84.8098099 Eh     change       -0.6282675E-06 Eh
 * total energy  :   -84.8098105 Eh     change       -0.5664039E-06 Eh
 * total energy  :   -84.8098105 Eh     change       -0.4183050E-08 Eh
   *** GEOMETRY OPTIMIZATION CONVERGED AFTER 44 ITERATIONS ***

 final structure:
================
53
 xtb: 6.7.1 (edcfbbe)
N            5.55903125105437        3.37923075216601        0.40917066468436
C            4.47072450701386        3.00108856998216        0.24169480166376
C            3.18922670063017        2.54721408881815        0.01316975073953
C            2.18840667536598        3.41974890278681       -0.55827832556241
C            0.91662955946137        2.98759490938467       -0.73516265764017
C            0.53703003276421        1.65638061269326       -0.41086161698065
N           -0.71286315714031        1.17455177109770       -0.75452860661955
C           -1.92215630561781        1.75953974514491       -0.42960201971633
C           -2.17576277479322        2.95461288511716        0.23277019780489
C           -3.49328928344447        3.28814421308384        0.48951944527638
C           -4.53997855988497        2.45061970268736        0.10172737592012
C           -4.29524576789817        1.24651566415688       -0.53624966141516
C           -2.98187105366901        0.88846498764659       -0.80188912694014
C           -2.37257043640092       -0.26381267285235       -1.40166211345141
C           -2.87107270466410       -1.42694999939253       -1.96994341888714
C           -1.98083038141036       -2.32220663882947       -2.53847585528006
C           -0.61322896229328       -2.05306802506386       -2.57744139286736
C           -0.09292242433865       -0.90619441317749       -2.00442603308544
C           -0.97243192723235       -0.03652030555894       -1.37494113395875
C            1.52555110497166        0.79103117625837        0.19661639179717
N            1.13620908117027       -0.46961949327730        0.65302210969338
C            1.75474917455362       -1.66516562419670        0.34693359844984
C            2.90801113823223       -1.90182131119611       -0.39146590322004
C            3.28689909117347       -3.21575216592739       -0.59628821385303
C            2.53734390086481       -4.27427527063596       -0.08675359738506
C            1.37438823029191       -4.04643275631026        0.62880496673248
C            0.97567564231478       -2.73708494580507        0.84848594814071
C           -0.15286847321608       -2.14539807794691        1.51630806281247
C           -1.23220763603022       -2.66634604938716        2.21347735564710
C           -2.13246283119605       -1.78841324742663        2.79268398478878
C           -1.94566036062255       -0.41111582095839        2.71135365185912
C           -0.87738677317173        0.12963872568050        2.01885113586144
C           -0.00588331270502       -0.74499811163848        1.38469745585063
C            2.80832191276372        1.23215345058703        0.38217926055523
H            2.48511355990771        4.41742031854837       -0.84421009809003
H            0.18234798947631        3.63066124806926       -1.19653414952242
H           -1.37289479061116        3.60206673330342        0.55034036661742
H           -3.71477188568536        4.21137506528656        1.00299479437049
H           -5.55649733639650        2.74566430570601        0.31481031268115
H           -5.10753246148781        0.59304019151822       -0.81478900752257
H           -3.93216532048799       -1.62306778658934       -1.97592212370547
H           -2.35056068137482       -3.23405080807240       -2.98273459658574
H            0.05231148322814       -2.74668721655109       -3.06788867473322
H            0.96208960976000       -0.68726784656339       -2.06853409720722
H            3.49114047273695       -1.08991310702571       -0.79913075940669
H            4.18192749573415       -3.42343801024605       -1.16321171943676
H            2.86792420618517       -5.28694974407217       -0.26247401917714
H            0.78534970296364       -4.86865291595565        1.00466090584333
H           -1.36034766779833       -3.73354187174554        2.30834449374147
H           -2.98222291136917       -2.17452568189319        3.33513556000294
H           -2.64283181300742        0.25053640279099        3.20265213240823
H           -0.72060505135222        1.19699883492307        1.99079193014130
H            3.53287653898417        0.60258241566349        0.87779629326533

          :  Hamiltonian                  GFN2-xTB          :
         :: gradient norm              0.000062110156 Eh/a0 ::
         :: HOMO-LUMO gap              0.346655633563 eV    ::
         :: SCC energy               -86.419370261171 Eh    ::
         :: -> dispersion             -0.083499114178 Eh    ::
         :: -> Gsolv                  -0.040355235616 Eh    ::
         :: repulsion energy           1.609559784451 Eh    ::

    * Orbital Energies and Occupations

         #    Occupation            Energy/Eh            Energy/eV
      -------------------------------------------------------------
         1        2.0000           -0.6940178             -18.8852
       ...           ...                  ...                  ...
        68        2.0000           -0.4316993             -11.7471
        69        2.0000           -0.4309378             -11.7264
        70        2.0000           -0.4279231             -11.6444
        71        2.0000           -0.4217653             -11.4768
        72        2.0000           -0.4196753             -11.4199
        73        2.0000           -0.4180418             -11.3755
        74        2.0000           -0.4045067             -11.0072
        75        2.0000           -0.4023312             -10.9480
        76        2.0000           -0.3945785             -10.7370
        77        2.0000           -0.3901421             -10.6163
        78        1.9743           -0.3797592             -10.3338
        79        1.0257           -0.3728551             -10.1459
        80        0.9987           -0.2718641              -7.3978 (HOMO)
        81        0.0012           -0.2591251              -7.0512 (LUMO)
        82        0.0001           -0.2571860              -6.9984
        83                         -0.2408260              -6.5532
        84                         -0.2361313              -6.4255
        85                         -0.2338401              -6.3631
        86                         -0.2111760              -5.7464
        87                         -0.2064413              -5.6176
        88                         -0.2003910              -5.4529
        89                         -0.1993714              -5.4252
        90                         -0.1894773              -5.1559
        91                         -0.1627385              -4.4283
       ...                                ...                  ...
       155                          1.1570384              31.4846
      -------------------------------------------------------------
                  HL-Gap            0.0127390 Eh            0.3466 eV

     #   Z          covCN         q      C6AA      α(0)
     1   7 N        0.911    -0.360    29.269     7.824
     2   6 C        1.910     0.092    28.800     8.667
     3   6 C        2.962    -0.019    28.472     8.752
     4   6 C        2.913    -0.039    28.966     8.825
     5   6 C        2.907    -0.044    29.082     8.843
     6   6 C        2.907     0.009    27.806     8.646
     7   7 N        2.793     0.006    21.149     6.830
     8   6 C        3.070     0.043    26.967     8.515
     9   6 C        2.909    -0.037    28.930     8.820
    10   6 C        2.921    -0.035    28.869     8.811
    11   6 C        2.919    -0.029    28.714     8.787
    12   6 C        2.911    -0.029    28.723     8.788
    13   6 C        3.062    -0.011    28.224     8.712
    14   6 C        3.059    -0.014    28.310     8.726
    15   6 C        2.911    -0.029    28.725     8.788
    16   6 C        2.919    -0.031    28.767     8.795
    17   6 C        2.922    -0.035    28.881     8.813
    18   6 C        2.909    -0.037    28.920     8.818
    19   6 C        3.074     0.039    27.042     8.526
    20   6 C        2.902     0.047    26.939     8.510
    21   7 N        2.800    -0.017    21.574     6.899
    22   6 C        3.070     0.049    26.834     8.494
    23   6 C        2.909    -0.041    29.017     8.833
    24   6 C        2.922    -0.031    28.778     8.797
    25   6 C        2.920    -0.031    28.763     8.795
    26   6 C        2.912    -0.029    28.723     8.788
    27   6 C        3.066    -0.010    28.204     8.708
    28   6 C        3.063    -0.013    28.273     8.719
    29   6 C        2.912    -0.029    28.725     8.789
    30   6 C        2.920    -0.033    28.813     8.802
    31   6 C        2.923    -0.032    28.791     8.799
    32   6 C        2.910    -0.041    29.031     8.835
    33   6 C        3.074     0.046    26.899     8.504
    34   6 C        2.919    -0.048    29.183     8.859
    35   1 H        0.926     0.028     2.610     2.527
    36   1 H        0.926     0.041     2.435     2.440
    37   1 H        0.926     0.042     2.417     2.431
    38   1 H        0.926     0.042     2.424     2.434
    39   1 H        0.926     0.044     2.399     2.422
    40   1 H        0.926     0.045     2.382     2.414
    41   1 H        0.926     0.045     2.386     2.415
    42   1 H        0.926     0.043     2.410     2.428
    43   1 H        0.926     0.039     2.460     2.453
    44   1 H        0.926     0.033     2.538     2.491
    45   1 H        0.926     0.038     2.481     2.463
    46   1 H        0.926     0.042     2.418     2.431
    47   1 H        0.926     0.044     2.391     2.418
    48   1 H        0.926     0.046     2.365     2.405
    49   1 H        0.926     0.045     2.379     2.412
    50   1 H        0.926     0.043     2.404     2.425
    51   1 H        0.926     0.041     2.433     2.439
    52   1 H        0.926     0.035     2.519     2.482
    53   1 H        0.926     0.032     2.559     2.502

molecular dipole:
                 x           y           z       tot (Debye)
 q only:       -3.648      -2.276      -0.212
   full:       -3.865      -2.268      -0.287      11.415

 projected vibrational frequencies (cm⁻¹)
eigval :       -0.00    -0.00     0.00     0.00     0.00     0.00
eigval :       20.16    33.07    38.00    50.49    58.15    77.13
eigval :      101.33   102.38   112.12   119.62   141.62   155.37
eigval :      168.59   174.74   186.27   199.56   252.35   269.04
eigval :      271.92   274.03   309.21   321.26   346.90   362.64
eigval :      392.58   395.90   399.74   412.41   418.21   431.44
eigval :      435.32   439.29   495.62   509.19   511.60   515.96
eigval :      526.30   533.52   535.55   544.37   559.62   563.15
eigval :      582.74   585.00   606.15   620.47   634.02   663.12
eigval :      666.59   674.41   692.16   701.48   706.50   751.09
eigval :      752.81   763.61   767.70   771.28   776.29   778.99
eigval :      803.60   846.18   865.53   867.82   870.76   872.10
eigval :      886.84   889.87   891.74   897.24   902.66   904.09
eigval :      904.32   905.82   914.19   915.78   920.00   921.82
eigval :      948.32  1003.29  1009.41  1063.40  1064.62  1067.44
eigval :     1068.74  1074.61  1105.48  1123.12  1136.50  1141.44
eigval :     1154.41  1165.81  1167.50  1170.63  1174.30  1179.00
eigval :     1188.36  1209.08  1215.74  1224.39  1226.84  1243.07
eigval :     1257.22  1270.52  1282.05  1285.18  1291.57  1298.54
eigval :     1318.65  1332.53  1346.41  1361.67  1369.92  1374.70
eigval :     1385.97  1396.36  1407.01  1420.73  1432.71  1450.76
eigval :     1456.28  1470.83  1475.54  1479.59  1521.87  1538.69
eigval :     1551.78  1557.49  1559.26  1571.40  1572.52  1577.50
eigval :     1589.64  2194.44  3081.56  3081.91  3082.65  3083.06
eigval :     3083.31  3084.37  3086.25  3087.35  3087.77  3088.54
eigval :     3093.39  3093.98  3094.75  3095.00  3095.46  3100.17
eigval :     3100.74  3101.34  3102.07

   temp. (K)  partition function   enthalpy   heat capacity  entropy
                                   cal/mol     cal/K/mol   cal/K/mol   J/K/mol
 298.15  VIB  0.596E+10            14606.604     97.875     87.791
         ROT  0.177E+08              888.752      2.981     36.148
         INT  0.106E+18            15495.356    100.856    123.938
         TR   0.873E+28             1481.254      4.968     44.070
         TOT                       16976.6100   105.8238   168.0085   702.9474

       T/K    H(0)-H(T)+PV         H(T)/Eh          T*S/Eh         G(T)/Eh
   ------------------------------------------------------------------------
    298.15    0.270540E-01    0.422291E+00    0.798262E-01    0.342465E+00
   ------------------------------------------------------------------------

         :::::::::::::::::::::::::::::::::::::::::::::::::::::
         ::                  THERMODYNAMIC                  ::
         :::::::::::::::::::::::::::::::::::::::::::::::::::::
         :: total free energy         -84.467345795570 Eh   ::
         ::.................................................::
         :: total energy              -84.809810473577 Eh   ::
         :: zero point energy           0.395236971880 Eh   ::
         :: G(RRHO) w/o ZPVE           -0.052772293872 Eh   ::
         :: G(RRHO) contrib.            0.342464678007 Eh   ::
         :::::::::::::::::::::::::::::::::::::::::::::::::::::

           -------------------------------------------------
          | TOTAL ENERGY              -84.809810473577 Eh   |
          | TOTAL ENTHALPY            -84.387519551675 Eh   |
          | TOTAL FREE ENERGY         -84.467345795570 Eh   |
          | GRADIENT NORM               0.000062102366 Eh/α |
          | HOMO-LUMO GAP               0.346645690103 eV   |
           -------------------------------------------------

 * finished run on 2025/08/22 at 10:02:38.354
