   * xtb version 6.7.1 (edcfbbe) compiled by 'albert@albert-system' on 2024-07-22

   ID    Z sym.   atoms
    1    7 N      1, 7, 21
    2    6 C      2-6, 8-20, 22-34
    3    1 H      35-53

          program call               : xtb data2507/toluene/2CzBN/2CzBN_toluene_S0_crest.xyz --gfn 2 --gbsa toluene --ohess vtight --parallel 40 --molden --ceasefiles --namespace data2507/toluene/2CzBN/2CzBN_toluene_S0_finalOpt
      * Solvation model:               GBSA
        Solvent                        toluene
        Solvent mass                       9.2140E+01 g/mol
          :  Hamiltonian                  GFN2-xTB          :
 * total energy  :   -84.9073588 Eh     change       -0.2365113E-08 Eh
 * total energy  :   -84.9074236 Eh     change       -0.6475554E-04 Eh
 * total energy  :   -84.9075151 Eh     change       -0.9148380E-04 Eh
 * total energy  :   -84.9075581 Eh     change       -0.4298794E-04 Eh
 * total energy  :   -84.9076132 Eh     change       -0.5513155E-04 Eh
 * total energy  :   -84.9076861 Eh     change       -0.7289842E-04 Eh
 * total energy  :   -84.9077312 Eh     change       -0.4515189E-04 Eh
 * total energy  :   -84.9077719 Eh     change       -0.4061533E-04 Eh
 * total energy  :   -84.9078157 Eh     change       -0.4384698E-04 Eh
 * total energy  :   -84.9078590 Eh     change       -0.4334972E-04 Eh
 * total energy  :   -84.9081192 Eh     change       -0.8164801E-06 Eh
 * total energy  :   -84.9081199 Eh     change       -0.7422052E-06 Eh
 * total energy  :   -84.9081206 Eh     change       -0.6429561E-06 Eh
 * total energy  :   -84.9081211 Eh     change       -0.5381413E-06 Eh
 * total energy  :   -84.9081216 Eh     change       -0.4478879E-06 Eh
 * total energy  :   -84.9081220 Eh     change       -0.3816138E-06 Eh
 * total energy  :   -84.9081223 Eh     change       -0.3237083E-06 Eh
 * total energy  :   -84.9081226 Eh     change       -0.2955250E-06 Eh
 * total energy  :   -84.9081226 Eh     change       -0.3209166E-08 Eh
   *** GEOMETRY OPTIMIZATION CONVERGED AFTER 44 ITERATIONS ***

 final structure:
================
53
 xtb: 6.7.1 (edcfbbe)
N           -5.55295721893706        3.35037149744065       -0.47324107307715
C           -4.48563824676791        2.98027581156995       -0.27019631725000
C           -3.17364466868062        2.52548846086137       -0.01362011050242
C           -2.26194036378970        3.35059544723886        0.64950397468221
C           -0.98693202037900        2.88971027850637        0.89899449681424
C           -0.59045240906872        1.61275163474834        0.50253119150526
N            0.70029855645481        1.16915428192475        0.79396428924899
C            1.87434187066082        1.80098056352933        0.41312682968362
C            2.05554864546256        3.01704787990547       -0.22816136727449
C            3.34957192477780        3.40315526539472       -0.52641656314337
C            4.43990999783326        2.59926490798976       -0.20384881367932
C            4.26269536734727        1.37896599415333        0.41876141406141
C            2.97230029097183        0.97089911950139        0.72907709775765
C            2.43206046673185       -0.21008691510719        1.34564296803918
C            3.00414907304643       -1.35672336180103        1.87945025981039
C            2.17685278165078       -2.30536926422613        2.44867715996317
C            0.80070194257182       -2.10601308304041        2.52021567256175
C            0.20967629633350       -0.97178711243618        1.99598208421521
C            1.03044174489517       -0.04442360203303        1.37338324655752
C           -1.50316125941316        0.78996557627348       -0.19093853610729
N           -1.13115940885357       -0.48064009375450       -0.64271096168285
C           -1.75829507880538       -1.67024795684036       -0.30996536609298
C           -2.91255439737209       -1.88414482429875        0.42843050813146
C           -3.30938324915046       -3.19142871550217        0.64176201838966
C           -2.57551552667923       -4.26381114128181        0.14069892265826
C           -1.41664150974749       -4.05580555132008       -0.58145095183886
C           -0.99931289995874       -2.75132254883026       -0.81037463087068
C            0.13080242489488       -2.18067833804894       -1.49092681665357
C            1.20370161659819       -2.72333318836433       -2.18521347943668
C            2.11889067429910       -1.86616901739883       -2.76460659813828
C            1.95691333674531       -0.48535273917498       -2.68641135810338
C            0.89675613557043        0.07710879776715       -2.00101851078055
C            0.00653053840249       -0.77930520494955       -1.37187654916784
C           -2.78850025840004        1.25382266244426       -0.43455213397580
H           -2.56391508337171        4.33511613101887        0.97216875290277
H           -0.28408220293033        3.50718086725873        1.43726023429868
H            1.21836056299905        3.64311458484895       -0.49900180967193
H            3.51635857442577        4.34783725061267       -1.02292016090651
H            5.43561809350905        2.93584179015846       -0.45223052508778
H            5.10655112039768        0.74931136456438        0.65671806749847
H            4.07411114318287       -1.49750540686633        1.85355766368658
H            2.60138461387564       -3.20767920278227        2.86325957442070
H            0.17979538939061       -2.84976501618763        2.99739189514437
H           -0.85471411949551       -0.81588572165231        2.08333779558204
H           -3.48386081241840       -1.06243629902547        0.83514505139809
H           -4.20700631294417       -3.38323025828180        1.21122316714055
H           -2.91848506498805       -5.27077019103420        0.32723744450319
H           -0.84141894956283       -4.88737997479839       -0.95943374622629
H            1.31306348948294       -3.79366968150742       -2.27368037124982
H            2.96405284336936       -2.26849923226931       -3.30329342833574
H            2.67092281731841        0.16207903809851       -3.17374002847902
H            0.76719613906038        1.14821667506348       -1.97133060449911
H           -3.48371700225339        0.63167011534397       -0.97859995412452

          :  Hamiltonian                  GFN2-xTB          :
         :: gradient norm              0.000054148982 Eh/a0 ::
         :: HOMO-LUMO gap              2.306565330894 eV    ::
         :: SCC energy               -86.541109533374 Eh    ::
         :: -> dispersion             -0.083740340349 Eh    ::
         :: -> Gsolv                  -0.034618599964 Eh    ::
         :: repulsion energy           1.632986953462 Eh    ::

    * Orbital Energies and Occupations

         #    Occupation            Energy/Eh            Energy/eV
      -------------------------------------------------------------
         1        2.0000           -0.6956984             -18.9309
       ...           ...                  ...                  ...
        67        2.0000           -0.4302787             -11.7085
        68        2.0000           -0.4284993             -11.6601
        69        2.0000           -0.4270261             -11.6200
        70        2.0000           -0.4248167             -11.5599
        71        2.0000           -0.4242676             -11.5449
        72        2.0000           -0.4237544             -11.5309
        73        2.0000           -0.4219389             -11.4815
        74        2.0000           -0.4109836             -11.1834
        75        2.0000           -0.4099061             -11.1541
        76        2.0000           -0.3864392             -10.5155
        77        2.0000           -0.3825253             -10.4090
        78        2.0000           -0.3736253             -10.1669
        79        2.0000           -0.3712901             -10.1033 (HOMO)
        80                         -0.2865254              -7.7968 (LUMO)
        81                         -0.2590865              -7.0501
        82                         -0.2507063              -6.8221
        83                         -0.2489375              -6.7739
        84                         -0.2309366              -6.2841
        85                         -0.2244853              -6.1086
        86                         -0.2201647              -5.9910
        87                         -0.2084235              -5.6715
        88                         -0.2005896              -5.4583
        89                         -0.1921864              -5.2297
        90                         -0.1912987              -5.2055
       ...                                ...                  ...
       155                          1.1535335              31.3892
      -------------------------------------------------------------
                  HL-Gap            0.0847647 Eh            2.3066 eV

     #   Z          covCN         q      C6AA      α(0)
     1   7 N        0.911    -0.261    26.772     7.483
     2   6 C        1.912     0.120    28.157     8.570
     3   6 C        2.972     0.015    27.674     8.629
     4   6 C        2.923    -0.023    28.575     8.766
     5   6 C        2.921    -0.039    28.968     8.826
     6   6 C        2.911     0.059    26.679     8.470
     7   7 N        2.800    -0.043    22.070     6.977
     8   6 C        3.070     0.048    26.849     8.496
     9   6 C        2.910    -0.051    29.270     8.871
    10   6 C        2.924    -0.033    28.826     8.805
    11   6 C        2.920    -0.040    28.986     8.829
    12   6 C        2.913    -0.032    28.807     8.801
    13   6 C        3.067    -0.015    28.310     8.725
    14   6 C        3.066    -0.016    28.342     8.730
    15   6 C        2.913    -0.033    28.829     8.804
    16   6 C        2.920    -0.039    28.980     8.828
    17   6 C        2.924    -0.033    28.817     8.803
    18   6 C        2.910    -0.048    29.204     8.861
    19   6 C        3.072     0.049    26.838     8.494
    20   6 C        2.910     0.057    26.732     8.478
    21   7 N        2.801    -0.048    22.159     6.991
    22   6 C        3.071     0.048    26.842     8.495
    23   6 C        2.910    -0.051    29.275     8.872
    24   6 C        2.924    -0.033    28.831     8.805
    25   6 C        2.920    -0.040    28.999     8.831
    26   6 C        2.913    -0.033    28.815     8.802
    27   6 C        3.067    -0.016    28.330     8.728
    28   6 C        3.066    -0.017    28.359     8.732
    29   6 C        2.913    -0.034    28.835     8.805
    30   6 C        2.920    -0.040    28.995     8.830
    31   6 C        2.924    -0.033    28.825     8.805
    32   6 C        2.910    -0.049    29.227     8.865
    33   6 C        3.073     0.049    26.831     8.493
    34   6 C        2.930    -0.034    28.843     8.808
    35   1 H        0.926     0.057     2.231     2.336
    36   1 H        0.926     0.063     2.163     2.300
    37   1 H        0.926     0.031     2.579     2.511
    38   1 H        0.926     0.035     2.518     2.481
    39   1 H        0.926     0.033     2.541     2.493
    40   1 H        0.926     0.035     2.511     2.478
    41   1 H        0.926     0.036     2.504     2.475
    42   1 H        0.926     0.033     2.539     2.492
    43   1 H        0.926     0.032     2.553     2.499
    44   1 H        0.926     0.025     2.659     2.550
    45   1 H        0.926     0.026     2.638     2.540
    46   1 H        0.926     0.034     2.534     2.489
    47   1 H        0.926     0.033     2.547     2.496
    48   1 H        0.926     0.035     2.516     2.480
    49   1 H        0.926     0.035     2.515     2.480
    50   1 H        0.926     0.033     2.547     2.496
    51   1 H        0.926     0.032     2.555     2.500
    52   1 H        0.926     0.025     2.664     2.553
    53   1 H        0.926     0.057     2.236     2.338

molecular dipole:
                 x           y           z       tot (Debye)
 q only:        1.187      -0.159       0.318
   full:        1.470      -0.221       0.395       3.909

 projected vibrational frequencies (cm⁻¹)
eigval :       -0.00    -0.00    -0.00    -0.00     0.00     0.00
eigval :       22.79    36.96    40.73    52.47    55.95    72.53
eigval :      102.23   106.23   113.53   119.67   147.64   158.25
eigval :      168.93   180.45   191.85   202.25   264.64   272.05
eigval :      274.62   277.88   306.72   329.48   355.36   398.60
eigval :      401.07   420.24   421.26   426.05   437.77   440.38
eigval :      454.07   456.49   516.53   518.20   524.15   528.44
eigval :      534.18   542.05   543.01   547.53   561.64   586.35
eigval :      589.13   608.66   621.75   633.97   671.24   672.61
eigval :      678.74   692.69   705.95   707.89   709.79   754.25
eigval :      755.75   769.02   771.49   781.01   783.61   822.33
eigval :      836.72   867.83   873.90   874.62   878.46   886.43
eigval :      895.33   897.43   901.56   903.20   904.09   906.77
eigval :      919.60   924.21   925.13   927.15   927.34   930.74
eigval :      983.75  1011.14  1012.57  1069.13  1069.93  1072.07
eigval :     1073.75  1083.60  1117.66  1145.40  1150.78  1151.31
eigval :     1166.61  1173.89  1179.20  1180.06  1181.90  1190.50
eigval :     1212.13  1230.57  1232.29  1234.86  1242.05  1255.78
eigval :     1293.12  1295.80  1298.27  1298.70  1306.18  1336.30
eigval :     1356.08  1356.59  1359.30  1360.99  1367.07  1406.88
eigval :     1422.53  1426.45  1426.90  1430.74  1471.74  1473.36
eigval :     1482.62  1485.75  1486.17  1528.74  1566.21  1575.85
eigval :     1576.03  1589.96  1590.33  1598.34  1598.93  1612.27
eigval :     1613.47  2362.49  3072.09  3073.69  3076.12  3076.38
eigval :     3078.46  3078.65  3081.69  3082.25  3084.88  3086.04
eigval :     3089.14  3089.82  3093.78  3094.47  3094.98  3095.95
eigval :     3097.01  3097.14  3105.31

   temp. (K)  partition function   enthalpy   heat capacity  entropy
                                   cal/mol     cal/K/mol   cal/K/mol   J/K/mol
 298.15  VIB  0.308E+10            14276.432     96.080     85.835
         ROT  0.177E+08              888.752      2.981     36.149
         INT  0.545E+17            15165.184     99.061    121.984
         TR   0.873E+28             1481.254      4.968     44.070
         TOT                       16646.4384   104.0290   166.0541   694.7702

       T/K    H(0)-H(T)+PV         H(T)/Eh          T*S/Eh         G(T)/Eh
   ------------------------------------------------------------------------
    298.15    0.265278E-01    0.426220E+00    0.788976E-01    0.347322E+00
   ------------------------------------------------------------------------

         :::::::::::::::::::::::::::::::::::::::::::::::::::::
         ::                  THERMODYNAMIC                  ::
         :::::::::::::::::::::::::::::::::::::::::::::::::::::
         :: total free energy         -84.560800246211 Eh   ::
         ::.................................................::
         :: total energy              -84.908122573783 Eh   ::
         :: zero point energy           0.399692181315 Eh   ::
         :: G(RRHO) w/o ZPVE           -0.052369853743 Eh   ::
         :: G(RRHO) contrib.            0.347322327572 Eh   ::
         :::::::::::::::::::::::::::::::::::::::::::::::::::::

           -------------------------------------------------
          | TOTAL ENERGY              -84.908122573783 Eh   |
          | TOTAL ENTHALPY            -84.481902604371 Eh   |
          | TOTAL FREE ENERGY         -84.560800246211 Eh   |
          | GRADIENT NORM               0.000054146398 Eh/α |
          | HOMO-LUMO GAP               2.306565173103 eV   |
           -------------------------------------------------

 * finished run on 2025/08/22 at 10:00:03.765
