   * xtb version 6.7.1 (edcfbbe) compiled by 'albert@albert-system' on 2024-07-22

   ID    Z sym.   atoms
    1    6 C      1-10, 12-21, 23-25, 27-56, 58-66
    2    5 B      11
    3    8 O      22, 67
    4    7 N      26, 57
    5    1 H      68-116

          program call               : xtb data2507/toluene/TDBA-TPDICz/TDBA-TPDICz.xyz --gfn 2 --gbsa toluene --ohess vtight --parallel 40 --molden --ceasefiles --namespace data2507/toluene/TDBA-TPDICz/TDBA-TPDICz_toluene_S0_preOpt
      * Solvation model:               GBSA
        Solvent                        toluene
        Solvent mass                       9.2140E+01 g/mol
          :  Hamiltonian                  GFN2-xTB          :
 * total energy  :  -173.0733998 Eh     change       -0.7356164E-08 Eh
 * total energy  :  -173.1338712 Eh     change       -0.6047144E-01 Eh
 * total energy  :  -173.1565464 Eh     change       -0.2267516E-01 Eh
 * total energy  :  -173.1647223 Eh     change       -0.8175912E-02 Eh
 * total energy  :  -173.1694126 Eh     change       -0.4690270E-02 Eh
 * total energy  :  -173.1727871 Eh     change       -0.3374555E-02 Eh
 * total energy  :  -173.1754711 Eh     change       -0.2683982E-02 Eh
 * total energy  :  -173.1776939 Eh     change       -0.2222758E-02 Eh
 * total energy  :  -173.1794360 Eh     change       -0.1742101E-02 Eh
 * total energy  :  -173.1806385 Eh     change       -0.1202512E-02 Eh
 * total energy  :  -173.1885902 Eh     change       -0.1632213E-05 Eh
 * total energy  :  -173.1885917 Eh     change       -0.1460445E-05 Eh
 * total energy  :  -173.1885930 Eh     change       -0.1261483E-05 Eh
 * total energy  :  -173.1885940 Eh     change       -0.1069725E-05 Eh
 * total energy  :  -173.1885950 Eh     change       -0.9503395E-06 Eh
 * total energy  :  -173.1885959 Eh     change       -0.9029350E-06 Eh
 * total energy  :  -173.1885968 Eh     change       -0.9083504E-06 Eh
 * total energy  :  -173.1885977 Eh     change       -0.9439711E-06 Eh
 * total energy  :  -173.1885977 Eh     change       -0.6663328E-08 Eh
   *** GEOMETRY OPTIMIZATION CONVERGED AFTER 185 ITERATIONS ***

 final structure:
================
116
 xtb: 6.7.1 (edcfbbe)
C            8.06577158554026       -1.13796831231717       -3.02568363634545
C            7.37203456688275        0.19391826300177       -3.34949629375883
C            7.61326473872393        0.51087094430120       -4.82853932846211
C            7.99440205069242        1.32142853697849       -2.51280850574118
C            5.89295578571893        0.07184777018042       -3.00960306506444
C            4.88415860089591        0.18979874676492       -3.96671058786902
C            3.56061651552834        0.02289176838173       -3.62362845898911
C            3.19941526380671       -0.25368187044530       -2.30633315443396
C            4.17556239996017       -0.32555749039496       -1.29601631599904
C            5.50680078690579       -0.17828641666007       -1.70280458501180
B            3.67433107215304       -0.58424781207303        0.14480393889865
C            4.36455155476553       -0.54912567202958        1.52954720391322
C            5.64432573854563       -0.05758615582154        1.81224284685325
C            6.21408880271688       -0.06522545143665        3.07512307219146
C            7.60318205718869        0.52329850566725        3.28051856470983
C            8.60549289223651       -0.20771943676105        2.37539747306888
C            7.56519492890057        2.01554379949778        2.91683617993996
C            8.08941983749042        0.39684481053195        4.72753161907305
C            5.46228247075595       -0.61096208895171        4.11648823736373
C            4.18615004191431       -1.08090903954938        3.89695672985449
C            3.62381054942775       -1.03391023002790        2.62275980448263
O            2.33134249814013       -1.47547429028837        2.55281304488450
C            1.60377860143007       -1.35369216988457        1.41917867155587
C            0.24746910103369       -1.64268158560531        1.50047198537852
C           -0.54550012533781       -1.49019292511346        0.36987792769397
N           -1.92776794078756       -1.72085177404883        0.45635580759404
C           -2.49913448540649       -2.93404069205913        0.76519954484639
C           -1.87581236167011       -4.12932499687876        1.09445310624788
C           -2.67726288912575       -5.22116659893115        1.36501453386815
C           -4.06602952144991       -5.12667027555995        1.30750045041231
C           -4.68902419654697       -3.94357210543273        0.96143211258199
C           -3.90606974425345       -2.83077096770794        0.67339993519662
C           -4.19175426401364       -1.47390054676091        0.28540594359314
C           -5.39515978863563       -0.80016772744445        0.06776324955486
C           -6.69601652033346       -1.48892356463332        0.18684209207274
C           -7.55545669561530       -1.19006821939840        1.23817375700562
C           -8.77624034747681       -1.83053939465225        1.34701757414958
C           -9.15347589877703       -2.77425554383844        0.40664971871655
C           -8.29980629872359       -3.08300566049604       -0.63932529834159
C           -7.07642062310719       -2.44733168368493       -0.74727612684200
C           -5.28690748037913        0.55557607701288       -0.22915734738110
C           -4.03595947568780        1.23218184028319       -0.25855349619781
C           -2.83115379691238        0.55483737655655       -0.06050019858155
C           -1.53527031626875        1.26345564240357       -0.08367207739790
C           -0.79690620996446        1.41972894888369        1.08445177671634
C            0.43137552995953        2.05477344450325        1.05558029174917
C            0.93416792523889        2.54473008512909       -0.13805598975329
C            0.19571566650304        2.41125490957624       -1.30224021039337
C           -1.03313700678531        1.77775103880349       -1.27530452122598
C           -2.93760601510815       -0.81096845609580        0.18541001720582
C           -4.33007484169710        2.62430288860286       -0.47199319712109
C           -3.55673325742549        3.77740383912374       -0.55598328800782
C           -4.18476643670463        4.98655891668312       -0.78037998569605
C           -5.56788742348866        5.06378415867649       -0.93093211341362
C           -6.36057922362024        3.93668610759374       -0.84022569385479
C           -5.73542969067121        2.72231814552262       -0.59197244444969
N           -6.29858348107681        1.47402560435302       -0.45289022173763
C           -7.67241713209129        1.21612945973874       -0.62397157324636
C           -8.59860602498527        1.81508042707855        0.22236119251370
C           -9.94999351912549        1.58563678460819        0.03832872321813
C          -10.38319750589423        0.76008210864359       -0.98550084074265
C           -9.46103810201634        0.17097451651359       -1.83457568599131
C           -8.10926187533888        0.40213735972132       -1.66291464502334
C            0.00983885440969       -1.11283989321152       -0.84615369074841
C            1.36786404186833       -0.83223907242890       -0.91368635816164
C            2.19178957514577       -0.93441317857432        0.21693230164279
O            1.86016654362294       -0.44594565676589       -2.11081556498786
H            7.62811059307136       -1.94253445935233       -3.61357536918007
H            7.96458803851009       -1.39323387493752       -1.97447380026811
H            9.12594095043645       -1.07519193273484       -3.26227124977933
H            8.68310014242353        0.59176027918132       -5.01106110720688
H            7.15304904462614        1.45631943291523       -5.10701289379650
H            7.22433359110418       -0.27852613818145       -5.46772003088918
H            9.04319241511008        1.44578259322780       -2.77406237619078
H            7.93411325460592        1.10577636423537       -1.45034475034853
H            7.47761038802000        2.26049462535817       -2.70123834915511
H            5.12057710397514        0.39872504967204       -4.99691486943454
H            2.78133781835296        0.08805157266178       -4.36843819884080
H            6.26525139592101       -0.29039116751114       -0.94583101371169
H            6.19657257190141        0.37024586901671        0.99197656869234
H            9.60831509572784        0.18221217772690        2.53669818767048
H            8.35797729435950       -0.08025555350398        1.32591833253242
H            8.60883086813373       -1.27274415261575        2.59913704726269
H            6.85139158100320        2.53869821437235        3.55040273451529
H            8.54691304387716        2.46163558939354        3.06189928740031
H            7.27153141931327        2.16455541583645        1.88147855614128
H            7.43411260795730        0.93300598202092        5.41028772112590
H            9.08523648749982        0.82749818362154        4.81301622390920
H            8.14760081678059       -0.64582120535050        5.03187012477587
H            5.85754026355809       -0.66056725489094        5.11755833865203
H            3.59363032635358       -1.47806247261639        4.70782171638087
H           -0.18518883993322       -1.94163754235000        2.44221350951341
H           -0.79921234743379       -4.19980849832452        1.13737117682099
H           -2.21949665799271       -6.16391740075155        1.62769360011639
H           -4.66467050931111       -5.99665101279963        1.53487266118751
H           -5.76495456625413       -3.88514031168011        0.91835856998293
H           -7.25795958421273       -0.45766967950355        1.97526651227901
H           -9.43577356843906       -1.59181143301592        2.16876527028378
H          -10.10923157891298       -3.27057580481047        0.49076971967907
H           -8.58722099588802       -3.82255589323811       -1.37296745186651
H           -6.40629280422742       -2.68949214608133       -1.56019382932272
H           -1.19162679326337        1.04116424331837        2.01659878527732
H            0.99992549947742        2.16622522354120        1.96788266549700
H            1.89812703521819        3.03215768922834       -0.16027379062560
H            0.58058940398523        2.79846515434032       -2.23473984081664
H           -1.61020789723910        1.67061659684166       -2.18296450307519
H           -2.48492204472635        3.72984417036440       -0.44537103674832
H           -3.59470410816887        5.88925601110665       -0.84462595707450
H           -6.02835656138233        6.02284442679252       -1.11936647226624
H           -7.43215853030114        3.99621783799853       -0.95898326838446
H           -8.25198903371531        2.45008822832828        1.02474774170600
H          -10.66629187064765        2.04955481314673        0.70048394275786
H          -11.43849062271097        0.57849446430299       -1.12391601683668
H           -9.79587076867709       -0.46548740983175       -2.64005805065041
H           -7.38580091287179       -0.04201582879006       -2.32998315908587
H           -0.60395351639704       -1.02323690470312       -1.72781553687140

          :  Hamiltonian                  GFN2-xTB          :
         :: gradient norm              0.000065892742 Eh/a0 ::
         :: HOMO-LUMO gap              1.994174106023 eV    ::
         :: SCC energy              -176.254195938377 Eh    ::
         :: -> dispersion             -0.179976646647 Eh    ::
         :: -> Gsolv                  -0.061676398120 Eh    ::
         :: repulsion energy           3.065598200197 Eh    ::

    * Orbital Energies and Occupations

         #    Occupation            Energy/Eh            Energy/eV
      -------------------------------------------------------------
         1        2.0000           -0.7319651             -19.9178
       ...           ...                  ...                  ...
       149        2.0000           -0.4019864             -10.9386
       150        2.0000           -0.4015517             -10.9268
       151        2.0000           -0.4011470             -10.9158
       152        2.0000           -0.3986204             -10.8470
       153        2.0000           -0.3936317             -10.7113
       154        2.0000           -0.3910160             -10.6401
       155        2.0000           -0.3903040             -10.6207
       156        2.0000           -0.3890454             -10.5865
       157        2.0000           -0.3833134             -10.4305
       158        2.0000           -0.3756746             -10.2226
       159        2.0000           -0.3688197             -10.0361
       160        2.0000           -0.3663450              -9.9688
       161        2.0000           -0.3464031              -9.4261 (HOMO)
       162                         -0.2731185              -7.4319 (LUMO)
       163                         -0.2557981              -6.9606
       164                         -0.2356876              -6.4134
       165                         -0.2329052              -6.3377
       166                         -0.2323563              -6.3227
       167                         -0.2302309              -6.2649
       168                         -0.2280823              -6.2064
       169                         -0.2240956              -6.0980
       170                         -0.2223994              -6.0518
       171                         -0.2212240              -6.0198
       172                         -0.2200575              -5.9881
       ...                                ...                  ...
       317                          0.7437324              20.2380
      -------------------------------------------------------------
                  HL-Gap            0.0732846 Eh            1.9942 eV

     #   Z          covCN         q      C6AA      α(0)
     1   6 C        3.761    -0.107    22.590     6.775
     2   6 C        3.902     0.026    20.088     6.371
     3   6 C        3.761    -0.109    22.626     6.781
     4   6 C        3.761    -0.106    22.568     6.772
     5   6 C        2.968     0.002    27.974     8.676
     6   6 C        2.926    -0.036    28.891     8.815
     7   6 C        2.913    -0.056    29.399     8.891
     8   6 C        2.877     0.133    25.099     8.213
     9   6 C        2.882    -0.092    30.307     9.025
    10   6 C        2.932    -0.039    28.972     8.827
    11   5 B        2.724     0.213    18.189     7.146
    12   6 C        2.882    -0.092    30.301     9.024
    13   6 C        2.932    -0.039    28.972     8.827
    14   6 C        2.968     0.002    27.973     8.675
    15   6 C        3.902     0.026    20.089     6.371
    16   6 C        3.761    -0.106    22.570     6.772
    17   6 C        3.761    -0.107    22.586     6.775
    18   6 C        3.761    -0.109    22.626     6.781
    19   6 C        2.926    -0.036    28.893     8.815
    20   6 C        2.913    -0.057    29.407     8.892
    21   6 C        2.876     0.132    25.111     8.215
    22   8 O        1.711    -0.237    17.931     5.717
    23   6 C        2.874     0.140    24.954     8.189
    24   6 C        2.916    -0.082    30.046     8.989
    25   6 C        2.916     0.071    26.421     8.429
    26   7 N        2.803    -0.049    22.195     6.997
    27   6 C        3.073     0.049    26.825     8.492
    28   6 C        2.910    -0.054    29.333     8.881
    29   6 C        2.923    -0.035    28.874     8.812
    30   6 C        2.919    -0.044    29.095     8.845
    31   6 C        2.913    -0.037    28.912     8.817
    32   6 C        3.060    -0.018    28.389     8.738
    33   6 C        3.070    -0.025    28.555     8.762
    34   6 C        2.964    -0.019    28.473     8.752
    35   6 C        2.976     0.016    27.660     8.627
    36   6 C        2.925    -0.033    28.834     8.806
    37   6 C        2.919    -0.030    28.761     8.794
    38   6 C        2.920    -0.033    28.817     8.803
    39   6 C        2.919    -0.031    28.767     8.795
    40   6 C        2.925    -0.032    28.786     8.799
    41   6 C        3.067     0.036    27.131     8.541
    42   6 C        3.072    -0.026    28.563     8.763
    43   6 C        2.963    -0.019    28.478     8.753
    44   6 C        2.975     0.015    27.662     8.627
    45   6 C        2.925    -0.035    28.881     8.813
    46   6 C        2.919    -0.032    28.796     8.800
    47   6 C        2.920    -0.034    28.846     8.807
    48   6 C        2.919    -0.029    28.729     8.790
    49   6 C        2.925    -0.031    28.763     8.795
    50   6 C        3.066     0.035    27.145     8.543
    51   6 C        3.060    -0.019    28.412     8.741
    52   6 C        2.913    -0.037    28.918     8.818
    53   6 C        2.919    -0.044    29.103     8.847
    54   6 C        2.923    -0.035    28.883     8.813
    55   6 C        2.910    -0.054    29.340     8.882
    56   6 C        3.076     0.049    26.821     8.491
    57   7 N        2.801    -0.053    22.255     7.007
    58   6 C        2.914     0.066    26.517     8.444
    59   6 C        2.923    -0.040    29.006     8.832
    60   6 C        2.920    -0.029    28.713     8.787
    61   6 C        2.920    -0.032    28.801     8.801
    62   6 C        2.920    -0.028    28.689     8.784
    63   6 C        2.922    -0.039    28.967     8.826
    64   6 C        2.917    -0.080    30.006     8.983
    65   6 C        2.874     0.140    24.938     8.186
    66   6 C        2.888    -0.126    31.221     9.161
    67   8 O        1.711    -0.236    17.908     5.714
    68   1 H        0.925     0.033     2.549     2.497
    69   1 H        0.925     0.039     2.465     2.455
    70   1 H        0.925     0.041     2.437     2.441
    71   1 H        0.925     0.039     2.462     2.454
    72   1 H        0.925     0.037     2.496     2.470
    73   1 H        0.925     0.036     2.501     2.473
    74   1 H        0.925     0.041     2.442     2.444
    75   1 H        0.925     0.038     2.481     2.463
    76   1 H        0.925     0.033     2.537     2.491
    77   1 H        0.926     0.048     2.349     2.397
    78   1 H        0.926     0.040     2.447     2.446
    79   1 H        0.926     0.046     2.376     2.411
    80   1 H        0.926     0.045     2.377     2.411
    81   1 H        0.925     0.041     2.442     2.444
    82   1 H        0.925     0.038     2.481     2.463
    83   1 H        0.925     0.034     2.537     2.491
    84   1 H        0.925     0.033     2.551     2.498
    85   1 H        0.925     0.041     2.437     2.441
    86   1 H        0.925     0.039     2.464     2.455
    87   1 H        0.925     0.036     2.502     2.473
    88   1 H        0.925     0.039     2.462     2.454
    89   1 H        0.925     0.036     2.497     2.471
    90   1 H        0.926     0.047     2.351     2.398
    91   1 H        0.926     0.040     2.448     2.447
    92   1 H        0.926     0.052     2.295     2.369
    93   1 H        0.926     0.026     2.649     2.545
    94   1 H        0.926     0.029     2.600     2.522
    95   1 H        0.926     0.027     2.631     2.537
    96   1 H        0.926     0.030     2.580     2.512
    97   1 H        0.926     0.026     2.648     2.545
    98   1 H        0.926     0.031     2.577     2.510
    99   1 H        0.926     0.032     2.563     2.504
   100   1 H        0.926     0.032     2.553     2.499
   101   1 H        0.926     0.030     2.583     2.513
   102   1 H        0.926     0.026     2.643     2.542
   103   1 H        0.926     0.027     2.622     2.532
   104   1 H        0.926     0.029     2.598     2.521
   105   1 H        0.926     0.032     2.559     2.501
   106   1 H        0.926     0.032     2.564     2.504
   107   1 H        0.926     0.027     2.623     2.533
   108   1 H        0.926     0.025     2.658     2.549
   109   1 H        0.926     0.028     2.608     2.526
   110   1 H        0.926     0.027     2.626     2.534
   111   1 H        0.926     0.041     2.440     2.442
   112   1 H        0.926     0.041     2.434     2.440
   113   1 H        0.926     0.040     2.445     2.445
   114   1 H        0.926     0.040     2.454     2.450
   115   1 H        0.926     0.038     2.480     2.463
   116   1 H        0.926     0.049     2.327     2.386

molecular dipole:
                 x           y           z       tot (Debye)
 q only:        1.119       0.316      -0.256
   full:        0.920       0.254      -0.221       2.491

 projected vibrational frequencies (cm⁻¹)
eigval :       -0.00    -0.00    -0.00     0.00     0.00     0.00
eigval :        9.88    12.05    12.99    24.02    27.26    28.08
eigval :       34.05    41.48    46.51    47.38    52.55    55.56
eigval :       58.54    62.75    62.96    66.98    73.92    76.15
eigval :       87.16    92.38   100.88   104.82   110.78   117.35
eigval :      123.86   130.82   134.97   149.96   156.52   171.86
eigval :      180.41   187.80   195.82   198.48   209.42   210.04
eigval :      220.03   223.60   228.07   232.70   237.70   241.79
eigval :      246.55   248.72   258.20   271.78   272.39   278.44
eigval :      285.94   289.57   300.43   315.23   320.07   321.13
eigval :      324.21   345.70   351.59   360.20   360.62   370.93
eigval :      374.16   374.42   378.13   382.38   383.56   388.40
eigval :      394.20   398.56   413.00   415.30   425.38   433.77
eigval :      436.34   446.20   449.32   465.95   469.30   471.43
eigval :      476.16   486.97   504.82   516.97   517.37   518.90
eigval :      522.82   527.28   537.30   541.22   567.63   570.42
eigval :      581.13   582.05   587.22   588.17   590.72   592.83
eigval :      595.97   604.87   614.85   624.55   628.10   631.20
eigval :      643.61   647.75   650.70   658.12   664.76   667.41
eigval :      674.76   681.31   688.15   692.37   702.73   703.16
eigval :      710.50   713.28   716.36   721.01   729.84   751.23
eigval :      756.86   772.18   772.89   774.30   787.62   789.88
eigval :      823.12   826.54   827.73   829.17   836.92   860.21
eigval :      862.02   869.45   870.01   873.51   879.31   881.46
eigval :      883.59   883.93   884.68   886.37   895.48   900.24
eigval :      901.68   903.74   904.92   906.47   910.00   916.61
eigval :      917.29   919.29   920.25   930.07   930.68   931.31
eigval :      931.79   934.84   935.51   937.31   938.99   959.40
eigval :      959.73   960.35   961.35   961.74   963.10   964.66
eigval :      970.91   978.13   997.44  1023.68  1033.43  1034.28
eigval :     1034.55  1035.58  1036.77  1072.82  1074.30  1075.27
eigval :     1079.75  1081.80  1082.77  1084.26  1103.06  1109.22
eigval :     1117.52  1118.76  1120.92  1121.15  1132.08  1138.63
eigval :     1141.58  1161.85  1166.12  1177.44  1178.94  1179.15
eigval :     1180.93  1181.78  1181.96  1187.93  1190.87  1196.90
eigval :     1199.35  1206.51  1215.76  1219.07  1225.79  1225.96
eigval :     1228.50  1231.66  1234.49  1240.23  1240.85  1253.56
eigval :     1255.29  1269.19  1272.92  1276.85  1280.31  1281.07
eigval :     1282.46  1291.34  1296.47  1298.02  1306.42  1312.23
eigval :     1313.51  1316.60  1319.91  1320.61  1322.07  1327.54
eigval :     1345.24  1359.40  1361.44  1367.37  1382.49  1388.72
eigval :     1397.22  1398.84  1400.20  1401.63  1402.05  1407.58
eigval :     1408.98  1426.35  1426.61  1427.24  1428.91  1430.37
eigval :     1433.05  1434.87  1446.28  1452.65  1467.74  1471.28
eigval :     1476.51  1477.96  1480.65  1482.28  1487.42  1488.34
eigval :     1490.55  1491.77  1496.52  1497.87  1500.81  1502.33
eigval :     1511.42  1511.58  1516.99  1517.11  1530.16  1538.01
eigval :     1545.95  1549.50  1562.39  1569.95  1574.90  1580.35
eigval :     1581.06  1581.97  1584.32  1585.62  1590.99  1594.83
eigval :     1595.19  1599.84  1600.65  1602.30  1603.81  3020.50
eigval :     3020.50  3021.55  3021.68  3024.89  3025.13  3026.25
eigval :     3026.52  3028.81  3028.96  3031.89  3032.15  3036.72
eigval :     3037.14  3045.44  3046.89  3052.62  3053.31  3065.88
eigval :     3067.35  3068.36  3068.50  3069.21  3069.35  3074.99
eigval :     3075.16  3075.67  3077.42  3077.74  3078.75  3079.30
eigval :     3079.58  3082.96  3083.56  3085.38  3087.48  3087.76
eigval :     3088.86  3089.77  3090.95  3098.16  3104.55  3105.07
eigval :     3107.95  3108.97  3110.82  3113.68  3116.08  3116.81

   temp. (K)  partition function   enthalpy   heat capacity  entropy
                                   cal/mol     cal/K/mol   cal/K/mol   J/K/mol
 298.15  VIB  0.261E+26            33704.960    211.975    209.289
         ROT  0.198E+09              888.752      2.981     40.944
         INT  0.517E+34            34593.713    214.956    250.234
         TR   0.246E+29             1481.254      4.968     46.128
         TOT                       36074.9665   219.9240   296.3615  1239.9766

       T/K    H(0)-H(T)+PV         H(T)/Eh          T*S/Eh         G(T)/Eh
   ------------------------------------------------------------------------
    298.15    0.574891E-01    0.974040E+00    0.140811E+00    0.833230E+00
   ------------------------------------------------------------------------

         :::::::::::::::::::::::::::::::::::::::::::::::::::::
         ::                  THERMODYNAMIC                  ::
         :::::::::::::::::::::::::::::::::::::::::::::::::::::
         :: total free energy        -172.355368184463 Eh   ::
         ::.................................................::
         :: total energy             -173.188597738162 Eh   ::
         :: zero point energy           0.916551359872 Eh   ::
         :: G(RRHO) w/o ZPVE           -0.083321806172 Eh   ::
         :: G(RRHO) contrib.            0.833229553699 Eh   ::
         :::::::::::::::::::::::::::::::::::::::::::::::::::::

           -------------------------------------------------
          | TOTAL ENERGY             -173.188597738162 Eh   |
          | TOTAL ENTHALPY           -172.214557259880 Eh   |
          | TOTAL FREE ENERGY        -172.355368184463 Eh   |
          | GRADIENT NORM               0.000065894393 Eh/α |
          | HOMO-LUMO GAP               1.994174221411 eV   |
           -------------------------------------------------

 * finished run on 2025/07/18 at 01:49:40.226
