   * xtb version 6.7.1 (edcfbbe) compiled by 'albert@albert-system' on 2024-07-22

   ID    Z sym.   atoms
    1    6 C      1-10, 12-21, 23-25, 27-56, 58-66
    2    5 B      11
    3    8 O      22, 67
    4    7 N      26, 57
    5    1 H      68-116

          program call               : xtb data2507/toluene/TDBA-TPDICz/TDBA-TPDICz_toluene_S0_crest.xyz --gfn 2 --gbsa toluene --ohess vtight --parallel 40 --molden --ceasefiles --namespace data2507/toluene/TDBA-TPDICz/TDBA-TPDICz_toluene_S0_finalOpt
      * Solvation model:               GBSA
        Solvent                        toluene
        Solvent mass                       9.2140E+01 g/mol
          :  Hamiltonian                  GFN2-xTB          :
 * total energy  :  -173.1890005 Eh     change       -0.3248374E-08 Eh
 * total energy  :  -173.1890749 Eh     change       -0.7437125E-04 Eh
 * total energy  :  -173.1891388 Eh     change       -0.6389463E-04 Eh
 * total energy  :  -173.1891806 Eh     change       -0.4178731E-04 Eh
 * total energy  :  -173.1892196 Eh     change       -0.3900902E-04 Eh
 * total energy  :  -173.1892655 Eh     change       -0.4597922E-04 Eh
 * total energy  :  -173.1892830 Eh     change       -0.1745345E-04 Eh
 * total energy  :  -173.1892932 Eh     change       -0.1019080E-04 Eh
 * total energy  :  -173.1893004 Eh     change       -0.7187517E-05 Eh
 * total energy  :  -173.1893033 Eh     change       -0.2952907E-05 Eh
 * total energy  :  -173.1894200 Eh     change       -0.6988121E-06 Eh
 * total energy  :  -173.1894208 Eh     change       -0.7406581E-06 Eh
 * total energy  :  -173.1894215 Eh     change       -0.6978573E-06 Eh
 * total energy  :  -173.1894220 Eh     change       -0.5802820E-06 Eh
 * total energy  :  -173.1894225 Eh     change       -0.4824433E-06 Eh
 * total energy  :  -173.1894230 Eh     change       -0.4601825E-06 Eh
 * total energy  :  -173.1894235 Eh     change       -0.5377623E-06 Eh
 * total energy  :  -173.1894242 Eh     change       -0.7169958E-06 Eh
 * total energy  :  -173.1894243 Eh     change       -0.9489497E-08 Eh
   *** GEOMETRY OPTIMIZATION CONVERGED AFTER 94 ITERATIONS ***

 final structure:
================
116
 xtb: 6.7.1 (edcfbbe)
C            9.24881144209385       -2.30080975230036       -2.80640628981509
C            8.83470208088393       -2.40822344845547       -1.33107699371893
C            9.49205589587591       -1.25588343681080       -0.56580097254176
C            9.34948399742840       -3.72933146137980       -0.74047743111123
C            7.31560716309135       -2.38305201844575       -1.24038187354461
C            6.57496059090228       -3.37715505502678       -1.88853380670872
C            5.20344388656867       -3.40543165190702       -1.80991136896658
C            4.51907989999093       -2.42706455923385       -1.08712552390515
C            5.21454747283898       -1.38486886628317       -0.45114261595762
C            6.61462071508058       -1.41801375377079       -0.54254021158371
B            4.36493886178061       -0.32716075328073        0.29679789119743
C            4.70766339909327        1.01700388698755        0.98614056492385
C            5.93958242737181        1.68793147437589        0.94196471795056
C            6.19224927941353        2.87304325913905        1.60628541770014
C            7.53366079770597        3.59011831676813        1.55225789041321
C            8.55678560511674        2.86590300651702        0.67231649055408
C            7.32547882148522        5.00086163250666        0.98148861198187
C            8.10643720237877        3.68331386765845        2.97439599369039
C            5.15245811099536        3.42338546741643        2.36318152680284
C            3.91832805261900        2.82186350276306        2.41638101397022
C            3.68228810514624        1.63421009871694        1.72227296118807
O            2.40344674411337        1.16487949904332        1.82701163546471
C            1.98631920524887        0.08924467354636        1.12479745469758
C            0.63563348709112       -0.22443022669837        1.19062841703479
C            0.14958934423704       -1.29277021268000        0.44735033379592
N           -1.22477584193017       -1.57438845626004        0.45617767903513
C           -1.77338338756968       -2.75558078916614        0.90358468104958
C           -1.12867591145553       -3.89734676696196        1.35816530529731
C           -1.90999952848992       -4.96648429448812        1.75080597615986
C           -3.30034286237709       -4.90126210664159        1.69430159875301
C           -3.94575082574560       -3.75722084658515        1.26766946447612
C           -3.18356117892192       -2.66068702348727        0.87888897604643
C           -3.49616533547635       -1.34001405723964        0.39755200048984
C           -4.71324059697752       -0.69710943399432        0.16353729073219
C           -6.00262311985754       -1.35792154950943        0.44683740357440
C           -6.38304629098649       -1.63449091860731        1.75634469431373
C           -7.59593250992603       -2.24471168274191        2.01872676846858
C           -8.43939927824334       -2.59166993701184        0.97642376446400
C           -8.06252194413415       -2.32991781081516       -0.32996631261963
C           -6.85220649203319       -1.71549359551142       -0.59432497146668
C           -4.62931187638314        0.58115966789782       -0.38162578892083
C           -3.38930098636626        1.17540592876942       -0.74539367851042
C           -2.17095741946974        0.54134906999563       -0.49143057828183
C           -0.88572691752189        1.15990174434797       -0.87355901723617
C           -0.44393897379324        2.31713431171044       -0.23880432065882
C            0.77482635266602        2.87818148625953       -0.57292250590517
C            1.56489409434257        2.29300211464937       -1.54845118196335
C            1.12335693250998        1.15272400806909       -2.19855366373313
C           -0.09575841070467        0.59027886946847       -1.86652303201816
C           -2.25331437797199       -0.70860178876808        0.11643493394819
C           -3.70945387327713        2.41950560114313       -1.39429377246067
C           -2.95740821230939        3.41859453725425       -2.00365423043225
C           -3.60833517970099        4.51523189846299       -2.53318358134774
C           -4.99408016623115        4.63801831352085       -2.45611712691423
C           -5.76623996319608        3.65509685655276       -1.86927331155720
C           -5.11781827710186        2.53941964067502       -1.35746059915354
N           -5.65920725912559        1.43338110098896       -0.74186943762690
C           -7.02657144081101        1.30629344274557       -0.43142779932114
C           -7.43983973930330        1.23439016602266        0.89420792496149
C           -8.78588130121099        1.13415832460469        1.19128579348481
C           -9.72601299570192        1.12018165287171        0.17420249678772
C           -9.31629471715623        1.20734018316697       -1.14563031646247
C           -7.97072807597633        1.29956316213309       -1.45187920713476
C            1.00950998271436       -2.09061091946732       -0.29716575413915
C            2.36549436493376       -1.78906315903937       -0.31949665987423
C            2.88272033035918       -0.68303482241148        0.37098153032901
O            3.16233172906889       -2.59129655023830       -1.06052134179658
H            8.86145721923755       -1.38076592903821       -3.23989757690696
H            8.87000386340225       -3.13687766936980       -3.38794360557948
H           10.33355770524314       -2.29228450601545       -2.89068950752689
H           10.57358934039425       -1.32861656129703       -0.66200939790474
H            9.24623731564843       -1.29939971943593        0.49275559165243
H            9.18422086212252       -0.29404011174647       -0.96837713068277
H           10.43625462743277       -3.76011699068431       -0.78423459623821
H            8.96344935376696       -4.58627326957238       -1.28557147050184
H            9.04292618655096       -3.82108827552418        0.29982328383280
H            7.07437170682125       -4.14937165366533       -2.45322532489597
H            4.63154867410308       -4.18398427591136       -2.29273292570058
H            7.15350626499780       -0.65041271207359       -0.01726743088508
H            6.71175719139393        1.24642842114732        0.33819428932906
H            9.48989650134784        3.42585759023107        0.66771180027365
H            8.20597066658435        2.79070550360992       -0.35440599378876
H            8.76612921034415        1.87038648640847        1.05575121217693
H            6.65978095543332        5.58923768494058        1.60694580653373
H            8.27835117431914        5.52203064735312        0.91569252086427
H            6.89389863480225        4.94321022132978       -0.01603022421441
H            7.45010698445824        4.24790208121051        3.63095307203363
H            9.07561010072850        4.17751935074097        2.95575240164172
H            8.23429180627837        2.68759966702802        3.39464920773768
H            5.30194333905409        4.34178912977778        2.90988538247880
H            3.10797577597527        3.25651560539171        2.98263483686000
H           -0.02751847228541        0.37626989790854        1.79165277834532
H           -0.05104934948347       -3.94605056254291        1.40273265094414
H           -1.43458336919905       -5.86994401024482        2.10440365292094
H           -3.88249763121019       -5.75996471175330        1.99531232564833
H           -5.02283082231144       -3.71860046215679        1.23394686511604
H           -5.72069815680279       -1.36696751684753        2.56772328539126
H           -7.88310399859870       -2.45162744188182        3.03974116827724
H           -9.38701242545652       -3.06798143668863        1.18162722199827
H           -8.71393011552608       -2.60547517971083       -1.14668651774774
H           -6.55466036995768       -1.51660672301205       -1.61419660464704
H           -1.06057149682827        2.76987317026538        0.52491656370279
H            1.11066725640714        3.77345897574245       -0.06997886335483
H            2.52121297727677        2.72630074457137       -1.80322406719540
H            1.73293138355544        0.69852974515321       -2.96665038088283
H           -0.44238525870620       -0.29664926241842       -2.37757899223269
H           -1.88377769838125        3.33828376136561       -2.06623287711771
H           -3.03391365062461        5.29580165430522       -3.01057025562914
H           -5.47267241830778        5.51570554950364       -2.86594451580645
H           -6.83994988196878        3.75098299515467       -1.80769648069120
H           -6.70242339244398        1.26016299100354        1.68254650137004
H           -9.10225347972874        1.07503682435639        2.22207456553984
H          -10.77685576346165        1.04432825928762        0.41043785323469
H          -10.04630742254465        1.19885414701007       -1.94171723133441
H           -7.64269091588119        1.35808220288553       -2.47951978561797
H            0.63358592059927       -2.92339439487570       -0.87035256375952

          :  Hamiltonian                  GFN2-xTB          :
         :: gradient norm              0.000066588749 Eh/a0 ::
         :: HOMO-LUMO gap              2.025736815200 eV    ::
         :: SCC energy              -176.254761824398 Eh    ::
         :: -> dispersion             -0.180419166596 Eh    ::
         :: -> Gsolv                  -0.061317733749 Eh    ::
         :: repulsion energy           3.065337572594 Eh    ::

    * Orbital Energies and Occupations

         #    Occupation            Energy/Eh            Energy/eV
      -------------------------------------------------------------
         1        2.0000           -0.7318389             -19.9143
       ...           ...                  ...                  ...
       149        2.0000           -0.4019801             -10.9384
       150        2.0000           -0.4010855             -10.9141
       151        2.0000           -0.4005113             -10.8985
       152        2.0000           -0.3986916             -10.8490
       153        2.0000           -0.3929173             -10.6918
       154        2.0000           -0.3908589             -10.6358
       155        2.0000           -0.3902002             -10.6179
       156        2.0000           -0.3879818             -10.5575
       157        2.0000           -0.3836643             -10.4400
       158        2.0000           -0.3757379             -10.2243
       159        2.0000           -0.3680380             -10.0148
       160        2.0000           -0.3663451              -9.9688
       161        2.0000           -0.3465592              -9.4304 (HOMO)
       162                         -0.2721147              -7.4046 (LUMO)
       163                         -0.2563820              -6.9765
       164                         -0.2353384              -6.4039
       165                         -0.2332829              -6.3480
       166                         -0.2323796              -6.3234
       167                         -0.2301560              -6.2629
       168                         -0.2282079              -6.2099
       169                         -0.2243358              -6.1045
       170                         -0.2223336              -6.0500
       171                         -0.2203557              -5.9962
       172                         -0.2199198              -5.9843
       ...                                ...                  ...
       317                          0.7432893              20.2259
      -------------------------------------------------------------
                  HL-Gap            0.0744445 Eh            2.0257 eV

     #   Z          covCN         q      C6AA      α(0)
     1   6 C        3.761    -0.107    22.583     6.774
     2   6 C        3.902     0.026    20.090     6.371
     3   6 C        3.761    -0.110    22.646     6.784
     4   6 C        3.761    -0.106    22.580     6.774
     5   6 C        2.968     0.002    27.973     8.675
     6   6 C        2.927    -0.032    28.787     8.799
     7   6 C        2.913    -0.056    29.401     8.891
     8   6 C        2.876     0.132    25.112     8.215
     9   6 C        2.882    -0.092    30.307     9.025
    10   6 C        2.930    -0.045    29.106     8.848
    11   5 B        2.723     0.212    18.212     7.151
    12   6 C        2.882    -0.092    30.312     9.026
    13   6 C        2.930    -0.044    29.103     8.847
    14   6 C        2.968     0.002    27.976     8.676
    15   6 C        3.902     0.026    20.089     6.371
    16   6 C        3.761    -0.110    22.645     6.784
    17   6 C        3.761    -0.106    22.577     6.773
    18   6 C        3.761    -0.107    22.583     6.774
    19   6 C        2.927    -0.031    28.785     8.799
    20   6 C        2.913    -0.056    29.389     8.889
    21   6 C        2.877     0.133    25.090     8.211
    22   8 O        1.711    -0.236    17.912     5.714
    23   6 C        2.875     0.140    24.948     8.188
    24   6 C        2.917    -0.081    30.022     8.985
    25   6 C        2.916     0.071    26.423     8.429
    26   7 N        2.802    -0.049    22.182     6.995
    27   6 C        3.072     0.049    26.828     8.493
    28   6 C        2.910    -0.054    29.333     8.881
    29   6 C        2.923    -0.035    28.875     8.812
    30   6 C        2.919    -0.044    29.092     8.845
    31   6 C        2.913    -0.037    28.914     8.817
    32   6 C        3.060    -0.017    28.384     8.737
    33   6 C        3.070    -0.025    28.553     8.762
    34   6 C        2.964    -0.019    28.471     8.752
    35   6 C        2.976     0.015    27.663     8.627
    36   6 C        2.925    -0.031    28.784     8.798
    37   6 C        2.919    -0.031    28.768     8.795
    38   6 C        2.920    -0.033    28.817     8.803
    39   6 C        2.919    -0.031    28.762     8.795
    40   6 C        2.925    -0.034    28.835     8.806
    41   6 C        3.068     0.036    27.129     8.541
    42   6 C        3.070    -0.026    28.566     8.764
    43   6 C        2.963    -0.019    28.473     8.752
    44   6 C        2.975     0.015    27.662     8.627
    45   6 C        2.925    -0.030    28.754     8.794
    46   6 C        2.919    -0.029    28.724     8.789
    47   6 C        2.920    -0.034    28.840     8.807
    48   6 C        2.919    -0.032    28.799     8.800
    49   6 C        2.924    -0.035    28.881     8.813
    50   6 C        3.065     0.035    27.149     8.544
    51   6 C        3.060    -0.018    28.408     8.740
    52   6 C        2.913    -0.037    28.920     8.818
    53   6 C        2.919    -0.044    29.102     8.846
    54   6 C        2.923    -0.035    28.882     8.813
    55   6 C        2.910    -0.054    29.340     8.882
    56   6 C        3.076     0.049    26.822     8.491
    57   7 N        2.800    -0.052    22.251     7.006
    58   6 C        2.914     0.066    26.516     8.444
    59   6 C        2.922    -0.039    28.971     8.827
    60   6 C        2.920    -0.028    28.691     8.784
    61   6 C        2.920    -0.032    28.805     8.801
    62   6 C        2.920    -0.029    28.713     8.787
    63   6 C        2.923    -0.041    29.010     8.833
    64   6 C        2.917    -0.083    30.070     8.992
    65   6 C        2.874     0.139    24.965     8.191
    66   6 C        2.888    -0.127    31.226     9.161
    67   8 O        1.711    -0.237    17.919     5.715
    68   1 H        0.925     0.034     2.528     2.486
    69   1 H        0.925     0.036     2.498     2.472
    70   1 H        0.925     0.040     2.445     2.445
    71   1 H        0.925     0.039     2.457     2.451
    72   1 H        0.925     0.037     2.483     2.464
    73   1 H        0.925     0.040     2.450     2.448
    74   1 H        0.925     0.040     2.448     2.447
    75   1 H        0.925     0.036     2.500     2.472
    76   1 H        0.925     0.033     2.541     2.493
    77   1 H        0.926     0.040     2.446     2.446
    78   1 H        0.926     0.040     2.454     2.450
    79   1 H        0.926     0.055     2.260     2.351
    80   1 H        0.926     0.055     2.262     2.352
    81   1 H        0.925     0.039     2.458     2.452
    82   1 H        0.925     0.037     2.484     2.465
    83   1 H        0.925     0.040     2.450     2.448
    84   1 H        0.925     0.036     2.499     2.472
    85   1 H        0.925     0.040     2.450     2.448
    86   1 H        0.925     0.033     2.543     2.494
    87   1 H        0.925     0.036     2.499     2.472
    88   1 H        0.925     0.040     2.445     2.445
    89   1 H        0.925     0.034     2.528     2.487
    90   1 H        0.926     0.040     2.446     2.446
    91   1 H        0.926     0.039     2.457     2.451
    92   1 H        0.926     0.049     2.335     2.390
    93   1 H        0.926     0.026     2.639     2.540
    94   1 H        0.926     0.029     2.598     2.521
    95   1 H        0.926     0.027     2.629     2.536
    96   1 H        0.926     0.031     2.575     2.509
    97   1 H        0.926     0.030     2.580     2.512
    98   1 H        0.926     0.032     2.554     2.499
    99   1 H        0.926     0.032     2.564     2.504
   100   1 H        0.926     0.031     2.577     2.510
   101   1 H        0.926     0.026     2.646     2.544
   102   1 H        0.926     0.032     2.562     2.503
   103   1 H        0.926     0.032     2.561     2.502
   104   1 H        0.926     0.029     2.603     2.523
   105   1 H        0.926     0.028     2.619     2.531
   106   1 H        0.926     0.026     2.642     2.542
   107   1 H        0.926     0.028     2.617     2.530
   108   1 H        0.926     0.025     2.656     2.548
   109   1 H        0.926     0.029     2.608     2.525
   110   1 H        0.926     0.028     2.621     2.532
   111   1 H        0.926     0.037     2.484     2.465
   112   1 H        0.926     0.039     2.456     2.451
   113   1 H        0.926     0.040     2.447     2.446
   114   1 H        0.926     0.041     2.435     2.440
   115   1 H        0.926     0.041     2.437     2.441
   116   1 H        0.926     0.052     2.296     2.370

molecular dipole:
                 x           y           z       tot (Debye)
 q only:        1.130       0.428       0.110
   full:        0.920       0.352       0.116       2.522

 projected vibrational frequencies (cm⁻¹)
eigval :       -0.00    -0.00     0.00     0.00     0.00     0.00
eigval :        7.90     8.74    11.64    20.65    23.55    25.54
eigval :       28.24    35.99    40.74    46.34    50.86    52.85
eigval :       53.76    59.69    62.66    64.52    71.30    79.34
eigval :       82.54    92.86    98.72   103.69   112.36   118.80
eigval :      126.76   133.30   137.46   150.35   158.95   168.24
eigval :      179.04   187.10   195.41   198.34   209.12   210.08
eigval :      218.47   221.31   226.59   229.51   230.44   235.54
eigval :      243.44   247.52   261.82   265.09   271.40   277.12
eigval :      286.17   292.99   299.93   316.30   319.32   327.53
eigval :      332.03   341.40   348.94   360.78   365.00   366.54
eigval :      372.78   375.67   378.02   382.72   385.97   387.96
eigval :      394.41   398.00   412.31   414.47   425.23   433.97
eigval :      435.09   443.67   444.64   465.20   468.20   471.90
eigval :      477.13   489.18   503.90   516.10   517.58   519.78
eigval :      522.49   527.02   537.92   541.58   567.75   570.23
eigval :      581.26   581.86   587.11   588.20   590.50   592.56
eigval :      597.11   603.91   615.16   624.46   628.04   630.61
eigval :      644.24   648.06   651.75   659.62   665.03   667.41
eigval :      674.62   679.38   688.53   692.51   700.49   702.39
eigval :      709.23   714.12   715.02   719.05   730.18   749.39
eigval :      754.68   770.96   772.46   775.61   786.67   788.22
eigval :      822.79   826.35   828.38   831.15   836.05   859.51
eigval :      862.69   868.42   871.23   872.30   872.61   876.86
eigval :      877.40   879.52   880.60   883.80   892.08   898.39
eigval :      901.36   903.10   903.70   905.79   908.86   919.16
eigval :      920.60   921.41   922.55   927.94   929.88   930.26
eigval :      931.11   931.35   932.69   932.92   939.91   959.09
eigval :      959.40   960.12   962.47   962.61   963.80   968.32
eigval :      970.92   978.01   997.07  1023.63  1034.04  1034.35
eigval :     1034.71  1035.57  1036.11  1073.93  1074.77  1075.90
eigval :     1078.68  1081.96  1082.45  1084.01  1103.62  1108.84
eigval :     1115.94  1117.93  1120.76  1120.84  1130.48  1137.48
eigval :     1139.44  1161.90  1166.70  1176.40  1177.61  1177.86
eigval :     1179.17  1179.87  1181.77  1186.08  1190.14  1195.95
eigval :     1198.82  1205.20  1213.54  1217.45  1225.75  1226.08
eigval :     1228.41  1230.47  1233.20  1239.71  1240.65  1245.61
eigval :     1256.52  1270.52  1272.55  1276.43  1278.78  1280.62
eigval :     1282.62  1290.77  1293.49  1297.85  1306.74  1312.78
eigval :     1313.92  1316.83  1319.64  1320.83  1330.05  1335.11
eigval :     1345.94  1359.35  1361.44  1367.06  1382.02  1387.95
eigval :     1396.83  1398.58  1400.87  1402.37  1402.61  1406.78
eigval :     1409.15  1426.32  1426.72  1427.21  1428.99  1430.58
eigval :     1432.57  1434.52  1446.14  1452.97  1467.56  1470.31
eigval :     1476.52  1477.61  1480.35  1481.95  1487.70  1488.86
eigval :     1491.27  1491.83  1496.64  1499.56  1500.88  1502.20
eigval :     1510.32  1511.10  1514.85  1518.29  1529.21  1536.22
eigval :     1544.80  1548.84  1561.93  1569.02  1575.32  1580.32
eigval :     1581.08  1581.95  1584.16  1585.48  1594.63  1594.69
eigval :     1598.19  1599.51  1600.52  1602.02  1603.45  3020.83
eigval :     3021.02  3021.46  3021.57  3024.88  3025.13  3025.73
eigval :     3026.18  3028.66  3028.74  3033.14  3033.79  3038.23
eigval :     3039.53  3044.42  3044.93  3047.82  3048.18  3066.73
eigval :     3066.99  3068.15  3068.87  3070.23  3070.25  3074.60
eigval :     3074.78  3074.95  3077.98  3078.34  3078.47  3078.92
eigval :     3079.63  3080.42  3080.68  3084.56  3088.39  3088.64
eigval :     3089.05  3089.50  3089.78  3092.48  3093.08  3096.96
eigval :     3104.47  3106.07  3108.72  3112.43  3143.47  3148.98

   temp. (K)  partition function   enthalpy   heat capacity  entropy
                                   cal/mol     cal/K/mol   cal/K/mol   J/K/mol
 298.15  VIB  0.150E+27            33802.916    211.443    210.634
         ROT  0.199E+09              888.752      2.981     40.957
         INT  0.298E+35            34691.668    214.424    251.591
         TR   0.246E+29             1481.254      4.968     46.128
         TOT                       36172.9222   219.3917   297.7188  1245.6554

       T/K    H(0)-H(T)+PV         H(T)/Eh          T*S/Eh         G(T)/Eh
   ------------------------------------------------------------------------
    298.15    0.576452E-01    0.973891E+00    0.141456E+00    0.832435E+00
   ------------------------------------------------------------------------

         :::::::::::::::::::::::::::::::::::::::::::::::::::::
         ::                  THERMODYNAMIC                  ::
         :::::::::::::::::::::::::::::::::::::::::::::::::::::
         :: total free energy        -172.356989548339 Eh   ::
         ::.................................................::
         :: total energy             -173.189424255800 Eh   ::
         :: zero point energy           0.916245292834 Eh   ::
         :: G(RRHO) w/o ZPVE           -0.083810585374 Eh   ::
         :: G(RRHO) contrib.            0.832434707461 Eh   ::
         :::::::::::::::::::::::::::::::::::::::::::::::::::::

           -------------------------------------------------
          | TOTAL ENERGY             -173.189424255800 Eh   |
          | TOTAL ENTHALPY           -172.215533742243 Eh   |
          | TOTAL FREE ENERGY        -172.356989548339 Eh   |
          | GRADIENT NORM               0.000066542150 Eh/α |
          | HOMO-LUMO GAP               2.025737579508 eV   |
           -------------------------------------------------

 * finished run on 2025/07/18 at 02:04:53.107
