   * xtb version 6.7.1 (edcfbbe) compiled by 'albert@albert-system' on 2024-07-22

   ID    Z sym.   atoms
    1    6 C      1-10, 12-21, 23-25, 27-56, 58-66
    2    5 B      11
    3    8 O      22, 67
    4    7 N      26, 57
    5    1 H      68-116

          program call               : xtb data2507/toluene/TDBA-TPDICz/TDBA-TPDICz_toluene_T1_crest.xyz --gfn 2 --uhf 2 --gbsa toluene --ohess vtight --parallel 40 --molden --ceasefiles --namespace data2507/toluene/TDBA-TPDICz/TDBA-TPDICz_toluene_T1_finalOpt
      * Solvation model:               GBSA
        Solvent                        toluene
        Solvent mass                       9.2140E+01 g/mol
          :  Hamiltonian                  GFN2-xTB          :
 * total energy  :  -173.1019590 Eh     change       -0.8000995E-08 Eh
 * total energy  :  -173.1020520 Eh     change       -0.9302396E-04 Eh
 * total energy  :  -173.1021319 Eh     change       -0.7987185E-04 Eh
 * total energy  :  -173.1021739 Eh     change       -0.4198184E-04 Eh
 * total energy  :  -173.1022099 Eh     change       -0.3599438E-04 Eh
 * total energy  :  -173.1022502 Eh     change       -0.4033905E-04 Eh
 * total energy  :  -173.1022685 Eh     change       -0.1828774E-04 Eh
 * total energy  :  -173.1022774 Eh     change       -0.8864877E-05 Eh
 * total energy  :  -173.1022862 Eh     change       -0.8809518E-05 Eh
 * total energy  :  -173.1022896 Eh     change       -0.3442962E-05 Eh
 * total energy  :  -173.1024645 Eh     change       -0.3528993E-07 Eh
 * total energy  :  -173.1024647 Eh     change       -0.2049986E-06 Eh
 * total energy  :  -173.1024649 Eh     change       -0.2483152E-06 Eh
 * total energy  :  -173.1024651 Eh     change       -0.2181460E-06 Eh
 * total energy  :  -173.1024654 Eh     change       -0.2630027E-06 Eh
 * total energy  :  -173.1024656 Eh     change       -0.2219156E-06 Eh
 * total energy  :  -173.1024658 Eh     change       -0.1890514E-06 Eh
 * total energy  :  -173.1024660 Eh     change       -0.1536486E-06 Eh
 * total energy  :  -173.1024660 Eh     change       -0.2028818E-07 Eh
   *** GEOMETRY OPTIMIZATION CONVERGED AFTER 81 ITERATIONS ***

 final structure:
================
116
 xtb: 6.7.1 (edcfbbe)
C            7.28048344205889       -5.00848634136465        1.16736549020605
C            7.47295130849998       -3.58562125289999        1.71304914264229
C            8.51628941747146       -2.87989740185676        0.84176380222382
C            8.01388980169122       -3.64901865982827        3.14928411001605
C            6.13004477648134       -2.86829088223371        1.72338281433157
C            5.07331338968711       -3.40875167893939        2.45984121653146
C            3.83777722056698       -2.79940022206505        2.47475301595606
C            3.62552536430696       -1.61957229695512        1.76663354312656
C            4.66692924849851       -1.01094374220681        1.04345366875732
C            5.89627131736909       -1.68926236056677        1.03826008543775
B            4.34325275847659        0.32168146268867        0.32376648924390
C            5.20802247822428        1.35523551541501       -0.43916897622341
C            6.60917480027704        1.37129848262589       -0.53041243203246
C            7.32545807317465        2.31593800617136       -1.24342019372527
C            8.84531340591729        2.31543901818050       -1.33332494857015
C            9.38190353280528        3.64735723697256       -0.78784627199167
C            9.48669974971064        1.18047571892744       -0.52941930761430
C            9.25786933808821        2.15232403162100       -2.80398690038556
C            6.60262805576004        3.30863299999707       -1.90945922608495
C            5.22800265295710        3.35577323730738       -1.83027109772465
C            4.53205940899066        2.39992984274949       -1.09504351441962
O            3.17272422268350        2.58386883809223       -1.07758474068798
C            2.36110068597302        1.79495961570989       -0.33216897164195
C            1.01103376154896        2.11694535099426       -0.32359948249320
C            0.13079588050153        1.32511075701271        0.40786656334913
N           -1.24329132031992        1.61502504892239        0.39519588157127
C           -1.78198249001053        2.79887205393767        0.84512161214588
C           -1.13002576102518        3.92919971222457        1.30923625653166
C           -1.90733584200153        5.01121488016136        1.68951349153927
C           -3.29930242108469        4.95479493530507        1.59783212875608
C           -3.95663568903345        3.82059802966929        1.16224178765774
C           -3.20242739412196        2.70303621165493        0.79653720433136
C           -3.50364373297767        1.39204665093807        0.31963237555131
C           -4.72993287086762        0.71866369539823        0.10315809326614
C           -6.01530376066695        1.34510929132799        0.41168601059951
C           -6.96289561924263        1.55023691749656       -0.59262211738551
C           -8.17559606589112        2.14228992033859       -0.30197072380970
C           -8.47070336098690        2.53096844311470        0.99580310923690
C           -7.53469073270292        2.33696861118651        1.99966039931967
C           -6.31432869672912        1.75774257655224        1.71135140767398
C           -4.61734916101736       -0.56929914081684       -0.45119337155683
C           -3.37858973058936       -1.14316004671343       -0.84920791776229
C           -2.15149141814342       -0.48924323606179       -0.59374826984081
C           -0.87032900776688       -1.09136748748053       -0.97364067867045
C           -0.03948763024830       -0.47003811442555       -1.90594459742498
C            1.17742792944159       -1.02978752945173       -2.24159032805125
C            1.58686034022142       -2.21735598216094       -1.65472997843406
C            0.75986728067378       -2.85244436842471       -0.74249195454699
C           -0.46179439777694       -2.29997878035338       -0.40903430136085
C           -2.25865383011832        0.76548250647642        0.03053196174877
C           -3.68452761134446       -2.38457980827717       -1.48545322885278
C           -2.93833370309273       -3.36635504300508       -2.14030240440342
C           -3.59217381518693       -4.47722609653326       -2.63831846977499
C           -4.96930093291194       -4.64590912539671       -2.49386152083074
C           -5.73925942231746       -3.67958619113976       -1.86526662261926
C           -5.09408966313211       -2.55001041631586       -1.39081961553479
N           -5.62729576555995       -1.44954978191830       -0.75198314322914
C           -6.97499129545618       -1.37670978540329       -0.35368538615316
C           -7.98706851495436       -1.44782932427749       -1.30483251023518
C           -9.31004466434477       -1.41151632800848       -0.90347740125823
C           -9.62857813526368       -1.31054680948222        0.44042211784002
C           -8.61910696891593       -1.25031427704568        1.38792236620424
C           -7.29452181262052       -1.28773313010964        0.99751887288010
C            0.59683583715513        0.24990256161204        1.15892043332866
C            1.94597269023253       -0.06656430458231        1.12134624066157
C            2.86327327516383        0.69062787255604        0.37423623227281
O            2.34255530135292       -1.14136131248902        1.84335402949161
H            6.87534968021428       -4.97208995024289        0.15780440845706
H            6.59798516110467       -5.58320399506997        1.78739259579355
H            8.23483407719154       -5.53059756805763        1.13820995652385
H            9.44844996694781       -3.44116557830618        0.86710339509256
H            8.71891245785404       -1.87730071147800        1.21030248194001
H            8.18655626979642       -2.82257688088182       -0.19316322306877
H            8.98229482132121       -4.14518341546797        3.16393449288744
H            7.34039046949751       -4.19722762499764        3.80248898462280
H            8.13380560216016       -2.64428500273296        3.55017259619980
H            5.20473041998091       -4.32093344477153        3.02157751280836
H            3.01259416539247       -3.22548025220432        3.02659035914744
H            6.68541109491368       -1.25781902698997        0.44932713544396
H            7.13804785980856        0.60471924880532        0.00650204790344
H           10.46936272259999        3.65738489968099       -0.82763685245743
H            9.07246631077237        3.78121185723468        0.24706130363498
H            9.01329693688576        4.49096059812219       -1.36497096716564
H            9.16947151795347        0.20980943681010       -0.90258482708962
H           10.56958428627876        1.23790784909880       -0.62234476269837
H            9.23521064428410        1.25963089375475        0.52581757712888
H            8.88382319471754        2.97053049634016       -3.41343614802770
H            8.86188349896819        1.22087270128768       -3.20423299478204
H           10.34254021420169        2.13198773693273       -2.88906663669051
H            7.11123869165903        4.06371961624661       -2.48903090145577
H            4.66766975900693        4.13410343925247       -2.32758978373022
H            0.65207108576336        2.94954271247704       -0.90809185178333
H           -0.05283265201721        3.96456728868732        1.36759635582225
H           -1.43154142700463        5.90955575282602        2.05215128103910
H           -3.87733511564859        5.82277425486079        1.88075859100641
H           -5.03243474985221        3.80345179066997        1.10075016672579
H           -6.72844146127209        1.26392001753645       -1.60790877876756
H           -8.89498961841726        2.30504991382154       -1.09136856046380
H           -9.42310563867532        2.98705002111723        1.22200457854536
H           -7.75727042708060        2.64023420926177        3.01274880818587
H           -5.58595045979682        1.60304648450346        2.49436835905330
H           -0.36056826219259        0.45004075489355       -2.37290151055783
H            1.81297482560104       -0.53801070373784       -2.96408110934004
H            2.54540911309308       -2.64544984926057       -1.90855510622638
H            1.07157899240787       -3.78091025103155       -0.28607909133546
H           -1.10257744058918       -2.79049258738045        0.30969757347653
H           -1.87257397765020       -3.25931132682889       -2.25988607411122
H           -3.02106042882884       -5.23983826756083       -3.14806342979887
H           -5.44175902458614       -5.53570939941952       -2.88096529235143
H           -6.80502455281515       -3.80554386639374       -1.75134428744044
H           -7.73091535539546       -1.51124190062771       -2.35204573249308
H          -10.09391208445556       -1.45917188841573       -1.64452949323677
H          -10.66220466312974       -1.28070499643775        0.75003776580982
H           -8.86391099697004       -1.18084343857629        2.43698349614345
H           -6.50222875141070       -1.25465012720976        1.73005867226440
H           -0.08023281875861       -0.34599656435904        1.74963759831639

          :  Hamiltonian                  GFN2-xTB          :
         :: gradient norm              0.000077431659 Eh/a0 ::
         :: HOMO-LUMO gap              0.084644712308 eV    ::
         :: SCC energy              -176.150718304127 Eh    ::
         :: -> dispersion             -0.180385267572 Eh    ::
         :: -> Gsolv                  -0.062422552132 Eh    ::
         :: repulsion energy           3.048252173448 Eh    ::

    * Orbital Energies and Occupations

         #    Occupation            Energy/Eh            Energy/eV
      -------------------------------------------------------------
         1        2.0000           -0.7238495             -19.6969
       ...           ...                  ...                  ...
       150        2.0000           -0.4019144             -10.9366
       151        2.0000           -0.3979214             -10.8280
       152        2.0000           -0.3931141             -10.6972
       153        2.0000           -0.3917808             -10.6609
       154        2.0000           -0.3902586             -10.6195
       155        2.0000           -0.3847850             -10.4705
       156        2.0000           -0.3839964             -10.4491
       157        2.0000           -0.3796413             -10.3306
       158        2.0000           -0.3761933             -10.2367
       159        2.0000           -0.3695875             -10.0570
       160        1.9680           -0.3626409              -9.8680
       161        1.0320           -0.3561640              -9.6917
       162        0.8372           -0.2665454              -7.2531 (HOMO)
       163        0.1628           -0.2634344              -7.1684 (LUMO)
       164                         -0.2422259              -6.5913
       165                         -0.2369323              -6.4473
       166                         -0.2349909              -6.3944
       167                         -0.2304424              -6.2707
       168                         -0.2278880              -6.2011
       169                         -0.2274782              -6.1900
       170                         -0.2222047              -6.0465
       171                         -0.2209160              -6.0114
       172                         -0.2174029              -5.9158
       173                         -0.2162571              -5.8847
       ...                                ...                  ...
       317                          0.7333332              19.9550
      -------------------------------------------------------------
                  HL-Gap            0.0031109 Eh            0.0847 eV

     #   Z          covCN         q      C6AA      α(0)
     1   6 C        3.761    -0.105    22.553     6.770
     2   6 C        3.902     0.025    20.104     6.373
     3   6 C        3.761    -0.108    22.602     6.777
     4   6 C        3.761    -0.105    22.555     6.770
     5   6 C        2.968    -0.001    28.056     8.688
     6   6 C        2.927    -0.038    28.953     8.824
     7   6 C        2.913    -0.060    29.494     8.905
     8   6 C        2.875     0.129    25.173     8.225
     9   6 C        2.881    -0.094    30.354     9.032
    10   6 C        2.931    -0.050    29.242     8.868
    11   5 B        2.723     0.191    18.509     7.209
    12   6 C        2.881    -0.094    30.350     9.032
    13   6 C        2.931    -0.050    29.244     8.869
    14   6 C        2.968    -0.001    28.052     8.688
    15   6 C        3.902     0.025    20.105     6.374
    16   6 C        3.761    -0.105    22.556     6.770
    17   6 C        3.761    -0.108    22.604     6.778
    18   6 C        3.761    -0.105    22.555     6.770
    19   6 C        2.927    -0.038    28.954     8.824
    20   6 C        2.913    -0.060    29.504     8.907
    21   6 C        2.875     0.128    25.193     8.228
    22   8 O        1.711    -0.250    18.132     5.749
    23   6 C        2.873     0.135    25.041     8.203
    24   6 C        2.915    -0.081    30.022     8.985
    25   6 C        2.918     0.055    26.764     8.484
    26   7 N        2.808    -0.003    21.314     6.857
    27   6 C        3.076     0.042    26.988     8.517
    28   6 C        2.908    -0.046    29.131     8.850
    29   6 C        2.922    -0.043    29.080     8.843
    30   6 C        2.918    -0.032    28.792     8.799
    31   6 C        2.910    -0.042    29.053     8.838
    32   6 C        3.061    -0.012    28.246     8.715
    33   6 C        3.067    -0.038    28.872     8.811
    34   6 C        2.961    -0.011    28.286     8.724
    35   6 C        2.974     0.012    27.745     8.640
    36   6 C        2.924    -0.035    28.871     8.812
    37   6 C        2.918    -0.031    28.768     8.795
    38   6 C        2.920    -0.034    28.850     8.808
    39   6 C        2.918    -0.031    28.764     8.795
    40   6 C        2.924    -0.032    28.800     8.801
    41   6 C        3.062     0.041    27.021     8.524
    42   6 C        3.069    -0.037    28.850     8.807
    43   6 C        2.961    -0.009    28.233     8.715
    44   6 C        2.974     0.013    27.713     8.635
    45   6 C        2.924    -0.035    28.872     8.812
    46   6 C        2.918    -0.031    28.774     8.796
    47   6 C        2.920    -0.034    28.839     8.806
    48   6 C        2.918    -0.028    28.711     8.787
    49   6 C        2.924    -0.031    28.763     8.795
    50   6 C        3.065     0.041    27.011     8.522
    51   6 C        3.061    -0.011    28.236     8.714
    52   6 C        2.911    -0.042    29.041     8.837
    53   6 C        2.918    -0.032    28.791     8.799
    54   6 C        2.922    -0.043    29.063     8.841
    55   6 C        2.908    -0.047    29.175     8.857
    56   6 C        3.076     0.042    26.989     8.518
    57   7 N        2.807    -0.007    21.387     6.869
    58   6 C        2.916     0.063    26.580     8.454
    59   6 C        2.922    -0.037    28.913     8.818
    60   6 C        2.920    -0.026    28.640     8.776
    61   6 C        2.920    -0.028    28.696     8.785
    62   6 C        2.920    -0.025    28.620     8.773
    63   6 C        2.922    -0.035    28.864     8.810
    64   6 C        2.916    -0.079    29.985     8.979
    65   6 C        2.873     0.136    25.026     8.201
    66   6 C        2.887    -0.125    31.182     9.155
    67   8 O        1.711    -0.249    18.132     5.749
    68   1 H        0.925     0.032     2.558     2.501
    69   1 H        0.925     0.035     2.511     2.478
    70   1 H        0.925     0.038     2.471     2.458
    71   1 H        0.925     0.038     2.481     2.463
    72   1 H        0.925     0.038     2.476     2.461
    73   1 H        0.925     0.036     2.507     2.476
    74   1 H        0.925     0.039     2.466     2.456
    75   1 H        0.925     0.035     2.513     2.479
    76   1 H        0.925     0.033     2.550     2.497
    77   1 H        0.926     0.032     2.559     2.502
    78   1 H        0.926     0.032     2.560     2.502
    79   1 H        0.926     0.046     2.368     2.407
    80   1 H        0.926     0.046     2.366     2.405
    81   1 H        0.925     0.038     2.469     2.457
    82   1 H        0.925     0.032     2.559     2.501
    83   1 H        0.925     0.035     2.513     2.479
    84   1 H        0.925     0.038     2.474     2.460
    85   1 H        0.925     0.038     2.480     2.463
    86   1 H        0.925     0.036     2.506     2.475
    87   1 H        0.925     0.035     2.514     2.479
    88   1 H        0.925     0.033     2.547     2.496
    89   1 H        0.925     0.039     2.465     2.455
    90   1 H        0.926     0.032     2.560     2.502
    91   1 H        0.926     0.032     2.559     2.502
    92   1 H        0.926     0.049     2.335     2.389
    93   1 H        0.926     0.031     2.569     2.507
    94   1 H        0.926     0.030     2.580     2.512
    95   1 H        0.926     0.033     2.548     2.496
    96   1 H        0.926     0.035     2.517     2.481
    97   1 H        0.926     0.026     2.640     2.541
    98   1 H        0.926     0.031     2.568     2.506
    99   1 H        0.926     0.031     2.567     2.505
   100   1 H        0.926     0.033     2.548     2.496
   101   1 H        0.926     0.033     2.551     2.498
   102   1 H        0.926     0.026     2.639     2.540
   103   1 H        0.926     0.027     2.625     2.534
   104   1 H        0.926     0.028     2.615     2.529
   105   1 H        0.926     0.032     2.563     2.503
   106   1 H        0.926     0.033     2.542     2.493
   107   1 H        0.926     0.031     2.572     2.508
   108   1 H        0.926     0.031     2.570     2.507
   109   1 H        0.926     0.032     2.560     2.502
   110   1 H        0.926     0.035     2.511     2.478
   111   1 H        0.926     0.048     2.341     2.393
   112   1 H        0.926     0.048     2.341     2.393
   113   1 H        0.926     0.047     2.361     2.403
   114   1 H        0.926     0.047     2.363     2.404
   115   1 H        0.926     0.043     2.407     2.426
   116   1 H        0.926     0.045     2.380     2.413

molecular dipole:
                 x           y           z       tot (Debye)
 q only:       -2.290      -0.710      -0.017
   full:       -2.383      -0.622      -0.010       6.260

 projected vibrational frequencies (cm⁻¹)
eigval :       -0.00    -0.00    -0.00     0.00     0.00     0.00
eigval :        9.17    10.60    10.82    20.15    23.85    25.20
eigval :       28.52    36.50    41.54    45.74    51.05    53.11
eigval :       58.95    62.64    65.62    67.88    72.58    80.77
eigval :       88.46    93.80    98.68   105.43   113.19   116.61
eigval :      125.91   135.99   137.50   150.69   157.30   175.43
eigval :      179.03   182.49   191.90   196.98   209.31   211.49
eigval :      220.79   222.72   226.65   227.42   230.21   235.21
eigval :      244.35   249.62   256.87   263.45   267.82   273.98
eigval :      281.51   288.27   298.82   316.44   317.91   318.74
eigval :      328.14   334.77   345.93   360.19   364.54   367.47
eigval :      373.20   376.40   378.72   380.92   383.20   384.51
eigval :      394.46   397.77   407.38   412.33   412.44   431.38
eigval :      431.50   442.43   443.52   458.89   461.35   470.81
eigval :      475.27   487.53   495.29   512.38   514.99   516.27
eigval :      517.03   524.91   531.65   545.20   564.32   568.10
eigval :      575.74   576.97   579.79   582.36   587.94   590.17
eigval :      592.38   600.93   601.43   610.87   619.69   623.66
eigval :      639.93   644.83   648.56   656.56   659.93   662.48
eigval :      668.27   672.70   681.40   685.76   687.72   692.18
eigval :      697.75   708.88   711.39   719.45   728.56   745.63
eigval :      752.43   756.67   760.34   769.68   780.66   784.39
eigval :      817.56   819.48   822.45   825.73   828.44   846.73
eigval :      851.42   852.86   858.31   862.54   866.79   871.90
eigval :      874.56   876.63   877.72   878.32   886.28   887.70
eigval :      888.74   897.15   899.76   900.46   908.29   908.90
eigval :      909.19   910.28   911.35   924.93   928.12   928.48
eigval :      928.85   930.79   932.19   933.05   937.04   958.64
eigval :      959.22   959.88   961.86   962.23   962.76   963.14
eigval :      967.27   974.43   991.33  1016.82  1024.88  1033.12
eigval :     1034.73  1035.42  1035.82  1064.27  1064.87  1066.92
eigval :     1074.99  1077.83  1079.13  1081.15  1095.43  1102.81
eigval :     1109.46  1115.83  1117.98  1120.66  1131.03  1133.99
eigval :     1135.02  1138.33  1152.80  1159.48  1173.72  1176.29
eigval :     1176.85  1178.18  1180.79  1182.07  1185.03  1187.27
eigval :     1194.15  1196.57  1200.12  1211.20  1212.52  1225.45
eigval :     1225.68  1227.75  1228.60  1230.78  1236.43  1240.66
eigval :     1242.70  1244.67  1266.85  1270.86  1275.56  1277.84
eigval :     1278.25  1279.78  1289.03  1290.61  1293.53  1299.57
eigval :     1313.64  1314.59  1316.36  1318.49  1319.55  1320.59
eigval :     1329.22  1349.30  1364.83  1372.18  1377.42  1382.42
eigval :     1385.19  1389.29  1393.71  1397.42  1401.36  1401.65
eigval :     1403.35  1404.10  1405.79  1415.50  1424.60  1425.40
eigval :     1426.58  1427.42  1428.18  1434.13  1439.65  1443.17
eigval :     1449.22  1459.40  1464.11  1466.18  1470.24  1471.75
eigval :     1480.80  1488.21  1489.05  1492.10  1492.53  1497.16
eigval :     1500.07  1501.04  1501.95  1510.29  1511.39  1512.55
eigval :     1516.52  1519.19  1521.74  1540.60  1541.20  1544.73
eigval :     1548.76  1556.97  1557.97  1559.27  1561.56  1570.27
eigval :     1578.33  1578.91  1581.06  1587.75  1588.21  3018.51
eigval :     3019.14  3019.36  3019.70  3023.17  3023.60  3024.20
eigval :     3024.74  3026.30  3026.80  3031.65  3032.16  3036.72
eigval :     3038.03  3042.45  3044.12  3046.29  3047.10  3067.78
eigval :     3067.97  3068.51  3069.45  3073.80  3074.21  3074.70
eigval :     3074.99  3076.96  3077.20  3080.10  3080.28  3080.61
eigval :     3083.19  3083.51  3085.04  3087.65  3087.94  3089.84
eigval :     3089.94  3090.11  3094.12  3094.90  3096.50  3100.49
eigval :     3101.01  3106.43  3112.80  3113.98  3141.93  3148.44

   temp. (K)  partition function   enthalpy   heat capacity  entropy
                                   cal/mol     cal/K/mol   cal/K/mol   J/K/mol
 298.15  VIB  0.101E+27            33968.912    213.256    211.055
         ROT  0.199E+09              888.752      2.981     40.955
         INT  0.200E+35            34857.664    216.237    252.009
         TR   0.246E+29             1481.254      4.968     46.128
         TOT                       36338.9178   221.2051   298.1373  1247.4064

       T/K    H(0)-H(T)+PV         H(T)/Eh          T*S/Eh         G(T)/Eh
   ------------------------------------------------------------------------
    298.15    0.579098E-01    0.969881E+00    0.141655E+00    0.828227E+00
   ------------------------------------------------------------------------

         :::::::::::::::::::::::::::::::::::::::::::::::::::::
         ::                  THERMODYNAMIC                  ::
         :::::::::::::::::::::::::::::::::::::::::::::::::::::
         :: total free energy        -172.274239373011 Eh   ::
         ::.................................................::
         :: total energy             -173.102466128529 Eh   ::
         :: zero point energy           0.911971647845 Eh   ::
         :: G(RRHO) w/o ZPVE           -0.083744892327 Eh   ::
         :: G(RRHO) contrib.            0.828226755518 Eh   ::
         :::::::::::::::::::::::::::::::::::::::::::::::::::::

           -------------------------------------------------
          | TOTAL ENERGY             -173.102466128529 Eh   |
          | TOTAL ENTHALPY           -172.132584728999 Eh   |
          | TOTAL FREE ENERGY        -172.274239373011 Eh   |
          | GRADIENT NORM               0.000073779183 Eh/α |
          | HOMO-LUMO GAP               0.084652586655 eV   |
           -------------------------------------------------

 * finished run on 2025/07/18 at 02:25:14.045
