   * xtb version 6.7.1 (edcfbbe) compiled by 'albert@albert-system' on 2024-07-22

   ID    Z sym.   atoms
    1    6 C      1-10, 12-21, 23-25, 27-56, 58-66
    2    5 B      11
    3    8 O      22, 67
    4    7 N      26, 57
    5    1 H      68-116

          program call               : xtb data2507/toluene/TDBA-TPDICz/TDBA-TPDICz_toluene_S0_finalOpt.xtbopt.xyz --gfn 2 --uhf 2 --gbsa toluene --ohess vtight --parallel 40 --molden --ceasefiles --namespace data2507/toluene/TDBA-TPDICz/TDBA-TPDICz_toluene_T1_preOpt
      * Solvation model:               GBSA
        Solvent                        toluene
        Solvent mass                       9.2140E+01 g/mol
          :  Hamiltonian                  GFN2-xTB          :
 * total energy  :  -173.1004693 Eh     change       -0.1026109E-07 Eh
 * total energy  :  -173.1016242 Eh     change       -0.1154967E-02 Eh
 * total energy  :  -173.1020116 Eh     change       -0.3873453E-03 Eh
 * total energy  :  -173.1020660 Eh     change       -0.5443139E-04 Eh
 * total energy  :  -173.1021605 Eh     change       -0.9447934E-04 Eh
 * total energy  :  -173.1022201 Eh     change       -0.5964207E-04 Eh
 * total energy  :  -173.1022882 Eh     change       -0.6807804E-04 Eh
 * total energy  :  -173.1023312 Eh     change       -0.4302616E-04 Eh
 * total energy  :  -173.1023532 Eh     change       -0.2196044E-04 Eh
 * total energy  :  -173.1023644 Eh     change       -0.1117115E-04 Eh
 * total energy  :  -173.1024867 Eh     change       -0.6391473E-06 Eh
 * total energy  :  -173.1024871 Eh     change       -0.4035250E-06 Eh
 * total energy  :  -173.1024875 Eh     change       -0.3221909E-06 Eh
 * total energy  :  -173.1024878 Eh     change       -0.3183295E-06 Eh
 * total energy  :  -173.1024881 Eh     change       -0.2769872E-06 Eh
 * total energy  :  -173.1024883 Eh     change       -0.2418685E-06 Eh
 * total energy  :  -173.1024885 Eh     change       -0.2269525E-06 Eh
 * total energy  :  -173.1024888 Eh     change       -0.2314229E-06 Eh
 * total energy  :  -173.1024888 Eh     change       -0.3954992E-07 Eh
   *** GEOMETRY OPTIMIZATION CONVERGED AFTER 61 ITERATIONS ***

 final structure:
================
116
 xtb: 6.7.1 (edcfbbe)
C            9.25804760685645       -2.26851771878818       -2.77313659291970
C            8.84726683844618       -2.36346068160405       -1.29600452959754
C            9.49019193799316       -1.19254582633951       -0.54677588793959
C            9.38389529928817       -3.66903935375307       -0.69039163782185
C            7.32762225572797       -2.36017599739443       -1.20288415904384
C            6.60306666441514       -3.37490353577838       -1.83285092065249
C            5.22853724921192       -3.41853549367128       -1.74941806766985
C            4.53471102781808       -2.43814156737551       -1.04519941455164
C            5.21258516459159       -1.37359192852994       -0.42417327055937
C            6.61347826137825       -1.39274297930058       -0.51887556042027
B            4.35011030474088       -0.31678922277735        0.30895476613669
C            4.67646157628307        1.03640179223227        0.98772106362653
C            5.90644300909497        1.71297648518128        0.95979564365691
C            6.14334889186681        2.91067889424473        1.61059607491812
C            7.48686062983082        3.62612543532373        1.57536049154097
C            8.52809983535422        2.89231747768427        0.72500186707196
C            7.29386977819403        5.03093499544554        0.98479356161056
C            8.03085899408855        3.73478710776570        3.00774133310477
C            5.08900499266677        3.47330864862731        2.33374243066927
C            3.85281238662955        2.86601121648942        2.36923014599796
C            3.63745830206522        1.66670323613994        1.69563415619535
O            2.35412146628081        1.19218304074597        1.78941566281889
C            1.95495628790148        0.09639970792302        1.10102774874303
C            0.60583778225313       -0.21856874182118        1.15214066364412
C            0.13756215284979       -1.31620726727744        0.43565776949007
N           -1.23593508114014       -1.60940462041135        0.43675322331314
C           -1.76840155133238       -2.78324268774925        0.91934872918006
C           -1.11067887899118       -3.89766121866479        1.41310328370321
C           -1.88226843896061       -4.97359061755170        1.82121373936126
C           -3.27445992127822       -4.92733447225033        1.72733478506304
C           -3.93764563855999       -3.80833414372056        1.26241285593551
C           -3.18927538330573       -2.69636496318914        0.86878998103447
C           -3.49742403581668       -1.39985765790504        0.35796154773819
C           -4.72747312917540       -0.73831244182882        0.12736312814482
C           -6.00813853544275       -1.36246171904107        0.45898125110202
C           -6.29698687471000       -1.74268616466185        1.77084255659982
C           -7.51236844990828       -2.32052475455353        2.08186088786273
C           -8.45344551610625       -2.54547197812097        1.08924215968007
C           -8.16836475859855       -2.18927602135705       -0.22004395758126
C           -6.96066345339492       -1.59870805992092       -0.53372910223852
C           -4.62256100255953        0.53533802296457       -0.46051635283420
C           -3.38736233900898        1.10466235753256       -0.87609876640124
C           -2.15655775336580        0.46312459705204       -0.60735909956570
C           -0.87900501216740        1.05930293252438       -1.00820499414502
C           -0.47254658320017        2.28475141106326       -0.47955394556158
C            0.74619050509231        2.83142328136784       -0.83283428952970
C            1.57229702054244        2.17318996698635       -1.72931631597157
C            1.16495847294539        0.96797291928280       -2.28060393643444
C           -0.04910957757393        0.41432113507682       -1.92522482973506
C           -2.25594858123284       -0.77525820637577        0.05015486578221
C           -3.70068475725247        2.32865563985301       -1.54209100625053
C           -2.96083301517435        3.29825395261684       -2.22185226611655
C           -3.62107740905655        4.39423128171871       -2.74389475781026
C           -4.99860608690164        4.55998967559438       -2.59988700017224
C           -5.76243902147340        3.60496333067162       -1.94708415179088
C           -5.11073385825926        2.48985871307480       -1.44785457025046
N           -5.63726679637887        1.40313235383577       -0.78070676736504
C           -6.98461287191529        1.33355194913961       -0.38056096878695
C           -7.30443993732064        1.27666731392341        0.97224687110884
C           -8.62908698499600        1.24234053739470        1.36284622477453
C           -9.63830590557812        1.27414087428948        0.41370351334614
C           -9.31953338256166        1.34356479201450       -0.93212168271483
C           -7.99651429760447        1.37607774670287       -1.33364022366009
C            1.01582203059075       -2.12938563226588       -0.27467247930469
C            2.36579593691825       -1.80810330504690       -0.29689862672594
C            2.87017459431649       -0.68331185842992        0.37473795185026
O            3.17520691958406       -2.62000750429694       -1.01976784472351
H            8.85888660455332       -1.35809591311627       -3.21628906977190
H            8.88656846687162       -3.11557461388809       -3.34350429777199
H           10.34258831175968       -2.24873095923658       -2.86003500839493
H           10.57269967541002       -1.25161648257485       -0.64302879633580
H            9.24495931740422       -1.22513447801260        0.51237062377175
H            9.16820665760044       -0.24021609585784       -0.96093566230293
H           10.47112060770141       -3.68364956610124       -0.73481694132237
H            9.01005367106057       -4.53796006719789       -1.22501384938834
H            9.07898572716586       -3.75302524454096        0.35109963167634
H            7.11028478948941       -4.15001404097006       -2.38666327326830
H            4.66673533722268       -4.21267273711248       -2.21932466780844
H            7.14398666877526       -0.60926482576860       -0.00870730436686
H            6.69348190541808        1.26410612229455        0.38118670654479
H            9.46119287794818        3.45257553833722        0.73200215185169
H            8.19712479320560        2.80365667810378       -0.30729253686256
H            8.72958802264372        1.90118969030315        1.12392723687464
H            6.61622654337664        5.62685354145092        1.59000877102413
H            8.24897774216811        5.54985553583556        0.93255517589185
H            6.88238753909206        4.96230444787536       -0.02051647220004
H            7.35965181319003        4.30480043326220        3.64438063836718
H            9.00002272586282        4.22967948925947        3.00443139213692
H            8.15009633314024        2.74323567899480        3.44040000949511
H            5.22280808166363        4.40121400985219        2.86850414783816
H            3.02948203321629        3.30879570352377        2.91056470298737
H           -0.06925536491732        0.39476239837877        1.72703442006472
H           -0.03333734797680       -3.92598605574835        1.47247158094006
H           -1.40180806191387       -5.85949775558428        2.20753556475562
H           -3.84793471813933       -5.79105685575468        2.03176515523255
H           -5.01344218866905       -3.79878809498905        1.19957378838466
H           -5.56440545410446       -1.56416131765145        2.54480628647562
H           -7.72698231767380       -2.59866028904981        3.10383594209656
H           -9.40193520886161       -3.00053452869858        1.33325367813299
H           -8.89175276052579       -2.37640312549695       -1.00032492522746
H           -6.73395884551261       -1.33798374351006       -1.55765430559600
H           -1.11243824347972        2.79351862843218        0.22718878996663
H            1.05659165784419        3.77326583869678       -0.40378145543807
H            2.52854458282172        2.59700559116513       -1.99856948959250
H            1.79977175703914        0.45781922432913       -2.99089898501542
H           -0.36879641014546       -0.51959553800940       -2.36487293163727
H           -1.89494293406822        3.19338531150164       -2.34206197131652
H           -3.05477754633802        5.14744059596365       -3.27263333678085
H           -5.47606974866392        5.43857169635147       -3.00602904211132
H           -6.82851313602124        3.72842222200105       -1.83329491203825
H           -6.51239649337392        1.26594797148726        1.70570950479531
H           -8.87411996105357        1.19768714623643        2.41320309265443
H          -10.67196675127452        1.24686935624047        0.72346462972488
H          -10.10320050096715        1.36917124433896       -1.67448164692490
H           -7.74007281072908        1.41485399138959       -2.38198981787945
H            0.65529321601746       -2.97927985421029       -0.83273117530937

          :  Hamiltonian                  GFN2-xTB          :
         :: gradient norm              0.000141722446 Eh/a0 ::
         :: HOMO-LUMO gap              0.084403267533 eV    ::
         :: SCC energy              -176.150653135615 Eh    ::
         :: -> dispersion             -0.180342754400 Eh    ::
         :: -> Gsolv                  -0.062461558677 Eh    ::
         :: repulsion energy           3.048164336153 Eh    ::

    * Orbital Energies and Occupations

         #    Occupation            Energy/Eh            Energy/eV
      -------------------------------------------------------------
         1        2.0000           -0.7238335             -19.6965
       ...           ...                  ...                  ...
       150        2.0000           -0.4019516             -10.9377
       151        2.0000           -0.3979229             -10.8280
       152        2.0000           -0.3931043             -10.6969
       153        2.0000           -0.3917759             -10.6608
       154        2.0000           -0.3902732             -10.6199
       155        2.0000           -0.3847769             -10.4703
       156        2.0000           -0.3839933             -10.4490
       157        2.0000           -0.3796327             -10.3303
       158        2.0000           -0.3761912             -10.2367
       159        2.0000           -0.3695821             -10.0568
       160        1.9682           -0.3626427              -9.8680
       161        1.0318           -0.3561532              -9.6914
       162        0.8365           -0.2665503              -7.2532 (HOMO)
       163        0.1635           -0.2634492              -7.1688 (LUMO)
       164                         -0.2422392              -6.5917
       165                         -0.2369255              -6.4471
       166                         -0.2349861              -6.3943
       167                         -0.2304232              -6.2701
       168                         -0.2278831              -6.2010
       169                         -0.2274925              -6.1904
       170                         -0.2222240              -6.0470
       171                         -0.2209295              -6.0118
       172                         -0.2173891              -5.9155
       173                         -0.2162409              -5.8842
       ...                                ...                  ...
       317                          0.7332759              19.9535
      -------------------------------------------------------------
                  HL-Gap            0.0031011 Eh            0.0844 eV

     #   Z          covCN         q      C6AA      α(0)
     1   6 C        3.761    -0.105    22.556     6.770
     2   6 C        3.902     0.025    20.105     6.374
     3   6 C        3.761    -0.108    22.604     6.778
     4   6 C        3.761    -0.105    22.555     6.770
     5   6 C        2.968    -0.001    28.052     8.688
     6   6 C        2.927    -0.038    28.954     8.824
     7   6 C        2.913    -0.060    29.504     8.907
     8   6 C        2.875     0.128    25.193     8.228
     9   6 C        2.881    -0.094    30.350     9.032
    10   6 C        2.931    -0.050    29.245     8.869
    11   5 B        2.723     0.191    18.509     7.209
    12   6 C        2.881    -0.094    30.354     9.032
    13   6 C        2.931    -0.050    29.242     8.868
    14   6 C        2.968    -0.001    28.056     8.688
    15   6 C        3.902     0.025    20.104     6.373
    16   6 C        3.761    -0.108    22.603     6.777
    17   6 C        3.761    -0.105    22.553     6.770
    18   6 C        3.761    -0.105    22.556     6.770
    19   6 C        2.927    -0.038    28.953     8.824
    20   6 C        2.913    -0.060    29.494     8.905
    21   6 C        2.875     0.129    25.173     8.225
    22   8 O        1.711    -0.250    18.133     5.749
    23   6 C        2.873     0.136    25.027     8.201
    24   6 C        2.916    -0.079    29.986     8.980
    25   6 C        2.917     0.055    26.765     8.484
    26   7 N        2.808    -0.003    21.313     6.857
    27   6 C        3.076     0.042    26.988     8.517
    28   6 C        2.908    -0.046    29.131     8.850
    29   6 C        2.922    -0.043    29.080     8.843
    30   6 C        2.918    -0.032    28.792     8.799
    31   6 C        2.910    -0.042    29.053     8.838
    32   6 C        3.061    -0.012    28.246     8.715
    33   6 C        3.067    -0.038    28.872     8.811
    34   6 C        2.961    -0.011    28.286     8.724
    35   6 C        2.974     0.012    27.745     8.640
    36   6 C        2.924    -0.032    28.800     8.801
    37   6 C        2.918    -0.031    28.764     8.795
    38   6 C        2.920    -0.034    28.850     8.808
    39   6 C        2.918    -0.031    28.768     8.795
    40   6 C        2.924    -0.035    28.871     8.812
    41   6 C        3.062     0.041    27.021     8.524
    42   6 C        3.069    -0.037    28.850     8.807
    43   6 C        2.961    -0.009    28.233     8.715
    44   6 C        2.974     0.013    27.713     8.635
    45   6 C        2.924    -0.031    28.763     8.795
    46   6 C        2.918    -0.028    28.711     8.787
    47   6 C        2.920    -0.034    28.838     8.806
    48   6 C        2.918    -0.031    28.775     8.796
    49   6 C        2.924    -0.035    28.871     8.812
    50   6 C        3.065     0.041    27.011     8.522
    51   6 C        3.061    -0.011    28.236     8.714
    52   6 C        2.911    -0.042    29.042     8.837
    53   6 C        2.918    -0.032    28.792     8.799
    54   6 C        2.922    -0.043    29.062     8.841
    55   6 C        2.908    -0.047    29.175     8.857
    56   6 C        3.076     0.042    26.989     8.518
    57   7 N        2.807    -0.007    21.387     6.868
    58   6 C        2.916     0.063    26.579     8.454
    59   6 C        2.922    -0.035    28.864     8.810
    60   6 C        2.920    -0.025    28.619     8.773
    61   6 C        2.920    -0.028    28.696     8.784
    62   6 C        2.920    -0.026    28.640     8.776
    63   6 C        2.922    -0.037    28.912     8.818
    64   6 C        2.915    -0.081    30.022     8.985
    65   6 C        2.873     0.135    25.041     8.203
    66   6 C        2.887    -0.125    31.182     9.155
    67   8 O        1.711    -0.250    18.134     5.749
    68   1 H        0.925     0.033     2.548     2.496
    69   1 H        0.925     0.035     2.513     2.479
    70   1 H        0.925     0.039     2.466     2.456
    71   1 H        0.925     0.038     2.480     2.463
    72   1 H        0.925     0.036     2.505     2.475
    73   1 H        0.925     0.038     2.474     2.460
    74   1 H        0.925     0.039     2.468     2.457
    75   1 H        0.925     0.035     2.514     2.479
    76   1 H        0.925     0.032     2.558     2.501
    77   1 H        0.926     0.032     2.560     2.502
    78   1 H        0.926     0.032     2.559     2.502
    79   1 H        0.926     0.046     2.365     2.405
    80   1 H        0.926     0.046     2.368     2.406
    81   1 H        0.925     0.038     2.481     2.463
    82   1 H        0.925     0.036     2.506     2.476
    83   1 H        0.925     0.038     2.476     2.461
    84   1 H        0.925     0.035     2.512     2.478
    85   1 H        0.925     0.038     2.471     2.458
    86   1 H        0.925     0.032     2.559     2.501
    87   1 H        0.925     0.035     2.513     2.479
    88   1 H        0.925     0.039     2.466     2.456
    89   1 H        0.925     0.033     2.550     2.497
    90   1 H        0.926     0.032     2.559     2.502
    91   1 H        0.926     0.032     2.560     2.502
    92   1 H        0.926     0.045     2.380     2.413
    93   1 H        0.926     0.031     2.569     2.507
    94   1 H        0.926     0.030     2.580     2.512
    95   1 H        0.926     0.033     2.548     2.496
    96   1 H        0.926     0.035     2.518     2.481
    97   1 H        0.926     0.032     2.551     2.498
    98   1 H        0.926     0.033     2.548     2.496
    99   1 H        0.926     0.031     2.567     2.506
   100   1 H        0.926     0.031     2.569     2.506
   101   1 H        0.926     0.026     2.640     2.541
   102   1 H        0.926     0.033     2.541     2.493
   103   1 H        0.926     0.032     2.562     2.503
   104   1 H        0.926     0.028     2.615     2.529
   105   1 H        0.926     0.027     2.625     2.534
   106   1 H        0.926     0.026     2.639     2.541
   107   1 H        0.926     0.031     2.571     2.507
   108   1 H        0.926     0.031     2.570     2.507
   109   1 H        0.926     0.032     2.560     2.502
   110   1 H        0.926     0.035     2.511     2.478
   111   1 H        0.926     0.043     2.407     2.426
   112   1 H        0.926     0.047     2.364     2.404
   113   1 H        0.926     0.047     2.361     2.403
   114   1 H        0.926     0.048     2.341     2.393
   115   1 H        0.926     0.048     2.341     2.393
   116   1 H        0.926     0.049     2.335     2.390

molecular dipole:
                 x           y           z       tot (Debye)
 q only:       -2.294       0.701      -0.031
   full:       -2.387       0.612      -0.021       6.265

 projected vibrational frequencies (cm⁻¹)
eigval :       -0.00     0.00     0.00     0.00     0.00     0.00
eigval :        7.50    10.14    10.53    14.04    21.26    24.00
eigval :       30.36    36.72    40.97    45.30    50.32    53.00
eigval :       58.53    61.17    65.42    68.13    73.26    82.10
eigval :       87.50    93.75    99.08   105.62   114.22   117.13
eigval :      126.04   136.77   138.41   150.84   157.03   170.03
eigval :      180.01   182.41   191.83   197.18   209.04   210.05
eigval :      219.98   222.91   226.85   227.84   231.55   235.12
eigval :      244.27   249.75   257.37   264.21   268.35   274.40
eigval :      280.42   288.17   299.44   314.99   317.24   318.98
eigval :      327.52   334.38   346.14   360.60   364.78   367.11
eigval :      372.84   376.33   378.37   380.76   384.25   384.70
eigval :      394.57   397.75   406.67   411.30   413.41   430.90
eigval :      432.10   442.09   443.09   458.49   461.14   470.74
eigval :      475.50   487.84   497.63   513.02   515.20   516.42
eigval :      517.14   525.11   532.25   545.31   564.30   568.94
eigval :      575.57   576.98   579.83   582.61   587.92   590.17
eigval :      592.97   600.80   601.45   611.57   621.02   623.02
eigval :      640.05   644.67   648.41   656.45   659.95   662.36
eigval :      668.02   672.47   682.26   684.82   687.78   691.73
eigval :      698.36   710.51   711.05   719.33   728.50   744.81
eigval :      752.70   759.82   760.03   770.22   780.26   784.34
eigval :      817.54   820.30   822.67   825.85   828.94   847.33
eigval :      852.02   853.80   858.34   862.52   867.72   872.12
eigval :      874.48   875.64   876.80   878.14   887.62   888.46
eigval :      890.24   897.20   900.01   900.75   908.49   909.70
eigval :      910.00   910.04   911.78   925.04   926.45   928.40
eigval :      928.69   930.06   931.09   932.23   937.15   958.62
eigval :      959.39   959.93   962.10   962.30   962.46   963.03
eigval :      967.53   974.39   991.34  1016.70  1024.98  1034.17
eigval :     1034.86  1035.21  1035.37  1064.32  1065.08  1066.95
eigval :     1075.06  1077.93  1079.39  1080.93  1095.83  1102.74
eigval :     1109.27  1115.80  1118.24  1120.49  1131.14  1134.21
eigval :     1135.17  1138.57  1152.88  1159.15  1174.06  1176.41
eigval :     1177.10  1177.80  1180.66  1182.18  1185.16  1186.99
eigval :     1194.61  1196.01  1199.94  1211.34  1212.56  1225.39
eigval :     1225.73  1227.88  1228.37  1230.69  1236.64  1240.84
eigval :     1242.54  1244.83  1266.81  1270.91  1275.58  1278.44
eigval :     1278.64  1279.33  1289.07  1290.72  1293.65  1299.51
eigval :     1313.59  1314.62  1316.29  1318.43  1319.50  1320.57
eigval :     1329.01  1349.20  1364.83  1372.03  1377.43  1382.56
eigval :     1385.36  1389.40  1393.72  1397.59  1401.14  1401.66
eigval :     1403.49  1404.08  1405.73  1415.45  1424.49  1425.73
eigval :     1426.26  1427.31  1428.17  1433.98  1439.66  1443.22
eigval :     1449.12  1459.49  1464.25  1466.30  1470.03  1471.74
eigval :     1480.72  1488.34  1488.85  1491.89  1492.70  1497.25
eigval :     1500.00  1500.67  1501.86  1510.11  1511.27  1512.63
eigval :     1516.54  1519.09  1521.86  1540.57  1541.26  1544.66
eigval :     1548.76  1556.87  1557.80  1559.09  1561.49  1570.22
eigval :     1578.35  1578.83  1580.96  1587.80  1588.18  3018.52
eigval :     3019.13  3019.16  3019.45  3023.11  3023.20  3024.27
eigval :     3024.55  3026.29  3026.65  3031.62  3032.30  3036.61
eigval :     3037.75  3042.76  3044.19  3046.70  3046.76  3067.27
eigval :     3067.78  3068.53  3069.54  3073.51  3073.91  3074.96
eigval :     3075.55  3076.71  3076.93  3080.08  3080.18  3080.71
eigval :     3083.31  3083.72  3084.83  3088.07  3088.67  3089.79
eigval :     3089.88  3090.06  3094.33  3095.06  3096.26  3100.88
eigval :     3101.14  3106.44  3112.63  3114.22  3142.19  3148.96

   temp. (K)  partition function   enthalpy   heat capacity  entropy
                                   cal/mol     cal/K/mol   cal/K/mol   J/K/mol
 298.15  VIB  0.212E+27            33984.013    213.162    211.715
         ROT  0.199E+09              888.752      2.981     40.956
         INT  0.422E+35            34872.765    216.143    252.672
         TR   0.246E+29             1481.254      4.968     46.128
         TOT                       36354.0192   221.1113   298.7998  1250.1782

       T/K    H(0)-H(T)+PV         H(T)/Eh          T*S/Eh         G(T)/Eh
   ------------------------------------------------------------------------
    298.15    0.579338E-01    0.969907E+00    0.141969E+00    0.827937E+00
   ------------------------------------------------------------------------

         :::::::::::::::::::::::::::::::::::::::::::::::::::::
         ::                  THERMODYNAMIC                  ::
         :::::::::::::::::::::::::::::::::::::::::::::::::::::
         :: total free energy        -172.274551642360 Eh   ::
         ::.................................................::
         :: total energy             -173.102488799740 Eh   ::
         :: zero point energy           0.911972743479 Eh   ::
         :: G(RRHO) w/o ZPVE           -0.084035586100 Eh   ::
         :: G(RRHO) contrib.            0.827937157379 Eh   ::
         :::::::::::::::::::::::::::::::::::::::::::::::::::::

           -------------------------------------------------
          | TOTAL ENERGY             -173.102488799740 Eh   |
          | TOTAL ENTHALPY           -172.132582239019 Eh   |
          | TOTAL FREE ENERGY        -172.274551642360 Eh   |
          | GRADIENT NORM               0.000133197637 Eh/α |
          | HOMO-LUMO GAP               0.084385745852 eV   |
           -------------------------------------------------

 * finished run on 2025/07/18 at 02:05:12.960
