   * xtb version 6.7.1 (edcfbbe) compiled by 'albert@albert-system' on 2024-07-22

   ID    Z sym.   atoms
    1    8 O      1, 3, 11, 26, 33, 35
    2    6 C      2, 4-10, 12-25, 27-32, 34
    3    1 H      36-53

          program call               : xtb data2507/toluene/3,3−NHC/3,3−NHC_toluene_T1_crest.xyz --gfn 2 --uhf 2 --gbsa toluene --ohess vtight --parallel 40 --molden --ceasefiles --namespace data2507/toluene/3,3−NHC/3,3−NHC_toluene_T1_finalOpt
      * Solvation model:               GBSA
        Solvent                        toluene
        Solvent mass                       9.2140E+01 g/mol
          :  Hamiltonian                  GFN2-xTB          :
 * total energy  :   -95.6786575 Eh     change       -0.3480788E-07 Eh
 * total energy  :   -95.6792385 Eh     change       -0.5810150E-03 Eh
 * total energy  :   -95.6794067 Eh     change       -0.1681502E-03 Eh
 * total energy  :   -95.6794305 Eh     change       -0.2379220E-04 Eh
 * total energy  :   -95.6794458 Eh     change       -0.1536653E-04 Eh
 * total energy  :   -95.6794554 Eh     change       -0.9552394E-05 Eh
 * total energy  :   -95.6794633 Eh     change       -0.7951082E-05 Eh
 * total energy  :   -95.6794703 Eh     change       -0.6938002E-05 Eh
 * total energy  :   -95.6794762 Eh     change       -0.5933282E-05 Eh
 * total energy  :   -95.6794816 Eh     change       -0.5419737E-05 Eh
 * total energy  :   -95.6794882 Eh     change       -0.1018957E-05 Eh
 * total energy  :   -95.6794891 Eh     change       -0.8972771E-06 Eh
 * total energy  :   -95.6794900 Eh     change       -0.8557085E-06 Eh
 * total energy  :   -95.6794906 Eh     change       -0.6486725E-06 Eh
 * total energy  :   -95.6794912 Eh     change       -0.5908226E-06 Eh
 * total energy  :   -95.6794918 Eh     change       -0.5407392E-06 Eh
 * total energy  :   -95.6794921 Eh     change       -0.3252446E-06 Eh
 * total energy  :   -95.6794922 Eh     change       -0.1055841E-06 Eh
 * total energy  :   -95.6794922 Eh     change       -0.4028300E-07 Eh
   *** GEOMETRY OPTIMIZATION CONVERGED AFTER 21 ITERATIONS ***

 final structure:
================
53
 xtb: 6.7.1 (edcfbbe)
O           -0.51312042131357       -1.11505235547957        1.79683890844186
C           -1.51605773235025       -0.88451743781511        1.10112469245924
O           -2.71206687786743       -1.16050617958309        1.69131442854874
C           -3.89110469236101       -0.99816360822246        1.01793213221723
C           -5.05808497926962       -1.34179190082687        1.67109413397188
C           -6.28258752535371       -1.18046971599828        1.02666704362217
C           -6.33172465994211       -0.66804832633313       -0.26494317261948
C           -5.17515253786560       -0.32213027842848       -0.92406916274656
C           -3.91946522705253       -0.47670352860390       -0.29350022448095
C           -2.69643423333160       -0.11345793866872       -0.91479405126768
O           -2.75818489987649        0.41101219364417       -2.14195682005076
C           -1.48231935789603       -0.39382186780546       -0.23086173216137
C           -0.14037491000323       -0.22992554128248       -0.91250268921495
C            0.83707763373200       -1.34785326444195       -0.64423075898009
C            0.36079550223429       -2.66884640990941       -0.57271614098438
C            1.21868662323702       -3.71687360822439       -0.37579335328999
C            2.60880710313192       -3.50363859840557       -0.25495118800840
C            3.51898304209805       -4.55686922278816       -0.04388349348682
C            4.86765687586664       -4.30860056493813        0.05400723578020
C            5.35558018773000       -3.00156603828913       -0.05405210127176
C            4.49243945009561       -1.95412573689772       -0.26116936368392
C            3.10281800020397       -2.17724233745504       -0.36482114435088
C            2.19464964848080       -1.12194369489212       -0.57200023650703
C            0.32751818017780        1.16996720809374       -0.56916559886675
C            1.04110565289804        1.52799225336837        0.59824348991162
O            1.30940740241922        0.70570568046804        1.60824017874618
C            1.57370249858449        2.84793110959847        0.67988024203145
C            2.38532277471533        3.27279483489491        1.75357488855673
C            2.86216088119324        4.56248031433790        1.79697149125608
C            2.55377215972743        5.46336462804105        0.78352327914018
C            1.75435934463492        5.07016009921675       -0.28459064070423
C            1.27322594776363        3.77491034040711       -0.33784535510587
O            0.48225044250188        3.43172481291475       -1.39747639810211
C            0.01722124130083        2.16440728337855       -1.54221670928917
O           -0.66028486316844        1.94974400730098       -2.56043000835798
H           -4.99847209156608       -1.73116930917934        2.67482516464039
H           -7.19066206938628       -1.45770765047880        1.53772968596683
H           -7.28438272850389       -0.54308065262444       -0.75629061698851
H           -5.19147709028039        0.07360292541714       -1.92657201049969
H           -1.93960120673990        0.91513027833631       -2.39545228154506
H           -0.31522274830696       -0.23769738310734       -1.99877894744659
H           -0.70039825990933       -2.84835466828594       -0.67091708121301
H            0.83702569038691       -4.72538730489245       -0.31407018206710
H            3.13943361111014       -5.56477151129551        0.03883455516771
H            5.55790120120944       -5.12284373865167        0.21637929245679
H            6.41702981705071       -2.82113182101087        0.02660659602131
H            4.86350833002883       -0.94288191541032       -0.34195817575263
H            2.58719675532888       -0.12046165458706       -0.67503831067344
H            0.72091583461870       -0.10098136020335        1.62237929203178
H            2.61433351313891        2.55812760055824        2.52738743357283
H            3.48174478990099        4.87619709405443        2.62284160327318
H            2.93356134080221        6.47204411019525        0.81798132378027
H            1.49820815384209        5.75371685148768       -1.07809440507623

          :  Hamiltonian                  GFN2-xTB          :
         :: gradient norm              0.000040517473 Eh/a0 ::
         :: HOMO-LUMO gap              0.009655261860 eV    ::
         :: SCC energy               -97.081304499843 Eh    ::
         :: -> dispersion             -0.071985488456 Eh    ::
         :: -> Gsolv                  -0.043326340653 Eh    ::
         :: repulsion energy           1.401812274726 Eh    ::

    * Orbital Energies and Occupations

         #    Occupation            Energy/Eh            Energy/eV
      -------------------------------------------------------------
         1        2.0000           -0.7599736             -20.6799
       ...           ...                  ...                  ...
        74        2.0000           -0.4392969             -11.9539
        75        2.0000           -0.4353751             -11.8472
        76        2.0000           -0.4338773             -11.8064
        77        2.0000           -0.4321622             -11.7597
        78        2.0000           -0.4306870             -11.7196
        79        2.0000           -0.4285410             -11.6612
        80        2.0000           -0.4161314             -11.3235
        81        2.0000           -0.4152140             -11.2985
        82        2.0000           -0.4133937             -11.2490
        83        2.0000           -0.4109256             -11.1819
        84        1.7357           -0.3955818             -10.7643
        85        1.2643           -0.3936367             -10.7114
        86        0.5466           -0.2949797              -8.0268 (HOMO)
        87        0.4534           -0.2946245              -8.0171 (LUMO)
        88        0.0000           -0.2795814              -7.6078
        89                         -0.2479854              -6.7480
        90                         -0.2456701              -6.6850
        91                         -0.2438997              -6.6368
        92                         -0.2282829              -6.2119
        93                         -0.2260323              -6.1507
        94                         -0.2084896              -5.6733
        95                         -0.1797732              -4.8919
        96                         -0.1699536              -4.6247
        97                         -0.1651703              -4.4945
       ...                                ...                  ...
       158                          0.6744993              18.3541
      -------------------------------------------------------------
                  HL-Gap            0.0003551 Eh            0.0097 eV

     #   Z          covCN         q      C6AA      α(0)
     1   8 O        0.859    -0.496    23.695     6.526
     2   6 C        2.720     0.322    21.529     7.596
     3   8 O        1.709    -0.256    18.247     5.767
     4   6 C        2.874     0.134    25.061     8.206
     5   6 C        2.913    -0.050    29.230     8.865
     6   6 C        2.919    -0.027    28.678     8.782
     7   6 C        2.913    -0.030    28.742     8.791
     8   6 C        2.919    -0.031    28.786     8.798
     9   6 C        2.975    -0.025    28.612     8.774
    10   6 C        2.837     0.143    24.878     8.174
    11   8 O        1.656    -0.385    20.563     6.122
    12   6 C        2.963    -0.074    29.850     8.962
    13   6 C        3.867    -0.003    20.587     6.452
    14   6 C        2.965     0.022    27.522     8.605
    15   6 C        2.919    -0.025    28.630     8.774
    16   6 C        2.916    -0.022    28.546     8.761
    17   6 C        2.985     0.019    27.582     8.615
    18   6 C        2.917    -0.021    28.535     8.760
    19   6 C        2.915    -0.020    28.499     8.754
    20   6 C        2.914    -0.021    28.532     8.759
    21   6 C        2.918    -0.021    28.528     8.759
    22   6 C        2.985     0.020    27.544     8.609
    23   6 C        2.922    -0.029    28.718     8.788
    24   6 C        2.963    -0.078    29.955     8.977
    25   6 C        2.836     0.153    24.678     8.141
    26   8 O        1.655    -0.380    20.463     6.107
    27   6 C        2.976    -0.026    28.642     8.779
    28   6 C        2.920    -0.030    28.744     8.792
    29   6 C        2.914    -0.029    28.732     8.790
    30   6 C        2.920    -0.025    28.639     8.776
    31   6 C        2.913    -0.049    29.210     8.862
    32   6 C        2.876     0.135    25.041     8.203
    33   8 O        1.709    -0.251    18.150     5.752
    34   6 C        2.725     0.320    21.565     7.602
    35   8 O        0.858    -0.503    23.849     6.547
    36   1 H        0.926     0.062     2.174     2.306
    37   1 H        0.926     0.061     2.191     2.315
    38   1 H        0.926     0.058     2.219     2.329
    39   1 H        0.926     0.065     2.147     2.291
    40   1 H        0.801     0.350     0.589     1.206
    41   1 H        0.923     0.080     1.983     2.202
    42   1 H        0.926     0.037     2.493     2.469
    43   1 H        0.926     0.056     2.243     2.342
    44   1 H        0.926     0.055     2.262     2.352
    45   1 H        0.926     0.054     2.274     2.358
    46   1 H        0.926     0.053     2.280     2.361
    47   1 H        0.926     0.053     2.288     2.366
    48   1 H        0.926     0.048     2.346     2.395
    49   1 H        0.801     0.354     0.580     1.196
    50   1 H        0.926     0.068     2.111     2.272
    51   1 H        0.926     0.060     2.195     2.317
    52   1 H        0.926     0.062     2.172     2.305
    53   1 H        0.926     0.063     2.162     2.299

molecular dipole:
                 x           y           z       tot (Debye)
 q only:        1.606      -1.097       0.437
   full:        1.533      -1.095       0.351       4.872

 projected vibrational frequencies (cm⁻¹)
eigval :       -0.00    -0.00    -0.00     0.00     0.00     0.00
eigval :       19.07    26.02    35.42    40.26    53.37    70.66
eigval :       85.91   107.14   122.17   123.55   146.49   151.52
eigval :      159.78   169.20   183.45   195.01   215.56   246.61
eigval :      249.07   256.08   276.91   299.45   318.11   320.59
eigval :      359.06   367.08   387.15   395.55   401.26   404.57
eigval :      427.04   433.21   441.08   451.56   471.61   480.28
eigval :      488.98   493.92   494.58   516.72   521.05   533.42
eigval :      551.93   563.41   577.58   593.81   609.65   612.28
eigval :      629.87   645.59   650.44   654.85   677.05   684.04
eigval :      698.85   717.56   723.97   742.41   753.79   760.78
eigval :      764.22   767.84   771.74   802.78   828.06   837.43
eigval :      847.23   849.78   854.09   857.61   870.13   876.19
eigval :      888.39   892.40   897.47   911.83   914.90   916.94
eigval :      919.52   922.88   929.59   976.43   989.59  1035.63
eigval :     1055.66  1066.35  1072.10  1078.85  1091.79  1102.98
eigval :     1136.31  1154.47  1163.56  1166.26  1167.52  1175.89
eigval :     1177.12  1189.28  1198.57  1200.89  1211.61  1219.31
eigval :     1224.35  1227.46  1232.58  1241.58  1251.25  1257.78
eigval :     1275.05  1293.28  1302.51  1330.19  1338.75  1340.09
eigval :     1355.92  1368.44  1369.61  1380.29  1396.26  1402.36
eigval :     1418.18  1428.18  1439.58  1447.20  1451.57  1498.32
eigval :     1509.88  1514.80  1520.03  1532.02  1537.58  1541.26
eigval :     1543.69  1553.29  1579.40  2792.34  2876.16  2881.94
eigval :     3070.07  3076.30  3078.87  3080.07  3085.74  3088.62
eigval :     3092.28  3093.90  3097.54  3102.75  3102.85  3112.28
eigval :     3112.42  3115.80  3116.07

   temp. (K)  partition function   enthalpy   heat capacity  entropy
                                   cal/mol     cal/K/mol   cal/K/mol   J/K/mol
 298.15  VIB  0.315E+11            15480.799    102.476     92.817
         ROT  0.285E+08              888.752      2.981     37.093
         INT  0.899E+18            16369.551    105.457    129.910
         TR   0.962E+28             1481.254      4.968     44.263
         TOT                       17850.8051   110.4251   174.1731   728.7401

       T/K    H(0)-H(T)+PV         H(T)/Eh          T*S/Eh         G(T)/Eh
   ------------------------------------------------------------------------
    298.15    0.284471E-01    0.408029E+00    0.827552E-01    0.325274E+00
   ------------------------------------------------------------------------

         :::::::::::::::::::::::::::::::::::::::::::::::::::::
         ::                  THERMODYNAMIC                  ::
         :::::::::::::::::::::::::::::::::::::::::::::::::::::
         :: total free energy         -95.354218375028 Eh   ::
         ::.................................................::
         :: total energy              -95.679492226784 Eh   ::
         :: zero point energy           0.379582022380 Eh   ::
         :: G(RRHO) w/o ZPVE           -0.054308170624 Eh   ::
         :: G(RRHO) contrib.            0.325273851756 Eh   ::
         :::::::::::::::::::::::::::::::::::::::::::::::::::::

           -------------------------------------------------
          | TOTAL ENERGY              -95.679492226784 Eh   |
          | TOTAL ENTHALPY            -95.271463135691 Eh   |
          | TOTAL FREE ENERGY         -95.354218375028 Eh   |
          | GRADIENT NORM               0.000038374054 Eh/α |
          | HOMO-LUMO GAP               0.009663585240 eV   |
           -------------------------------------------------

 * finished run on 2025/07/20 at 13:06:45.222
