   * xtb version 6.7.1 (edcfbbe) compiled by 'albert@albert-system' on 2024-07-22

   ID    Z sym.   atoms
    1    8 O      1, 3, 11, 26, 33, 35
    2    6 C      2, 4-10, 12-25, 27-32, 34
    3    1 H      36-53

          program call               : xtb data2507/toluene/3,3−NHC/3,3−NHC_toluene_S0_finalOpt.xtbopt.xyz --gfn 2 --uhf 2 --gbsa toluene --ohess vtight --parallel 40 --molden --ceasefiles --namespace data2507/toluene/3,3−NHC/3,3−NHC_toluene_T1_preOpt
      * Solvation model:               GBSA
        Solvent                        toluene
        Solvent mass                       9.2140E+01 g/mol
          :  Hamiltonian                  GFN2-xTB          :
 * total energy  :   -95.6538803 Eh     change        0.6145555E-08 Eh
 * total energy  :   -95.6578686 Eh     change       -0.3988328E-02 Eh
 * total energy  :   -95.6595491 Eh     change       -0.1680469E-02 Eh
 * total energy  :   -95.6601963 Eh     change       -0.6472663E-03 Eh
 * total energy  :   -95.6607895 Eh     change       -0.5931528E-03 Eh
 * total energy  :   -95.6611947 Eh     change       -0.4052126E-03 Eh
 * total energy  :   -95.6615644 Eh     change       -0.3697198E-03 Eh
 * total energy  :   -95.6618139 Eh     change       -0.2494667E-03 Eh
 * total energy  :   -95.6620753 Eh     change       -0.2614361E-03 Eh
 * total energy  :   -95.6622798 Eh     change       -0.2045269E-03 Eh
 * total energy  :   -95.6678694 Eh     change       -0.1254958E-05 Eh
 * total energy  :   -95.6678704 Eh     change       -0.1068409E-05 Eh
 * total energy  :   -95.6678714 Eh     change       -0.9750742E-06 Eh
 * total energy  :   -95.6678723 Eh     change       -0.8844298E-06 Eh
 * total energy  :   -95.6678729 Eh     change       -0.5713114E-06 Eh
 * total energy  :   -95.6678731 Eh     change       -0.2257224E-06 Eh
 * total energy  :   -95.6678733 Eh     change       -0.1695681E-06 Eh
 * total energy  :   -95.6678734 Eh     change       -0.1039639E-06 Eh
 * total energy  :   -95.6678734 Eh     change       -0.1611647E-07 Eh
   *** GEOMETRY OPTIMIZATION CONVERGED AFTER 120 ITERATIONS ***

 final structure:
================
53
 xtb: 6.7.1 (edcfbbe)
O            2.06969339798332       -1.41356077976634        0.05618614077016
C            1.04228553333162       -2.12689647259831        0.05803671738960
O            1.20426391576451       -3.43031490022697       -0.28228265538740
C            0.13444665853771       -4.28299560307987       -0.30160776886008
C            0.36879128318406       -5.59805786247989       -0.67157847136244
C           -0.68595715436968       -6.49846542629550       -0.69958705565966
C           -1.96862714770046       -6.08986865019109       -0.35510337878638
C           -2.20959995759221       -4.78554832785053        0.01676511303332
C           -1.15801533423141       -3.85511117606981        0.04972418961358
C           -1.32836781989146       -2.49350829130312        0.45238489188390
O           -2.55423982780370       -2.11673631702814        0.86474191444847
C           -0.23561020488969       -1.63966210002604        0.40109788070571
C           -0.29827407354962       -0.17993060413233        0.82107394687309
C           -1.34999715942202        0.64817358774015        0.09952421452343
C           -1.95235795887415        0.22386048291687       -1.10620957050279
C           -2.88901645321965        1.00433475643286       -1.72703882405940
C           -3.26957920838513        2.25093411940726       -1.18925446159446
C           -4.22855593872121        3.07773232219342       -1.81009925672995
C           -4.56796820333555        4.28328512972739       -1.26005326407358
C           -3.96603988334537        4.71530729077307       -0.06687982191065
C           -3.03484719376667        3.93562640366322        0.56122286180103
C           -2.66198764147183        2.68703765262279        0.01867230828055
C           -1.70360715182611        1.86231328320142        0.63865530405087
C            1.05466783433514        0.46968301670482        0.71202741497862
C            1.59285707108706        1.04439650187937       -0.49521786491227
O            0.95428835047126        1.00036575660448       -1.67027769538716
C            2.87246316251200        1.62427217677585       -0.44971143308134
C            3.50696526815510        2.17432928745504       -1.59208013036293
C            4.76072175478910        2.72801855251894       -1.49415722643852
C            5.42741061251680        2.75325560233669       -0.27370621241415
C            4.82574560824819        2.22031504066646        0.86660099984488
C            3.56737478122555        1.66296849088814        0.78424457859437
O            3.01780067572208        1.17058016428127        1.93658199684830
C            1.78031317976999        0.60190494322440        1.94711455303260
O            1.34668196468539        0.22700784077957        3.03314192178619
H            1.37241923400384       -5.89460079079339       -0.93090609875004
H           -0.50134753775517       -7.52043201376616       -0.99083747640723
H           -2.78190607648674       -6.79875922214581       -0.37829167096294
H           -3.19710223758861       -4.45034748860754        0.28953901883845
H           -2.56093729013900       -1.18334370835084        1.11828602215068
H           -0.52312734133321       -0.16738332935483        1.90128402623697
H           -1.68700949214224       -0.73450575826441       -1.53153645406468
H           -3.35048912695278        0.66748617902202       -2.64319266332158
H           -4.68841221434346        2.74130462764173       -2.72782430577261
H           -5.30270884789737        4.91323284940257       -1.73932568490984
H           -4.24722394840262        5.67007886896836        0.35233013489888
H           -2.56908560248822        4.26215059406370        1.47986856946283
H           -1.24479018059141        2.19371014378532        1.55988328569361
H            0.06727187662969        0.61147791375490       -1.57822884636473
H            2.97605033441943        2.14058038713222       -2.52932024391146
H            5.23298368239733        3.14353582474210       -2.37108721395749
H            6.41421165382119        3.18144630236444       -0.19968865752232
H            5.32807561347890        2.23183321682083        1.82067368368801

          :  Hamiltonian                  GFN2-xTB          :
         :: gradient norm              0.000110734198 Eh/a0 ::
         :: HOMO-LUMO gap              0.120815793704 eV    ::
         :: SCC energy               -97.079145544322 Eh    ::
         :: -> dispersion             -0.072315645524 Eh    ::
         :: -> Gsolv                  -0.049442654277 Eh    ::
         :: repulsion energy           1.411272168089 Eh    ::

    * Orbital Energies and Occupations

         #    Occupation            Energy/Eh            Energy/eV
      -------------------------------------------------------------
         1        2.0000           -0.7612013             -20.7133
       ...           ...                  ...                  ...
        74        2.0000           -0.4402548             -11.9799
        75        2.0000           -0.4374640             -11.9040
        76        2.0000           -0.4344585             -11.8222
        77        2.0000           -0.4300279             -11.7017
        78        2.0000           -0.4295113             -11.6876
        79        2.0000           -0.4269196             -11.6171
        80        2.0000           -0.4160854             -11.3223
        81        2.0000           -0.4145791             -11.2813
        82        2.0000           -0.4120953             -11.2137
        83        2.0000           -0.4043623             -11.0033
        84        1.9996           -0.3954907             -10.7618
        85        1.0004           -0.3803919             -10.3510
        86        0.9119           -0.2962850              -8.0623 (HOMO)
        87        0.0881           -0.2918454              -7.9415 (LUMO)
        88        0.0000           -0.2790512              -7.5934
        89                         -0.2489018              -6.7730
        90                         -0.2455091              -6.6806
        91                         -0.2412091              -6.5636
        92                         -0.2277113              -6.1963
        93                         -0.2227468              -6.0612
        94                         -0.2068050              -5.6274
        95                         -0.1752368              -4.7684
        96                         -0.1689409              -4.5971
        97                         -0.1655720              -4.5054
       ...                                ...                  ...
       158                          0.6801374              18.5075
      -------------------------------------------------------------
                  HL-Gap            0.0044396 Eh            0.1208 eV

     #   Z          covCN         q      C6AA      α(0)
     1   8 O        0.867    -0.453    22.774     6.399
     2   6 C        2.730     0.319    21.583     7.606
     3   8 O        1.709    -0.246    18.077     5.740
     4   6 C        2.880     0.135    25.045     8.204
     5   6 C        2.914    -0.049    29.217     8.864
     6   6 C        2.920    -0.027    28.678     8.782
     7   6 C        2.915    -0.030    28.746     8.792
     8   6 C        2.920    -0.032    28.792     8.799
     9   6 C        2.979    -0.022    28.557     8.766
    10   6 C        2.841     0.142    24.905     8.179
    11   8 O        1.660    -0.365    20.186     6.065
    12   6 C        2.956    -0.091    30.271     9.024
    13   6 C        3.868    -0.010    20.711     6.471
    14   6 C        2.967    -0.007    28.183     8.708
    15   6 C        2.915    -0.051    29.258     8.870
    16   6 C        2.916    -0.030    28.737     8.791
    17   6 C        2.986     0.016    27.647     8.625
    18   6 C        2.917    -0.031    28.778     8.797
    19   6 C        2.916    -0.024    28.613     8.772
    20   6 C        2.916    -0.024    28.612     8.771
    21   6 C        2.918    -0.032    28.794     8.799
    22   6 C        2.986     0.017    27.619     8.621
    23   6 C        2.923    -0.041    29.014     8.833
    24   6 C        2.965    -0.021    28.517     8.759
    25   6 C        2.835     0.155    24.630     8.133
    26   8 O        1.659    -0.353    19.968     6.032
    27   6 C        2.973    -0.018    28.453     8.750
    28   6 C        2.919    -0.030    28.751     8.793
    29   6 C        2.912    -0.029    28.728     8.789
    30   6 C        2.919    -0.025    28.618     8.772
    31   6 C        2.912    -0.048    29.200     8.861
    32   6 C        2.872     0.142    24.914     8.182
    33   8 O        1.708    -0.256    18.245     5.767
    34   6 C        2.718     0.333    21.349     7.564
    35   8 O        0.857    -0.467    23.063     6.439
    36   1 H        0.926     0.060     2.197     2.318
    37   1 H        0.926     0.060     2.194     2.316
    38   1 H        0.926     0.059     2.205     2.322
    39   1 H        0.926     0.069     2.098     2.265
    40   1 H        0.805     0.327     0.644     1.261
    41   1 H        0.923     0.080     1.981     2.201
    42   1 H        0.925     0.041     2.439     2.442
    43   1 H        0.926     0.053     2.279     2.361
    44   1 H        0.926     0.046     2.367     2.406
    45   1 H        0.926     0.044     2.402     2.424
    46   1 H        0.926     0.042     2.419     2.432
    47   1 H        0.926     0.040     2.445     2.445
    48   1 H        0.926     0.036     2.497     2.471
    49   1 H        0.804     0.337     0.620     1.237
    50   1 H        0.926     0.069     2.102     2.267
    51   1 H        0.926     0.062     2.174     2.306
    52   1 H        0.926     0.064     2.155     2.296
    53   1 H        0.926     0.063     2.162     2.299

molecular dipole:
                 x           y           z       tot (Debye)
 q only:       -2.604       0.900      -2.450
   full:       -2.647       0.955      -2.244       9.148

 projected vibrational frequencies (cm⁻¹)
eigval :       -0.00    -0.00     0.00     0.00     0.00     0.00
eigval :       11.63    16.73    30.34    31.44    44.93    51.83
eigval :       87.65    94.52    97.19   115.81   126.27   134.38
eigval :      148.88   167.15   174.07   180.71   192.05   241.42
eigval :      246.74   253.90   267.06   283.26   289.51   311.25
eigval :      358.65   361.55   363.88   378.44   380.70   389.11
eigval :      425.21   429.14   430.94   437.80   444.50   455.73
eigval :      479.76   486.69   491.02   499.91   500.69   512.89
eigval :      523.23   536.62   554.87   571.72   583.97   604.06
eigval :      604.56   613.58   635.66   637.66   645.57   648.47
eigval :      673.95   687.64   702.94   723.21   744.99   752.93
eigval :      756.46   761.46   771.63   802.21   839.36   843.49
eigval :      847.46   848.30   860.39   863.18   870.57   884.95
eigval :      886.38   894.28   897.38   911.78   917.16   918.22
eigval :      922.43   928.82   931.91   957.73  1024.29  1061.87
eigval :     1064.53  1072.37  1075.33  1092.02  1099.70  1113.67
eigval :     1140.02  1154.17  1159.01  1164.34  1165.80  1169.78
eigval :     1174.60  1176.16  1177.73  1192.90  1204.97  1206.40
eigval :     1226.65  1231.40  1234.52  1238.25  1242.90  1251.34
eigval :     1258.79  1300.93  1322.12  1333.55  1341.75  1354.24
eigval :     1359.13  1369.43  1379.88  1390.71  1396.64  1419.75
eigval :     1422.86  1441.76  1443.90  1449.72  1475.59  1499.96
eigval :     1501.95  1515.18  1541.02  1546.97  1552.29  1565.23
eigval :     1585.53  1589.52  1602.51  2843.28  3066.77  3071.74
eigval :     3074.49  3076.70  3084.09  3089.21  3092.12  3092.52
eigval :     3093.87  3101.27  3103.01  3112.39  3112.44  3115.59
eigval :     3116.35  3329.56  3471.26

   temp. (K)  partition function   enthalpy   heat capacity  entropy
                                   cal/mol     cal/K/mol   cal/K/mol   J/K/mol
 298.15  VIB  0.493E+12            16015.939    103.132     97.531
         ROT  0.286E+08              888.752      2.981     37.100
         INT  0.141E+20            16904.691    106.113    134.631
         TR   0.962E+28             1481.254      4.968     44.263
         TOT                       18385.9452   111.0814   178.8936   748.4908

       T/K    H(0)-H(T)+PV         H(T)/Eh          T*S/Eh         G(T)/Eh
   ------------------------------------------------------------------------
    298.15    0.292999E-01    0.410002E+00    0.849981E-01    0.325004E+00
   ------------------------------------------------------------------------

         :::::::::::::::::::::::::::::::::::::::::::::::::::::
         ::                  THERMODYNAMIC                  ::
         :::::::::::::::::::::::::::::::::::::::::::::::::::::
         :: total free energy         -95.342869827064 Eh   ::
         ::.................................................::
         :: total energy              -95.667873378253 Eh   ::
         :: zero point energy           0.380701802260 Eh   ::
         :: G(RRHO) w/o ZPVE           -0.055698251072 Eh   ::
         :: G(RRHO) contrib.            0.325003551188 Eh   ::
         :::::::::::::::::::::::::::::::::::::::::::::::::::::

           -------------------------------------------------
          | TOTAL ENERGY              -95.667873378253 Eh   |
          | TOTAL ENTHALPY            -95.257871707244 Eh   |
          | TOTAL FREE ENERGY         -95.342869827064 Eh   |
          | GRADIENT NORM               0.000105498365 Eh/α |
          | HOMO-LUMO GAP               0.120808056246 eV   |
           -------------------------------------------------

 * finished run on 2025/07/20 at 13:03:57.169
