   * xtb version 6.7.1 (edcfbbe) compiled by 'albert@albert-system' on 2024-07-22

   ID    Z sym.   atoms
    1    8 O      1, 3, 11, 26, 33, 35
    2    6 C      2, 4-10, 12-25, 27-32, 34
    3    1 H      36-53

          program call               : xtb data2507/toluene/3,3−NHC/3,3−NHC_toluene_S0_crest.xyz --gfn 2 --gbsa toluene --ohess vtight --parallel 40 --molden --ceasefiles --namespace data2507/toluene/3,3−NHC/3,3−NHC_toluene_S0_finalOpt
      * Solvation model:               GBSA
        Solvent                        toluene
        Solvent mass                       9.2140E+01 g/mol
          :  Hamiltonian                  GFN2-xTB          :
 * total energy  :   -95.7614131 Eh     change       -0.2067836E-08 Eh
 * total energy  :   -95.7618721 Eh     change       -0.4590518E-03 Eh
 * total energy  :   -95.7621210 Eh     change       -0.2488549E-03 Eh
 * total energy  :   -95.7621691 Eh     change       -0.4813632E-04 Eh
 * total energy  :   -95.7622107 Eh     change       -0.4159034E-04 Eh
 * total energy  :   -95.7622342 Eh     change       -0.2348783E-04 Eh
 * total energy  :   -95.7622733 Eh     change       -0.3910370E-04 Eh
 * total energy  :   -95.7622985 Eh     change       -0.2524720E-04 Eh
 * total energy  :   -95.7623356 Eh     change       -0.3708941E-04 Eh
 * total energy  :   -95.7623624 Eh     change       -0.2676601E-04 Eh
 * total energy  :   -95.7623932 Eh     change       -0.2640220E-06 Eh
 * total energy  :   -95.7623934 Eh     change       -0.2178670E-06 Eh
 * total energy  :   -95.7623936 Eh     change       -0.2198590E-06 Eh
 * total energy  :   -95.7623939 Eh     change       -0.2872871E-06 Eh
 * total energy  :   -95.7623943 Eh     change       -0.3711585E-06 Eh
 * total energy  :   -95.7623946 Eh     change       -0.3108916E-06 Eh
 * total energy  :   -95.7623948 Eh     change       -0.2168746E-06 Eh
 * total energy  :   -95.7623949 Eh     change       -0.1343471E-06 Eh
 * total energy  :   -95.7623950 Eh     change       -0.7195658E-07 Eh
   *** GEOMETRY OPTIMIZATION CONVERGED AFTER 31 ITERATIONS ***

 final structure:
================
53
 xtb: 6.7.1 (edcfbbe)
O            1.77978762123193       -1.54263120812492        1.86242112412064
C            0.90540947802341       -2.06773295651213        1.19703116145346
O            0.96327686877380       -3.41772224463869        1.06000866068178
C            0.02529941549038       -4.11270067998514        0.36727501520984
C            0.16754430918388       -5.49545661809313        0.27755014283187
C           -0.77513848741965       -6.22966435993201       -0.41138183703726
C           -1.86204136072506       -5.60017668582631       -1.01382507282303
C           -2.00741888180653       -4.23471988441928       -0.92817137662556
C           -1.06118874774151       -3.46980023658073       -0.23535008213412
C           -1.16243117555161       -2.03057158120969       -0.11097214376012
O           -2.23758479939736       -1.48852770904498       -0.69081360853842
C           -0.17880805051471       -1.34282115882702        0.54979998244643
C           -0.14319548154671        0.15377642965870        0.82748488843766
C           -1.23718199514859        0.99396309128171        0.19500631276085
C           -1.12448175437803        1.46813566002037       -1.13297674175742
C           -2.09478245765436        2.26308219588993       -1.67472176582880
C           -3.23186534226805        2.63719454986200       -0.92876717105161
C           -4.24511031488063        3.46200716200466       -1.46018997672591
C           -5.32663308717477        3.81156057606528       -0.70067473527954
C           -5.44354837114744        3.35456700439489        0.62251531109370
C           -4.47843928656346        2.55382592633458        1.16621817230033
C           -3.35020024808782        2.17449201088008        0.40828986108130
C           -2.33245022947742        1.35843730856168        0.94262419518505
C            1.21465949423200        0.76230362019836        0.52690697558047
C            2.00193635793352        0.44633039333590       -0.54000178704380
O            1.66965909277969       -0.43965969369004       -1.49676691493870
C            3.28334090550919        1.09104764792768       -0.70006407723072
C            4.14815396061002        0.81552054210253       -1.76549879050234
C            5.36188000115725        1.45754035765199       -1.85361580408894
C            5.73674707541822        2.38403947560494       -0.88361537631439
C            4.89945442929872        2.67017042886268        0.17433778440783
C            3.66867424964964        2.02400337542137        0.26966581849107
O            2.86582560923318        2.33382669266093        1.31851621716695
C            1.65260295512472        1.74788675943104        1.49434223499117
O            0.99827364998684        2.10142887795651        2.45872076917569
H            1.01561781078302       -5.96051243422543        0.75391375961851
H           -0.66693287508751       -7.30084624467975       -0.48153129079215
H           -2.59250752763864       -6.18651583281792       -1.54875148855303
H           -2.84064454355235       -3.72758850551251       -1.38744344561321
H           -2.27190064361373       -0.52584146553781       -0.53798429953427
H           -0.24949597060810        0.26081275572643        1.91712678911929
H           -0.25905562037957        1.21371671400492       -1.72503816270349
H           -1.99413764514603        2.62482897854628       -2.68736294648529
H           -4.14884658390626        3.81195923018037       -2.47789114499784
H           -6.09998764132781        4.44374046844750       -1.11189383171668
H           -6.30438067413055        3.64278540937881        1.20792373914430
H           -4.56175194076365        2.20110272654009        2.18412088473119
H           -2.41886431675245        1.02700031810825        1.96768069078269
H            0.81803858004193       -0.85759644245870       -1.28903567685155
H            3.83967825537157        0.09355248367817       -2.50478270395405
H            6.02641287393897        1.24208806469333       -2.67564136177666
H            6.69012718288376        2.88388883528972       -0.95709243091721
H            5.16962531253852        3.38293817211388        0.93691664636810

          :  Hamiltonian                  GFN2-xTB          :
         :: gradient norm              0.000031140681 Eh/a0 ::
         :: HOMO-LUMO gap              2.611829069635 eV    ::
         :: SCC energy               -97.194842078654 Eh    ::
         :: -> dispersion             -0.071955308060 Eh    ::
         :: -> Gsolv                  -0.050970753490 Eh    ::
         :: repulsion energy           1.432447076409 Eh    ::

    * Orbital Energies and Occupations

         #    Occupation            Energy/Eh            Energy/eV
      -------------------------------------------------------------
         1        2.0000           -0.7665418             -20.8587
       ...           ...                  ...                  ...
        73        2.0000           -0.4443157             -12.0904
        74        2.0000           -0.4422236             -12.0335
        75        2.0000           -0.4367637             -11.8849
        76        2.0000           -0.4305555             -11.7160
        77        2.0000           -0.4284151             -11.6578
        78        2.0000           -0.4245928             -11.5538
        79        2.0000           -0.4226997             -11.5022
        80        2.0000           -0.4200444             -11.4300
        81        2.0000           -0.4157625             -11.3135
        82        2.0000           -0.4098442             -11.1524
        83        2.0000           -0.4064202             -11.0593
        84        2.0000           -0.3989549             -10.8561
        85        2.0000           -0.3895409             -10.5999 (HOMO)
        86                         -0.2935579              -7.9881 (LUMO)
        87                         -0.2870204              -7.8102
        88                         -0.2716438              -7.3918
        89                         -0.2529791              -6.8839
        90                         -0.2468359              -6.7167
        91                         -0.2423251              -6.5940
        92                         -0.2338654              -6.3638
        93                         -0.2276325              -6.1942
        94                         -0.2005766              -5.4580
        95                         -0.1773519              -4.8260
        96                         -0.1678648              -4.5678
       ...                                ...                  ...
       158                          0.6854136              18.6511
      -------------------------------------------------------------
                  HL-Gap            0.0959830 Eh            2.6118 eV

     #   Z          covCN         q      C6AA      α(0)
     1   8 O        0.857    -0.474    23.214     6.460
     2   6 C        2.724     0.339    21.236     7.544
     3   8 O        1.709    -0.241    17.991     5.727
     4   6 C        2.877     0.141    24.919     8.183
     5   6 C        2.915    -0.044    29.080     8.843
     6   6 C        2.921    -0.017    28.444     8.746
     7   6 C        2.917    -0.028    28.702     8.785
     8   6 C        2.921    -0.021    28.540     8.761
     9   6 C        2.980    -0.023    28.583     8.770
    10   6 C        2.837     0.155    24.630     8.133
    11   8 O        1.659    -0.366    20.195     6.067
    12   6 C        2.951    -0.099    30.503     9.059
    13   6 C        3.867    -0.009    20.686     6.468
    14   6 C        2.966    -0.007    28.191     8.709
    15   6 C        2.916    -0.048    29.193     8.860
    16   6 C        2.916    -0.036    28.897     8.815
    17   6 C        2.986     0.012    27.739     8.639
    18   6 C        2.917    -0.034    28.841     8.807
    19   6 C        2.916    -0.027    28.680     8.782
    20   6 C        2.916    -0.027    28.673     8.781
    21   6 C        2.918    -0.034    28.838     8.806
    22   6 C        2.985     0.013    27.723     8.637
    23   6 C        2.922    -0.045    29.119     8.849
    24   6 C        2.957    -0.072    29.799     8.954
    25   6 C        2.839     0.157    24.594     8.127
    26   8 O        1.660    -0.372    20.323     6.086
    27   6 C        2.980    -0.021    28.533     8.762
    28   6 C        2.920    -0.023    28.571     8.765
    29   6 C        2.917    -0.030    28.746     8.792
    30   6 C        2.921    -0.020    28.495     8.754
    31   6 C        2.915    -0.044    29.103     8.846
    32   6 C        2.879     0.142    24.908     8.182
    33   8 O        1.709    -0.242    18.006     5.729
    34   6 C        2.725     0.341    21.203     7.538
    35   8 O        0.857    -0.468    23.088     6.442
    36   1 H        0.926     0.070     2.090     2.261
    37   1 H        0.926     0.070     2.087     2.259
    38   1 H        0.926     0.068     2.111     2.272
    39   1 H        0.926     0.079     1.994     2.208
    40   1 H        0.804     0.329     0.639     1.256
    41   1 H        0.923     0.074     2.040     2.233
    42   1 H        0.926     0.041     2.440     2.443
    43   1 H        0.926     0.047     2.364     2.404
    44   1 H        0.926     0.041     2.433     2.439
    45   1 H        0.926     0.039     2.458     2.451
    46   1 H        0.926     0.039     2.467     2.456
    47   1 H        0.926     0.038     2.476     2.461
    48   1 H        0.926     0.039     2.457     2.451
    49   1 H        0.804     0.322     0.659     1.275
    50   1 H        0.926     0.074     2.047     2.237
    51   1 H        0.926     0.066     2.129     2.282
    52   1 H        0.926     0.069     2.100     2.266
    53   1 H        0.926     0.068     2.107     2.270

molecular dipole:
                 x           y           z       tot (Debye)
 q only:       -1.458      -1.447      -3.569
   full:       -1.587      -1.296      -3.270       9.807

 projected vibrational frequencies (cm⁻¹)
eigval :       -0.00    -0.00     0.00     0.00     0.00     0.00
eigval :       13.24    26.20    27.64    35.61    38.68    46.27
eigval :       88.85    91.95    93.87   112.62   120.63   153.90
eigval :      160.23   168.46   170.08   174.93   179.13   255.66
eigval :      261.12   266.07   271.28   295.98   302.09   342.37
eigval :      361.99   364.70   374.37   381.07   409.42   411.35
eigval :      428.74   434.78   444.45   455.99   479.99   485.21
eigval :      495.79   501.76   507.05   516.57   523.90   529.85
eigval :      538.09   566.77   583.63   603.77   604.39   607.20
eigval :      615.41   619.55   649.81   650.03   680.36   691.61
eigval :      707.74   712.79   720.37   730.21   741.32   761.17
eigval :      767.22   784.19   785.67   804.68   828.94   860.41
eigval :      861.51   867.05   870.04   878.91   880.05   880.69
eigval :      908.81   910.84   915.75   916.81   917.93   928.42
eigval :      928.47   928.89   943.25   968.55  1039.54  1055.27
eigval :     1073.53  1074.63  1075.98  1104.21  1113.36  1141.62
eigval :     1155.43  1159.08  1161.05  1165.19  1170.08  1175.59
eigval :     1179.00  1181.26  1181.63  1186.44  1194.49  1230.91
eigval :     1234.87  1237.76  1240.62  1241.84  1247.07  1258.10
eigval :     1272.19  1298.08  1337.00  1341.68  1344.37  1349.03
eigval :     1352.37  1363.30  1400.36  1427.37  1427.86  1429.11
eigval :     1449.81  1453.06  1457.96  1502.32  1551.39  1555.84
eigval :     1559.89  1581.40  1585.97  1593.27  1599.87  1604.18
eigval :     1608.48  1667.48  1672.19  2894.44  3071.24  3073.15
eigval :     3077.66  3081.41  3082.59  3091.15  3095.12  3095.73
eigval :     3102.47  3103.54  3105.00  3111.79  3113.90  3114.24
eigval :     3115.83  3281.54  3379.26

   temp. (K)  partition function   enthalpy   heat capacity  entropy
                                   cal/mol     cal/K/mol   cal/K/mol   J/K/mol
 298.15  VIB  0.228E+12            15631.244    100.843     94.961
         ROT  0.292E+08              888.752      2.981     37.139
         INT  0.665E+19            16519.996    103.824    132.100
         TR   0.962E+28             1481.254      4.968     44.263
         TOT                       18001.2499   108.7924   176.3625   737.9007

       T/K    H(0)-H(T)+PV         H(T)/Eh          T*S/Eh         G(T)/Eh
   ------------------------------------------------------------------------
    298.15    0.286868E-01    0.413651E+00    0.837955E-01    0.329855E+00
   ------------------------------------------------------------------------

         :::::::::::::::::::::::::::::::::::::::::::::::::::::
         ::                  THERMODYNAMIC                  ::
         :::::::::::::::::::::::::::::::::::::::::::::::::::::
         :: total free energy         -95.432539884524 Eh   ::
         ::.................................................::
         :: total energy              -95.762395007155 Eh   ::
         :: zero point energy           0.384963817854 Eh   ::
         :: G(RRHO) w/o ZPVE           -0.055108695223 Eh   ::
         :: G(RRHO) contrib.            0.329855122631 Eh   ::
         :::::::::::::::::::::::::::::::::::::::::::::::::::::

           -------------------------------------------------
          | TOTAL ENERGY              -95.762395007155 Eh   |
          | TOTAL ENTHALPY            -95.348744371656 Eh   |
          | TOTAL FREE ENERGY         -95.432539884524 Eh   |
          | GRADIENT NORM               0.000031114465 Eh/α |
          | HOMO-LUMO GAP               2.611829548627 eV   |
           -------------------------------------------------

 * finished run on 2025/07/20 at 13:03:49.309
