   * xtb version 6.7.1 (edcfbbe) compiled by 'albert@albert-system' on 2024-07-22

   ID    Z sym.   atoms
    1    8 O      1, 3, 11, 26, 33, 35
    2    6 C      2, 4-10, 12-25, 27-32, 34
    3    1 H      36-53

          program call               : xtb data2507/toluene/3,3−NHC/3,3−NHC.xyz --gfn 2 --gbsa toluene --ohess vtight --parallel 40 --molden --ceasefiles --namespace data2507/toluene/3,3−NHC/3,3−NHC_toluene_S0_preOpt
      * Solvation model:               GBSA
        Solvent                        toluene
        Solvent mass                       9.2140E+01 g/mol
          :  Hamiltonian                  GFN2-xTB          :
 * total energy  :   -95.7365389 Eh     change       -0.3039673E-08 Eh
 * total energy  :   -95.7507739 Eh     change       -0.1423495E-01 Eh
 * total energy  :   -95.7569521 Eh     change       -0.6178252E-02 Eh
 * total energy  :   -95.7588070 Eh     change       -0.1854905E-02 Eh
 * total energy  :   -95.7601156 Eh     change       -0.1308542E-02 Eh
 * total energy  :   -95.7607635 Eh     change       -0.6478726E-03 Eh
 * total energy  :   -95.7613002 Eh     change       -0.5367503E-03 Eh
 * total energy  :   -95.7617707 Eh     change       -0.4704451E-03 Eh
 * total energy  :   -95.7621466 Eh     change       -0.3759092E-03 Eh
 * total energy  :   -95.7623305 Eh     change       -0.1839556E-03 Eh
 * total energy  :   -95.7637678 Eh     change       -0.4809043E-06 Eh
 * total energy  :   -95.7637682 Eh     change       -0.4658933E-06 Eh
 * total energy  :   -95.7637687 Eh     change       -0.4027338E-06 Eh
 * total energy  :   -95.7637690 Eh     change       -0.3141220E-06 Eh
 * total energy  :   -95.7637692 Eh     change       -0.2231529E-06 Eh
 * total energy  :   -95.7637693 Eh     change       -0.1543047E-06 Eh
 * total energy  :   -95.7637695 Eh     change       -0.1362396E-06 Eh
 * total energy  :   -95.7637696 Eh     change       -0.1641113E-06 Eh
 * total energy  :   -95.7637696 Eh     change       -0.1369855E-08 Eh
   *** GEOMETRY OPTIMIZATION CONVERGED AFTER 68 ITERATIONS ***

 final structure:
================
53
 xtb: 6.7.1 (edcfbbe)
O           -0.60020836918757       -2.11531129976944       -1.31586412396797
C           -1.54473211576939       -1.60074179327906       -0.73627988146928
O           -2.78248261114780       -1.99672515184316       -1.13686200347976
C           -3.91748780449322       -1.46311296341886       -0.62043599202819
C           -5.13974818621901       -1.94779694735616       -1.08156103216112
C           -6.31061646915461       -1.40828621801244       -0.59168442175576
C           -6.27936998659963       -0.38509240216941        0.35328337302556
C           -5.07577871509219        0.09645272650368        0.81382762305214
C           -3.87526240949209       -0.44018863159599        0.33341014622597
C           -2.57737433117708       -0.01041821724485        0.79265278672654
O           -2.57388617431197        0.97406690909571        1.70164926504335
C           -1.44740448494955       -0.60709192909969        0.30597028523328
C           -0.07895336486808       -0.20965173915722        0.84291515496507
C            0.31719462873161        1.12555035754931        0.25319569442701
C            0.25737580921698        1.31592072722573       -1.14249337467202
C            0.56711630938305        2.52548563711836       -1.69264294052763
C            0.94688027699705        3.61687160109387       -0.88149105641420
C            1.27158771313685        4.87962765260702       -1.41892866092415
C            1.63881831849680        5.91280675215483       -0.60162309485152
C            1.69755899630950        5.73037459812417        0.78917144892310
C            1.38654718540463        4.51849391940237        1.34064731941260
C            1.00597447720106        3.43299779363958        0.52413351767071
C            0.67730457353768        2.17101788146683        1.06212745120390
C            0.92412548623905       -1.32811697197410        0.65467716440087
C            2.16664631989188       -1.20879152202821        0.10426029455070
O            2.62825460053543       -0.01334635623114       -0.29531376058996
C            2.99209265285799       -2.39124399633689       -0.03822603111193
C            4.26595005984209       -2.39673803804833       -0.62583192331778
C            4.98053389119618       -3.56691811568773       -0.74681776498003
C            4.44720347919800       -4.76763597580126       -0.28796387193382
C            3.19816249594590       -4.79190131385393        0.29341721195678
C            2.47127938064035       -3.60922527242984        0.41942573913595
O            1.25902584896708       -3.68853957375021        1.02025333951504
C            0.46511537694009       -2.60118938759394        1.16915449340629
O           -0.59156390755942       -2.76132858828385        1.75867481426688
H           -5.14029113578043       -2.73813307648920       -1.81512316840333
H           -7.25773530238915       -1.78357810510359       -0.94723273031667
H           -7.20333217909335        0.02862959715222        0.72606503461393
H           -5.02815497356528        0.88470104027296        1.54788847461165
H           -1.67028022303693        1.24114043924697        1.92528694993846
H           -0.18139156943437       -0.10657307695364        1.93540554932069
H           -0.02110820714825        0.47987186908813       -1.76766789918227
H            0.52433092609155        2.66343323581988       -2.76371362156987
H            1.22460111963603        5.01516557065041       -2.49024379661680
H            1.88695286753989        6.87752605843527       -1.02000638220658
H            1.99020011582497        6.55715087329621        1.42011372348104
H            1.43008874232161        4.37412685607310        2.41094862760651
H            0.73441705110320        2.04033194665381        2.13519094353854
H            3.50816921063907       -0.10175855140178       -0.69059684262155
H            4.70679194875814       -1.48196910793876       -0.99650357350927
H            5.95866900334364       -3.55249138049362       -1.20166766395079
H            5.01042142422894       -5.68225876467193       -0.38601583765883
H            2.75777123028576       -5.70558657464365        0.65904402396134

          :  Hamiltonian                  GFN2-xTB          :
         :: gradient norm              0.000031366253 Eh/a0 ::
         :: HOMO-LUMO gap              2.590328243107 eV    ::
         :: SCC energy               -97.199964251252 Eh    ::
         :: -> dispersion             -0.072567607426 Eh    ::
         :: -> Gsolv                  -0.053468570692 Eh    ::
         :: repulsion energy           1.436194605921 Eh    ::

    * Orbital Energies and Occupations

         #    Occupation            Energy/Eh            Energy/eV
      -------------------------------------------------------------
         1        2.0000           -0.7604996             -20.6942
       ...           ...                  ...                  ...
        73        2.0000           -0.4430770             -12.0567
        74        2.0000           -0.4393122             -11.9543
        75        2.0000           -0.4303192             -11.7096
        76        2.0000           -0.4282911             -11.6544
        77        2.0000           -0.4241392             -11.5414
        78        2.0000           -0.4228501             -11.5063
        79        2.0000           -0.4184181             -11.3857
        80        2.0000           -0.4179081             -11.3719
        81        2.0000           -0.4147224             -11.2852
        82        2.0000           -0.4017545             -10.9323
        83        2.0000           -0.3955680             -10.7640
        84        2.0000           -0.3938657             -10.7176
        85        2.0000           -0.3823540             -10.4044 (HOMO)
        86                         -0.2871612              -7.8141 (LUMO)
        87                         -0.2860677              -7.7843
        88                         -0.2632505              -7.1634
        89                         -0.2497285              -6.7955
        90                         -0.2457089              -6.6861
        91                         -0.2329504              -6.3389
        92                         -0.2302770              -6.2662
        93                         -0.2264109              -6.1610
        94                         -0.1929373              -5.2501
        95                         -0.1689443              -4.5972
        96                         -0.1660949              -4.5197
       ...                                ...                  ...
       158                          0.6913173              18.8117
      -------------------------------------------------------------
                  HL-Gap            0.0951928 Eh            2.5903 eV

     #   Z          covCN         q      C6AA      α(0)
     1   8 O        0.857    -0.486    23.485     6.497
     2   6 C        2.721     0.346    21.129     7.525
     3   8 O        1.709    -0.245    18.062     5.738
     4   6 C        2.878     0.142    24.899     8.180
     5   6 C        2.915    -0.044    29.104     8.846
     6   6 C        2.921    -0.019    28.493     8.754
     7   6 C        2.917    -0.029    28.733     8.790
     8   6 C        2.920    -0.022    28.555     8.763
     9   6 C        2.980    -0.020    28.502     8.757
    10   6 C        2.843     0.157    24.598     8.128
    11   8 O        1.660    -0.357    20.040     6.043
    12   6 C        2.957    -0.072    29.803     8.954
    13   6 C        3.868    -0.001    20.563     6.448
    14   6 C        2.971     0.012    27.744     8.640
    15   6 C        2.918    -0.029    28.722     8.788
    16   6 C        2.917    -0.034    28.850     8.808
    17   6 C        2.987     0.012    27.728     8.638
    18   6 C        2.918    -0.035    28.862     8.810
    19   6 C        2.916    -0.030    28.750     8.793
    20   6 C        2.916    -0.030    28.740     8.791
    21   6 C        2.918    -0.036    28.897     8.815
    22   6 C        2.986     0.014    27.687     8.631
    23   6 C        2.922    -0.050    29.229     8.866
    24   6 C        2.955    -0.053    29.323     8.882
    25   6 C        2.837     0.157    24.589     8.126
    26   8 O        1.660    -0.368    20.234     6.072
    27   6 C        2.976    -0.032    28.797     8.802
    28   6 C        2.921    -0.030    28.753     8.793
    29   6 C        2.916    -0.029    28.729     8.789
    30   6 C        2.920    -0.020    28.504     8.755
    31   6 C        2.915    -0.042    29.051     8.838
    32   6 C        2.882     0.145    24.843     8.171
    33   8 O        1.710    -0.240    17.979     5.725
    34   6 C        2.728     0.344    21.153     7.530
    35   8 O        0.857    -0.484    23.425     6.489
    36   1 H        0.926     0.067     2.117     2.275
    37   1 H        0.926     0.069     2.096     2.264
    38   1 H        0.926     0.067     2.116     2.275
    39   1 H        0.926     0.077     2.011     2.218
    40   1 H        0.805     0.332     0.632     1.249
    41   1 H        0.923     0.054     2.271     2.357
    42   1 H        0.926     0.026     2.648     2.545
    43   1 H        0.926     0.038     2.481     2.463
    44   1 H        0.926     0.035     2.510     2.478
    45   1 H        0.926     0.035     2.518     2.482
    46   1 H        0.926     0.035     2.511     2.478
    47   1 H        0.926     0.037     2.493     2.469
    48   1 H        0.925     0.034     2.526     2.486
    49   1 H        0.805     0.337     0.620     1.236
    50   1 H        0.926     0.062     2.181     2.309
    51   1 H        0.926     0.067     2.113     2.273
    52   1 H        0.926     0.069     2.094     2.263
    53   1 H        0.926     0.068     2.111     2.272

molecular dipole:
                 x           y           z       tot (Debye)
 q only:        1.209       1.955      -0.141
   full:        1.576       1.812      -0.179       6.122

 projected vibrational frequencies (cm⁻¹)
eigval :       -0.00    -0.00    -0.00    -0.00    -0.00     0.00
eigval :       14.79    22.65    31.13    32.69    33.28    52.55
eigval :       79.77    88.14   100.66   116.04   120.21   154.16
eigval :      157.93   167.35   171.20   176.45   179.92   257.33
eigval :      259.28   265.00   276.79   301.19   306.96   337.17
eigval :      355.96   366.41   370.57   376.58   379.87   404.67
eigval :      421.15   431.01   439.07   450.02   457.74   461.19
eigval :      478.61   494.44   499.07   503.24   521.67   526.20
eigval :      530.38   561.85   585.22   602.08   605.72   611.53
eigval :      618.22   623.78   649.69   652.14   677.49   690.46
eigval :      708.27   712.85   719.75   730.33   756.01   763.34
eigval :      770.52   772.92   783.21   805.58   841.87   848.87
eigval :      860.47   862.17   868.72   875.77   876.13   884.55
eigval :      898.14   905.08   912.43   918.21   923.13   926.26
eigval :      930.69   935.15   949.62   964.44  1053.24  1061.54
eigval :     1073.91  1078.72  1081.57  1100.13  1120.14  1144.60
eigval :     1158.60  1159.95  1163.87  1166.62  1172.93  1178.25
eigval :     1178.84  1180.72  1195.02  1205.94  1213.64  1229.16
eigval :     1229.35  1238.19  1244.28  1251.33  1259.65  1262.33
eigval :     1277.90  1297.11  1333.20  1340.69  1345.38  1345.88
eigval :     1355.22  1368.62  1403.31  1424.44  1427.91  1429.70
eigval :     1455.43  1456.96  1458.16  1506.94  1545.86  1554.86
eigval :     1566.53  1582.16  1585.85  1591.47  1608.46  1608.91
eigval :     1611.71  1657.52  1663.57  2846.13  3050.77  3064.48
eigval :     3067.46  3068.54  3071.34  3077.64  3086.45  3089.15
eigval :     3093.43  3096.63  3101.37  3105.13  3111.43  3114.66
eigval :     3114.75  3435.03  3446.44

   temp. (K)  partition function   enthalpy   heat capacity  entropy
                                   cal/mol     cal/K/mol   cal/K/mol   J/K/mol
 298.15  VIB  0.268E+12            15713.784    101.071     95.423
         ROT  0.290E+08              888.752      2.981     37.127
         INT  0.776E+19            16602.536    104.052    132.550
         TR   0.962E+28             1481.254      4.968     44.263
         TOT                       18083.7899   109.0204   176.8127   739.7845

       T/K    H(0)-H(T)+PV         H(T)/Eh          T*S/Eh         G(T)/Eh
   ------------------------------------------------------------------------
    298.15    0.288184E-01    0.413829E+00    0.840094E-01    0.329820E+00
   ------------------------------------------------------------------------

         :::::::::::::::::::::::::::::::::::::::::::::::::::::
         ::                  THERMODYNAMIC                  ::
         :::::::::::::::::::::::::::::::::::::::::::::::::::::
         :: total free energy         -95.433949855669 Eh   ::
         ::.................................................::
         :: total energy              -95.763769643220 Eh   ::
         :: zero point energy           0.385010869195 Eh   ::
         :: G(RRHO) w/o ZPVE           -0.055191081644 Eh   ::
         :: G(RRHO) contrib.            0.329819787551 Eh   ::
         :::::::::::::::::::::::::::::::::::::::::::::::::::::

           -------------------------------------------------
          | TOTAL ENERGY              -95.763769643220 Eh   |
          | TOTAL ENTHALPY            -95.349940420426 Eh   |
          | TOTAL FREE ENERGY         -95.433949855669 Eh   |
          | GRADIENT NORM               0.000031345058 Eh/α |
          | HOMO-LUMO GAP               2.590328283276 eV   |
           -------------------------------------------------

 * finished run on 2025/07/20 at 13:01:32.121
