   * xtb version 6.7.1 (edcfbbe) compiled by 'albert@albert-system' on 2024-07-22

   ID    Z sym.   atoms
    1    6 C      1-20, 22-38, 41-47, 49-66
    2    7 N      21, 39, 40, 48
    3    1 H      67-116

          program call               : xtb data2507/toluene/DTPCZPYTZ/DTPCZPYTZ_toluene_T1_crest.xyz --gfn 2 --uhf 2 --gbsa toluene --ohess vtight --parallel 40 --molden --ceasefiles --namespace data2507/toluene/DTPCZPYTZ/DTPCZPYTZ_toluene_T1_finalOpt
      * Solvation model:               GBSA
        Solvent                        toluene
        Solvent mass                       9.2140E+01 g/mol
          :  Hamiltonian                  GFN2-xTB          :
 * total energy  :  -170.0728952 Eh     change       -0.8034021E-08 Eh
 * total energy  :  -170.0729436 Eh     change       -0.4831697E-04 Eh
 * total energy  :  -170.0729657 Eh     change       -0.2216398E-04 Eh
 * total energy  :  -170.0729725 Eh     change       -0.6802018E-05 Eh
 * total energy  :  -170.0729778 Eh     change       -0.5306733E-05 Eh
 * total energy  :  -170.0729822 Eh     change       -0.4418159E-05 Eh
 * total energy  :  -170.0729857 Eh     change       -0.3454898E-05 Eh
 * total energy  :  -170.0729886 Eh     change       -0.2891328E-05 Eh
 * total energy  :  -170.0729906 Eh     change       -0.1976857E-05 Eh
 * total energy  :  -170.0729922 Eh     change       -0.1679084E-05 Eh
 * total energy  :  -170.0730021 Eh     change       -0.2963896E-05 Eh
 * total energy  :  -170.0730039 Eh     change       -0.1780688E-05 Eh
 * total energy  :  -170.0730052 Eh     change       -0.1275621E-05 Eh
 * total energy  :  -170.0730061 Eh     change       -0.9396601E-06 Eh
 * total energy  :  -170.0730068 Eh     change       -0.6949448E-06 Eh
 * total energy  :  -170.0730074 Eh     change       -0.6098892E-06 Eh
 * total energy  :  -170.0730078 Eh     change       -0.4042737E-06 Eh
 * total energy  :  -170.0730082 Eh     change       -0.3597474E-06 Eh
 * total energy  :  -170.0730082 Eh     change       -0.2184893E-07 Eh
   *** GEOMETRY OPTIMIZATION CONVERGED AFTER 22 ITERATIONS ***

 final structure:
================
116
 xtb: 6.7.1 (edcfbbe)
C          -11.32863799931035       -5.03409519781918       -1.56480752292172
C          -11.58811609363113       -4.07147603679794       -0.39603398948681
C          -12.93415807801841       -3.38169668689091       -0.63892589824187
C          -11.68814892931833       -4.86263266490601        0.91702956353862
C          -10.43449009923340       -3.08394422589105       -0.29388660070227
C           -9.13922602054532       -3.57418015463148       -0.07989891961057
C           -8.03462480197113       -2.75399920097308        0.03468495965859
C           -8.22804515552995       -1.38314351053549       -0.05323874179681
C           -9.51760491878326       -0.86531969309409       -0.29868201141110
C          -10.61025371376821       -1.71287334488306       -0.41284171224459
C           -9.37174040360143        0.56331857683352       -0.39588633218882
C          -10.27880016637907        1.59361732184582       -0.59824197432641
C           -9.83602267596075        2.90837065450718       -0.61486752693360
C          -10.77265984542653        4.08722624986621       -0.83747850188250
C          -10.32048948862185        4.86070385721704       -2.08534651939302
C          -10.72471258847317        5.00817265593033        0.39126159854306
C          -12.22637239690758        3.65302509735662       -1.04914678107953
C           -8.47287463698320        3.15581392066731       -0.40405721786958
C           -7.54974071756171        2.15023655142678       -0.19777545491334
C           -7.99972738781094        0.83820763348217       -0.21425199514991
N           -7.31479683774635       -0.34546006684264       -0.00551571014712
C           -5.94489216704998       -0.46533436268830        0.22269329683963
C           -5.46262368808664       -1.27541635652906        1.25431077668216
C           -4.11113366615182       -1.38238436859862        1.48233516622448
C           -3.17950231819710       -0.66823468532227        0.71012379023806
C           -1.76022886342811       -0.79406066380864        0.95592353797822
C           -1.22496457510971       -2.06047597964289        1.24394483624642
C            0.12087991470872       -2.27306239228103        1.33117156955905
C            1.04398470302095       -1.20127172266952        1.14962982822587
C            2.42289540282396       -1.39169326280351        1.23211170676402
C            3.30372974785826       -0.33782102103024        1.05297846297209
C            2.84343563158932        0.95637186638275        0.78658329538121
C            3.73868138775106        2.06802881024060        0.59290969512617
C            5.15941852109990        1.88468007578867        0.39085400415008
C            6.09233176898127        2.76315353208319        0.96914369017036
C            7.44245641584917        2.58553831239878        0.78992045847272
C            7.92900718640981        1.52723758224400        0.01309806844512
C            9.35831624329291        1.37096067443807       -0.12841061612395
N           10.21808550264988        2.36223068888793       -0.11238790773442
N           11.44298329429689        1.86347545284290       -0.29637091726141
C           11.35002483238423        0.56296147063130       -0.41959029899517
C           12.48956335065009       -0.32078040893901       -0.59348926209619
C           12.53383954084911       -1.59796258431556       -0.03723658476977
C           13.65003411807590       -2.39426977240427       -0.21811026069125
C           14.73364085973575       -1.92716853799156       -0.94354410065921
C           14.70461731998220       -0.64907865059001       -1.48007326017433
C           13.59241108882849        0.15148818229625       -1.30587145927120
N           10.03081089178866        0.18370899757962       -0.32190774369258
C            9.49235117280436       -1.11508293407986       -0.38569481959980
C            8.72683008999271       -1.59768274535495        0.67100065791367
C            8.19454698971722       -2.87218585795033        0.60168807260239
C            8.42760515588780       -3.66633517066622       -0.50973999110335
C            9.19493000525678       -3.18451226334452       -1.55796008808820
C            9.72764367932592       -1.90919684519926       -1.50301020037571
C            7.00783361657714        0.68803815645275       -0.62297705317673
C            5.65742147198815        0.86056032463484       -0.43183700573035
C            3.20346113319169        3.36607773079456        0.56041744961616
C            1.85760899884854        3.59388771292856        0.59997263437380
C            0.93464752481007        2.51081141246267        0.69205612019877
C           -0.44375397976466        2.71636988547218        0.73412334702169
C           -1.32504048770791        1.65106251938905        0.82154239527669
C           -0.86456526171589        0.33097584978409        0.87152058465137
C            0.53782651940686        0.10556941787255        0.92624223083573
C            1.44115636695777        1.18893632791196        0.79137937494952
C           -3.67946886126110        0.12723095018299       -0.33524278980385
C           -5.02901603635013        0.22309852423305       -0.57838073160243
H          -10.42141573436462       -5.61195618604029       -1.41148700591426
H          -11.22537045715625       -4.47784438966882       -2.49461624431541
H          -12.15986503130426       -5.72858955553906       -1.66839239556019
H          -13.71978574849731       -4.13247094541390       -0.69863764468261
H          -13.17987136722902       -2.70403832943997        0.17567923954974
H          -12.92745171634118       -2.82875387190034       -1.57562615418373
H          -11.85630341247685       -4.18532563484903        1.75225471726452
H          -12.51871033319793       -5.56393611580919        0.86876942581867
H          -10.77937604398574       -5.42525416749762        1.11247255675925
H           -8.98271077161516       -4.63937238714372       -0.00497187952080
H           -7.05163227391733       -3.17716991217763        0.17538522878873
H          -11.57999831626967       -1.28322088353820       -0.59963670214673
H          -11.31865250241773        1.34746513818810       -0.73264136911007
H          -10.98823536624774        5.70037563278298       -2.26713812140630
H           -9.31179032228680        5.24761354263511       -1.96990658251759
H          -10.33859177985368        4.21060458536842       -2.95818639664437
H          -11.41222617467472        5.84137094680896        0.26083529531766
H          -11.01410133381834        4.45834138429538        1.28494762767139
H           -9.72822298758272        5.41176453994271        0.54807973660941
H          -12.32058465010146        3.01205457063393       -1.92294270066559
H          -12.60963585392543        3.12853609943844       -0.17667478888541
H          -12.84656099455726        4.53269599256522       -1.21030821869821
H           -8.11567163879831        4.17419619086768       -0.39402385443118
H           -6.51294723702937        2.38899025499753       -0.01574353598274
H           -6.16238401850363       -1.79024708404458        1.89538144558287
H           -3.76093909319683       -1.98416897562260        2.30758767427029
H           -1.90131700103721       -2.89867349867647        1.33386388564506
H            0.51156103598532       -3.26277124618835        1.51710054442847
H            2.80641423135866       -2.37957323357440        1.44496455116317
H            4.36373660076020       -0.51641301581799        1.15089880996434
H            5.74220819258721        3.56394137229427        1.60347604068843
H            8.15533357274767        3.24900235010149        1.25590145810003
H           11.70631099583611       -1.96493322381831        0.55200345606414
H           13.67385421918795       -3.38300505635875        0.21620346787319
H           15.60175895160075       -2.55403402920700       -1.08336825295614
H           15.55182505210593       -0.27572242923561       -2.03621627010248
H           13.55521581780133        1.15042552844092       -1.71305012070572
H            8.55371055593519       -0.97087617853787        1.53398406638177
H            7.59893650445311       -3.24494129612330        1.42124324629308
H            8.01142049985442       -4.66094334707118       -0.55882603756219
H            9.37822409851352       -3.80005714894066       -2.42556266652838
H           10.32460474928390       -1.52228538412667       -2.31625725179090
H            7.35197444128515       -0.08718338192494       -1.29215821449242
H            4.96210720028391        0.22668296147619       -0.96267846235288
H            3.88072286033586        4.19951410198868        0.43901597410941
H            1.46795646711271        4.59955375655762        0.53972191394303
H           -0.82626189812802        3.72678521183925        0.70199103644808
H           -2.38400037247627        1.84942073508052        0.88337220356377
H           -2.98507620694040        0.62856022978162       -0.99302332263228
H           -5.38945948648782        0.80655803981116       -1.41253423601864

          :  Hamiltonian                  GFN2-xTB          :
         :: gradient norm              0.000073836664 Eh/a0 ::
         :: HOMO-LUMO gap              0.717696320063 eV    ::
         :: SCC energy              -173.157247739521 Eh    ::
         :: -> dispersion             -0.159523031811 Eh    ::
         :: -> Gsolv                  -0.070567437830 Eh    ::
         :: repulsion energy           3.084239525564 Eh    ::

    * Orbital Energies and Occupations

         #    Occupation            Energy/Eh            Energy/eV
      -------------------------------------------------------------
         1        2.0000           -0.6992479             -19.0275
       ...           ...                  ...                  ...
       148        2.0000           -0.4057186             -11.0402
       149        2.0000           -0.4036086             -10.9828
       150        2.0000           -0.4033176             -10.9748
       151        2.0000           -0.3996884             -10.8761
       152        2.0000           -0.3992675             -10.8646
       153        2.0000           -0.3968643             -10.7992
       154        2.0000           -0.3916937             -10.6585
       155        2.0000           -0.3820025             -10.3948
       156        2.0000           -0.3769563             -10.2575
       157        2.0000           -0.3655581              -9.9473
       158        1.9989           -0.3622884              -9.8584
       159        1.0012           -0.3494571              -9.5092
       160        1.0000           -0.2886077              -7.8534 (HOMO)
       161        0.0000           -0.2622329              -7.1357 (LUMO)
       162                         -0.2476662              -6.7393
       163                         -0.2441717              -6.6442
       164                         -0.2432293              -6.6186
       165                         -0.2420062              -6.5853
       166                         -0.2396298              -6.5207
       167                         -0.2304617              -6.2712
       168                         -0.2296568              -6.2493
       169                         -0.2275162              -6.1910
       170                         -0.2253724              -6.1327
       171                         -0.2235038              -6.0818
       ...                                ...                  ...
       314                          0.7376669              20.0729
      -------------------------------------------------------------
                  HL-Gap            0.0263749 Eh            0.7177 eV

     #   Z          covCN         q      C6AA      α(0)
     1   6 C        3.761    -0.105    22.554     6.770
     2   6 C        3.902     0.025    20.092     6.371
     3   6 C        3.761    -0.107    22.597     6.776
     4   6 C        3.761    -0.105    22.554     6.770
     5   6 C        2.972     0.002    27.979     8.676
     6   6 C        2.930    -0.039    28.981     8.829
     7   6 C        2.908    -0.051    29.264     8.870
     8   6 C        3.076     0.043    26.959     8.513
     9   6 C        3.065    -0.018    28.391     8.737
    10   6 C        2.917    -0.043    29.073     8.842
    11   6 C        3.065    -0.018    28.392     8.737
    12   6 C        2.917    -0.043    29.073     8.842
    13   6 C        2.972     0.002    27.979     8.676
    14   6 C        3.902     0.025    20.091     6.371
    15   6 C        3.761    -0.105    22.554     6.770
    16   6 C        3.761    -0.105    22.553     6.770
    17   6 C        3.761    -0.107    22.597     6.776
    18   6 C        2.930    -0.039    28.980     8.828
    19   6 C        2.908    -0.051    29.260     8.870
    20   6 C        3.076     0.043    26.958     8.513
    21   7 N        2.800    -0.032    21.859     6.944
    22   6 C        2.912     0.060    26.655     8.466
    23   6 C        2.918    -0.043    29.066     8.841
    24   6 C        2.923    -0.035    28.860     8.810
    25   6 C        2.973     0.012    27.744     8.640
    26   6 C        2.972    -0.005    28.134     8.700
    27   6 C        2.914    -0.035    28.871     8.811
    28   6 C        2.913    -0.044    29.096     8.845
    29   6 C        2.979     0.009    27.823     8.652
    30   6 C        2.916    -0.043    29.062     8.840
    31   6 C        2.916    -0.040    28.987     8.829
    32   6 C        2.976     0.004    27.927     8.668
    33   6 C        2.972    -0.003    28.106     8.696
    34   6 C        2.974     0.012    27.745     8.640
    35   6 C        2.922    -0.035    28.883     8.813
    36   6 C        2.923    -0.032    28.798     8.800
    37   6 C        2.973    -0.013    28.332     8.731
    38   6 C        3.121     0.139    24.814     8.158
    39   7 N        2.062    -0.225    26.632     7.655
    40   7 N        2.062    -0.221    26.540     7.642
    41   6 C        3.122     0.137    24.844     8.163
    42   6 C        2.974    -0.005    28.140     8.701
    43   6 C        2.922    -0.035    28.865     8.811
    44   6 C        2.919    -0.029    28.729     8.789
    45   6 C        2.919    -0.028    28.709     8.786
    46   6 C        2.918    -0.027    28.676     8.781
    47   6 C        2.927    -0.030    28.747     8.793
    48   7 N        2.827    -0.066    22.524     7.049
    49   6 C        2.912     0.064    26.556     8.450
    50   6 C        2.921    -0.038    28.953     8.824
    51   6 C        2.920    -0.025    28.636     8.775
    52   6 C        2.919    -0.029    28.722     8.789
    53   6 C        2.920    -0.025    28.639     8.776
    54   6 C        2.921    -0.039    28.967     8.826
    55   6 C        2.918    -0.038    28.933     8.821
    56   6 C        2.922    -0.035    28.876     8.812
    57   6 C        2.913    -0.035    28.867     8.810
    58   6 C        2.913    -0.042    29.042     8.837
    59   6 C        2.979     0.007    27.860     8.658
    60   6 C        2.916    -0.040    29.002     8.831
    61   6 C        2.916    -0.042    29.034     8.836
    62   6 C        2.976     0.006    27.882     8.661
    63   6 C        2.994     0.001    28.001     8.680
    64   6 C        2.994     0.001    28.004     8.681
    65   6 C        2.922    -0.033    28.814     8.803
    66   6 C        2.918    -0.043    29.080     8.843
    67   1 H        0.925     0.036     2.498     2.472
    68   1 H        0.925     0.033     2.547     2.496
    69   1 H        0.925     0.039     2.468     2.457
    70   1 H        0.925     0.037     2.487     2.466
    71   1 H        0.925     0.036     2.497     2.471
    72   1 H        0.925     0.036     2.498     2.472
    73   1 H        0.925     0.033     2.544     2.494
    74   1 H        0.925     0.039     2.468     2.457
    75   1 H        0.925     0.036     2.497     2.471
    76   1 H        0.926     0.034     2.534     2.490
    77   1 H        0.926     0.032     2.564     2.504
    78   1 H        0.926     0.042     2.418     2.432
    79   1 H        0.926     0.042     2.418     2.432
    80   1 H        0.925     0.038     2.469     2.457
    81   1 H        0.925     0.036     2.497     2.471
    82   1 H        0.925     0.033     2.545     2.495
    83   1 H        0.925     0.039     2.467     2.456
    84   1 H        0.925     0.033     2.547     2.496
    85   1 H        0.925     0.036     2.498     2.472
    86   1 H        0.925     0.036     2.497     2.471
    87   1 H        0.925     0.036     2.498     2.471
    88   1 H        0.925     0.037     2.487     2.466
    89   1 H        0.926     0.034     2.535     2.490
    90   1 H        0.926     0.031     2.569     2.507
    91   1 H        0.926     0.043     2.407     2.426
    92   1 H        0.926     0.041     2.432     2.439
    93   1 H        0.926     0.033     2.550     2.497
    94   1 H        0.926     0.030     2.593     2.518
    95   1 H        0.926     0.029     2.602     2.522
    96   1 H        0.926     0.031     2.569     2.506
    97   1 H        0.926     0.039     2.465     2.455
    98   1 H        0.926     0.042     2.428     2.437
    99   1 H        0.926     0.026     2.645     2.543
   100   1 H        0.926     0.039     2.457     2.451
   101   1 H        0.926     0.042     2.420     2.433
   102   1 H        0.926     0.042     2.421     2.433
   103   1 H        0.926     0.045     2.389     2.417
   104   1 H        0.926     0.035     2.512     2.478
   105   1 H        0.926     0.048     2.345     2.395
   106   1 H        0.926     0.050     2.325     2.384
   107   1 H        0.926     0.048     2.341     2.393
   108   1 H        0.926     0.036     2.507     2.476
   109   1 H        0.926     0.022     2.701     2.570
   110   1 H        0.926     0.037     2.483     2.464
   111   1 H        0.926     0.032     2.563     2.503
   112   1 H        0.926     0.031     2.571     2.508
   113   1 H        0.926     0.030     2.583     2.514
   114   1 H        0.926     0.035     2.523     2.484
   115   1 H        0.926     0.043     2.415     2.430
   116   1 H        0.926     0.043     2.414     2.430

molecular dipole:
                 x           y           z       tot (Debye)
 q only:       -3.831      -2.041      -0.218
   full:       -3.865      -2.559      -0.239      11.797

 projected vibrational frequencies (cm⁻¹)
eigval :       -0.00    -0.00    -0.00    -0.00     0.00     0.00
eigval :        4.50     7.12    10.28    13.27    15.06    23.77
eigval :       27.23    30.37    30.95    36.52    41.25    47.27
eigval :       48.90    52.47    61.76    67.43    73.57    78.88
eigval :       85.79    96.09   105.11   111.88   113.94   122.13
eigval :      129.75   134.89   147.13   156.29   162.73   170.97
eigval :      179.06   183.72   193.99   202.46   203.94   218.99
eigval :      224.24   228.06   230.67   233.60   243.89   247.99
eigval :      255.56   258.73   272.77   278.00   288.06   302.36
eigval :      307.30   318.06   319.84   322.94   324.46   338.09
eigval :      346.28   358.28   359.08   365.60   370.75   373.49
eigval :      376.53   384.87   389.52   392.33   399.30   401.77
eigval :      404.85   410.17   410.81   414.43   430.17   440.25
eigval :      443.40   444.09   460.08   462.63   465.71   472.93
eigval :      478.98   482.73   490.42   492.47   497.70   509.56
eigval :      517.73   532.03   535.74   551.41   569.44   574.31
eigval :      582.00   585.52   585.93   591.93   595.00   603.64
eigval :      608.52   615.42   624.93   630.63   641.43   643.03
eigval :      657.29   662.12   667.38   671.29   676.02   682.49
eigval :      686.57   690.02   690.49   693.13   703.56   707.05
eigval :      709.85   718.85   727.18   740.57   747.19   748.25
eigval :      761.37   768.37   773.36   786.37   807.18   813.16
eigval :      818.16   820.62   823.58   825.93   830.13   833.11
eigval :      861.77   863.94   871.93   872.34   872.56   873.72
eigval :      875.12   878.41   891.80   892.85   899.54   902.93
eigval :      904.00   907.35   912.83   916.18   921.02   921.84
eigval :      924.46   927.55   928.33   930.35   930.78   931.71
eigval :      935.87   937.39   942.82   949.66   956.58   958.51
eigval :      959.43   961.31   961.82   962.75   962.80   973.74
eigval :      986.25   997.06  1007.92  1028.34  1029.45  1034.00
eigval :     1034.86  1035.23  1037.66  1040.08  1077.71  1080.51
eigval :     1103.62  1105.39  1112.55  1115.52  1119.12  1127.49
eigval :     1127.87  1137.63  1139.40  1140.36  1149.84  1156.59
eigval :     1161.00  1170.88  1174.92  1176.86  1178.66  1183.04
eigval :     1185.80  1190.70  1196.06  1196.93  1204.46  1211.97
eigval :     1213.97  1224.24  1225.01  1228.58  1229.28  1230.27
eigval :     1233.00  1234.02  1241.09  1256.70  1264.63  1266.31
eigval :     1274.46  1275.34  1278.07  1279.94  1282.80  1298.25
eigval :     1300.92  1302.78  1309.48  1312.24  1313.36  1318.23
eigval :     1319.28  1325.73  1328.91  1339.38  1343.91  1345.28
eigval :     1348.74  1372.75  1373.63  1382.71  1383.31  1386.78
eigval :     1399.14  1401.44  1402.52  1402.91  1407.90  1410.74
eigval :     1415.68  1419.51  1426.59  1426.64  1426.98  1431.64
eigval :     1433.74  1438.92  1450.69  1455.21  1467.77  1471.34
eigval :     1476.21  1478.96  1479.75  1487.50  1490.33  1491.59
eigval :     1491.65  1497.90  1498.19  1498.44  1500.87  1503.58
eigval :     1503.98  1511.56  1512.13  1512.77  1516.46  1516.98
eigval :     1517.31  1517.78  1518.43  1521.59  1526.84  1553.52
eigval :     1565.26  1572.99  1575.77  1578.82  1579.68  1581.81
eigval :     1591.15  1591.23  1594.30  1605.94  3019.45  3019.49
eigval :     3019.54  3021.02  3023.13  3023.94  3024.25  3025.70
eigval :     3027.44  3027.93  3030.32  3030.88  3035.53  3035.88
eigval :     3044.26  3044.88  3047.81  3048.20  3066.72  3067.49
eigval :     3068.39  3069.29  3073.19  3074.87  3078.88  3079.73
eigval :     3080.08  3080.27  3081.06  3081.28  3081.78  3082.03
eigval :     3083.15  3083.66  3085.39  3086.17  3088.09  3090.21
eigval :     3091.85  3092.47  3092.62  3093.40  3094.15  3094.43
eigval :     3095.28  3096.20  3100.72  3102.71  3117.76  3120.43

   temp. (K)  partition function   enthalpy   heat capacity  entropy
                                   cal/mol     cal/K/mol   cal/K/mol   J/K/mol
 298.15  VIB  0.107E+28            33447.515    208.572    209.214
         ROT  0.376E+09              888.752      2.981     42.218
         INT  0.403E+36            34336.268    211.553    251.432
         TR   0.240E+29             1481.254      4.968     46.080
         TOT                       35817.5215   216.5210   297.5120  1244.7903

       T/K    H(0)-H(T)+PV         H(T)/Eh          T*S/Eh         G(T)/Eh
   ------------------------------------------------------------------------
    298.15    0.570789E-01    0.979262E+00    0.141358E+00    0.837905E+00
   ------------------------------------------------------------------------

         :::::::::::::::::::::::::::::::::::::::::::::::::::::
         ::                  THERMODYNAMIC                  ::
         :::::::::::::::::::::::::::::::::::::::::::::::::::::
         :: total free energy        -169.235103474597 Eh   ::
         ::.................................................::
         :: total energy             -170.073008223386 Eh   ::
         :: zero point energy           0.922183462108 Eh   ::
         :: G(RRHO) w/o ZPVE           -0.084278713319 Eh   ::
         :: G(RRHO) contrib.            0.837904748789 Eh   ::
         :::::::::::::::::::::::::::::::::::::::::::::::::::::

           -------------------------------------------------
          | TOTAL ENERGY             -170.073008223386 Eh   |
          | TOTAL ENTHALPY           -169.093745907605 Eh   |
          | TOTAL FREE ENERGY        -169.235103474597 Eh   |
          | GRADIENT NORM               0.000073822219 Eh/α |
          | HOMO-LUMO GAP               0.717696627415 eV   |
           -------------------------------------------------

 * finished run on 2025/08/22 at 16:25:02.227
