   * xtb version 6.7.1 (edcfbbe) compiled by 'albert@albert-system' on 2024-07-22

   ID    Z sym.   atoms
    1    6 C      1-20, 22-38, 41-47, 49-66
    2    7 N      21, 39, 40, 48
    3    1 H      67-116

          program call               : xtb data2507/toluene/DTPCZPYTZ/DTPCZPYTZ.xyz --gfn 2 --gbsa toluene --ohess vtight --parallel 40 --molden --ceasefiles --namespace data2507/toluene/DTPCZPYTZ/DTPCZPYTZ_toluene_S0_preOpt
      * Solvation model:               GBSA
        Solvent                        toluene
        Solvent mass                       9.2140E+01 g/mol
          :  Hamiltonian                  GFN2-xTB          :
 * total energy  :  -170.1116896 Eh     change       -0.9856137E-08 Eh
 * total energy  :  -170.1294897 Eh     change       -0.1780004E-01 Eh
 * total energy  :  -170.1341861 Eh     change       -0.4696410E-02 Eh
 * total energy  :  -170.1354251 Eh     change       -0.1238997E-02 Eh
 * total energy  :  -170.1363988 Eh     change       -0.9737240E-03 Eh
 * total energy  :  -170.1369233 Eh     change       -0.5244774E-03 Eh
 * total energy  :  -170.1373633 Eh     change       -0.4400010E-03 Eh
 * total energy  :  -170.1377901 Eh     change       -0.4267718E-03 Eh
 * total energy  :  -170.1382116 Eh     change       -0.4215679E-03 Eh
 * total energy  :  -170.1386753 Eh     change       -0.4636456E-03 Eh
 * total energy  :  -170.1403864 Eh     change       -0.6268905E-06 Eh
 * total energy  :  -170.1403870 Eh     change       -0.6157678E-06 Eh
 * total energy  :  -170.1403877 Eh     change       -0.6289820E-06 Eh
 * total energy  :  -170.1403883 Eh     change       -0.5870791E-06 Eh
 * total energy  :  -170.1403887 Eh     change       -0.4737410E-06 Eh
 * total energy  :  -170.1403891 Eh     change       -0.3469823E-06 Eh
 * total energy  :  -170.1403894 Eh     change       -0.2930916E-06 Eh
 * total energy  :  -170.1403896 Eh     change       -0.2558889E-06 Eh
 * total energy  :  -170.1403896 Eh     change       -0.3921627E-08 Eh
   *** GEOMETRY OPTIMIZATION CONVERGED AFTER 68 ITERATIONS ***

 final structure:
================
116
 xtb: 6.7.1 (edcfbbe)
C          -10.46811645506476       -4.59089028240588       -1.86790422692696
C          -10.58618177107255       -3.91217715688989       -0.49488971803922
C          -11.94225913972143       -3.20224802074863       -0.43269721063948
C          -10.55371866035949       -4.97404669304114        0.61452392950077
C           -9.41552214722023       -2.95612615150170       -0.30868774340484
C           -8.11073969950247       -3.46706063175615       -0.35415215692584
C           -6.98909211359751       -2.67674795893500       -0.20641909531617
C           -7.17133662347240       -1.31612391943729       -0.01119519191469
C           -8.47393527473210       -0.77924687260556        0.06553648378813
C           -9.58516993706173       -1.59923871512682       -0.08731361473840
C           -8.32019439757523        0.62678543967458        0.32032762090325
C           -9.22819878056356        1.66633602037728        0.47946595927617
C           -8.76927319834832        2.95473199669023        0.69940113523325
C           -9.70585164239017        4.13988589701923        0.89315977149293
C           -9.46034787014950        5.16661774388276       -0.22268023661186
C           -9.42922827096874        4.78235949820388        2.26087626415617
C          -11.18295334892419        3.73603939979969        0.85059717844725
C           -7.38493607905509        3.17339029306689        0.73498258532196
C           -6.46027694191842        2.16036441973424        0.58185069879433
C           -6.93222352636122        0.87059840485142        0.39063420834182
N           -6.24513239396031       -0.31073240960437        0.18827517862691
C           -4.85179032659573       -0.46346379697915        0.19172177755078
C           -4.09270533412195        0.04610683973944        1.24178216740575
C           -2.71880474265859       -0.09935872118127        1.23846399004626
C           -2.07837794201721       -0.76140806684140        0.19631883387089
C           -0.60699741877848       -0.93009481416452        0.20743694682445
C           -0.05465291451677       -2.04325199642779        0.82835731340938
C            1.31217593257757       -2.23652408435128        0.86153974516631
C            2.17691581278276       -1.31034908519040        0.27622982896741
C            3.59097104440556       -1.48413158254576        0.27809523487653
C            4.41483925582237       -0.56872685229867       -0.28264830723585
C            3.90459321233108        0.61516244792237       -0.89563556472950
C            4.74013542354651        1.58671932560900       -1.47631999502757
C            6.20776789433457        1.49180121063398       -1.40267339765258
C            6.85878961464830        1.39435767027528       -0.17414989682101
C            8.23489957802465        1.30786670314604       -0.10836545250392
C            8.99522882851770        1.31076396992063       -1.27650875058016
C           10.44344630197737        1.19808961714146       -1.24915478476856
N           11.26120291501695        1.85519684016154       -2.03035360653073
N           12.51532017803207        1.52035570429355       -1.70581273625586
C           12.47292862197511        0.65177053402859       -0.72808979647126
C           13.64304980890213        0.02637422795468       -0.13418922065125
C           14.81176449909972        0.77714394172760       -0.01189390101431
C           15.94764781320498        0.21111738721375        0.53471801180817
C           15.93306793955124       -1.10853043496859        0.95903554574696
C           14.78082830396707       -1.86487459592603        0.82077883131068
C           13.63988748727583       -1.30569859644073        0.27448382332721
N           11.16388955518149        0.40393927431076       -0.38739066456390
C           10.66541878627652       -0.45756621870295        0.60867415410984
C           11.09959250021913       -0.32239936467610        1.92281388549737
C           10.59985082227319       -1.16852654791800        2.89630519552595
C            9.66761598067169       -2.13903462831625        2.56642733468209
C            9.23592953403535       -2.26924217927026        1.25630954125811
C            9.73414223413006       -1.43430618331376        0.27259641617845
C            8.35132235891611        1.45073001361455       -2.50520544116350
C            6.97582355955382        1.54161050304729       -2.56477323935585
C            4.17540661760367        2.67720063523020       -2.13233124024411
C            2.80866261370887        2.84940124113606       -2.19341154120622
C            1.94753430744682        1.92445700009078       -1.60003021982987
C            0.53181250930907        2.08361229544532       -1.62873333192148
C           -0.29004341313621        1.17711001445603       -1.05166524876506
C            0.22970526883031        0.02100380237240       -0.39671481926532
C            1.63482160427446       -0.16539202939872       -0.35778010717090
C            2.49747860740259        0.79077427371695       -0.95158903797914
C           -2.84175721713015       -1.27658137473339       -0.84589453976753
C           -4.21502743829372       -1.12488982101344       -0.85494841203092
H           -9.55557062984680       -5.17563995735257       -1.94502802419111
H          -10.46039954944748       -3.84188292460095       -2.65770447330675
H          -11.31334382376965       -5.25664685837366       -2.03106426889978
H          -12.73892817381747       -3.92941198255111       -0.57846022413224
H          -12.09296042404932       -2.72989250744900        0.53547045432439
H          -12.02644085457561       -2.45044070108296       -1.21438835398497
H           -9.63692715779262       -5.55631839750896        0.58040391939751
H          -10.61885480890291       -4.49876483723936        1.59157818409589
H          -11.39453447848342       -5.65626007261712        0.50532911839060
H           -7.96212724585486       -4.52517382129706       -0.50866370931097
H           -6.00197396827969       -3.11403740293224       -0.23281828467872
H          -10.56497375137099       -1.15544659439000       -0.02601785461447
H          -10.28079525611475        1.44347951962314        0.42428383028713
H          -10.13428729678844        6.01336068972323       -0.10789838499743
H           -8.43968988041672        5.53894013480514       -0.20204624084211
H           -9.63757755047620        4.71337416978457       -1.19631384565489
H          -10.11245632522705        5.61224208786337        2.43032775477362
H           -9.57020260776227        4.05116561898364        3.05480319792781
H           -8.41283237950379        5.16120393703924        2.32419658967184
H          -11.44409267252117        3.30571800880192       -0.11366528522642
H          -11.41514154316756        3.02022910919426        1.63614572792500
H          -11.80400590545804        4.61667059994788        1.00376843006133
H           -7.01153937426890        4.17504392558790        0.88593064776387
H           -5.40201619436657        2.37522767697160        0.60164605148494
H           -4.58643866305592        0.54477311149091        2.06262310661580
H           -2.13263506595335        0.30000530530179        2.05370909918040
H           -0.71348423207420       -2.76652510735180        1.28843752649943
H            1.72305261404242       -3.11162502392520        1.34469186121811
H            3.99289223771782       -2.37665049214704        0.73705460607537
H            5.48273839217469       -0.72976531687620       -0.28627935890974
H            6.27940499838547        1.40403448193320        0.73765630992088
H            8.71929365883560        1.25388089990501        0.85585991742552
H           14.80783486594973        1.80166612370720       -0.35174063006925
H           16.84740406992150        0.80070458266707        0.63024894979359
H           16.82054737131520       -1.54864262549604        1.38890214273994
H           14.76920272710051       -2.89822079313833        1.13489569668021
H           12.75351820859330       -1.91095487951335        0.15129131996449
H           11.82287380780115        0.44091847800695        2.17086884379636
H           10.93837950876479       -1.06394286664682        3.91589212931064
H            9.27768865468844       -2.79394628366158        3.33050129289753
H            8.51140163092003       -3.02549830966203        0.99480238928791
H            9.40769289754553       -1.53098816703825       -0.75281432778569
H            8.94787324613606        1.47958454995269       -3.40439457687883
H            6.48392586075796        1.63175782257915       -3.52229851173896
H            4.82999467919598        3.41223453500008       -2.57896283854680
H            2.39366603366722        3.71098636245146       -2.69674016589830
H            0.12852395350327        2.95462709546563       -2.12609234911562
H           -1.36196191345585        1.30979538142654       -1.07820595472450
H           -2.35104837072257       -1.78878209941358       -1.66110687330742
H           -4.80028562610163       -1.50695298570123       -1.67813370411050

          :  Hamiltonian                  GFN2-xTB          :
         :: gradient norm              0.000046979363 Eh/a0 ::
         :: HOMO-LUMO gap              1.985557163693 eV    ::
         :: SCC energy              -173.242618760890 Eh    ::
         :: -> dispersion             -0.159491598956 Eh    ::
         :: -> Gsolv                  -0.070491919400 Eh    ::
         :: repulsion energy           3.102229132534 Eh    ::

    * Orbital Energies and Occupations

         #    Occupation            Energy/Eh            Energy/eV
      -------------------------------------------------------------
         1        2.0000           -0.7036509             -19.1473
       ...           ...                  ...                  ...
       147        2.0000           -0.4070333             -11.0759
       148        2.0000           -0.4066228             -11.0648
       149        2.0000           -0.4064449             -11.0599
       150        2.0000           -0.4047869             -11.0148
       151        2.0000           -0.4037622             -10.9869
       152        2.0000           -0.3996764             -10.8757
       153        2.0000           -0.3936575             -10.7120
       154        2.0000           -0.3935521             -10.7091
       155        2.0000           -0.3875551             -10.5459
       156        2.0000           -0.3702568             -10.0752
       157        2.0000           -0.3690357             -10.0420
       158        2.0000           -0.3640143              -9.9053
       159        2.0000           -0.3539720              -9.6321 (HOMO)
       160                         -0.2810041              -7.6465 (LUMO)
       161                         -0.2633728              -7.1667
       162                         -0.2476003              -6.7375
       163                         -0.2449969              -6.6667
       164                         -0.2437789              -6.6336
       165                         -0.2412571              -6.5649
       166                         -0.2399834              -6.5303
       167                         -0.2324978              -6.3266
       168                         -0.2317528              -6.3063
       169                         -0.2301772              -6.2634
       170                         -0.2301474              -6.2626
       ...                                ...                  ...
       314                          0.7445747              20.2609
      -------------------------------------------------------------
                  HL-Gap            0.0729679 Eh            1.9856 eV

     #   Z          covCN         q      C6AA      α(0)
     1   6 C        3.761    -0.104    22.536     6.767
     2   6 C        3.902     0.025    20.106     6.374
     3   6 C        3.761    -0.106    22.569     6.772
     4   6 C        3.761    -0.104    22.535     6.767
     5   6 C        2.972    -0.004    28.120     8.698
     6   6 C        2.931    -0.041    29.026     8.835
     7   6 C        2.908    -0.055    29.376     8.887
     8   6 C        3.080     0.044    26.932     8.508
     9   6 C        3.067    -0.022    28.491     8.753
    10   6 C        2.918    -0.046    29.140     8.852
    11   6 C        3.067    -0.022    28.491     8.753
    12   6 C        2.918    -0.046    29.139     8.852
    13   6 C        2.972    -0.004    28.120     8.698
    14   6 C        3.902     0.025    20.106     6.374
    15   6 C        3.761    -0.104    22.534     6.767
    16   6 C        3.761    -0.104    22.536     6.767
    17   6 C        3.761    -0.106    22.569     6.772
    18   6 C        2.931    -0.041    29.025     8.835
    19   6 C        2.908    -0.055    29.373     8.887
    20   6 C        3.080     0.044    26.933     8.508
    21   7 N        2.801    -0.052    22.241     7.004
    22   6 C        2.912     0.063    26.582     8.454
    23   6 C        2.921    -0.043    29.078     8.843
    24   6 C        2.924    -0.032    28.804     8.801
    25   6 C        2.977     0.010    27.782     8.646
    26   6 C        2.977     0.004    27.939     8.670
    27   6 C        2.919    -0.035    28.867     8.811
    28   6 C        2.918    -0.038    28.947     8.823
    29   6 C        2.982     0.009    27.821     8.652
    30   6 C        2.913    -0.037    28.926     8.819
    31   6 C        2.912    -0.037    28.923     8.819
    32   6 C        2.982     0.007    27.866     8.659
    33   6 C        2.976     0.002    27.987     8.678
    34   6 C        2.977     0.016    27.638     8.624
    35   6 C        2.923    -0.032    28.803     8.801
    36   6 C        2.921    -0.035    28.861     8.810
    37   6 C        2.974    -0.007    28.191     8.709
    38   6 C        3.129     0.138    24.808     8.155
    39   7 N        2.063    -0.221    26.539     7.642
    40   7 N        2.065    -0.221    26.528     7.640
    41   6 C        3.127     0.137    24.832     8.159
    42   6 C        2.974    -0.004    28.125     8.699
    43   6 C        2.927    -0.029    28.733     8.791
    44   6 C        2.918    -0.027    28.666     8.780
    45   6 C        2.919    -0.028    28.690     8.784
    46   6 C        2.919    -0.029    28.717     8.788
    47   6 C        2.922    -0.034    28.842     8.807
    48   7 N        2.829    -0.062    22.445     7.036
    49   6 C        2.912     0.063    26.585     8.455
    50   6 C        2.921    -0.038    28.956     8.824
    51   6 C        2.920    -0.025    28.627     8.774
    52   6 C        2.919    -0.028    28.703     8.786
    53   6 C        2.920    -0.025    28.627     8.774
    54   6 C        2.921    -0.039    28.959     8.825
    55   6 C        2.924    -0.030    28.747     8.793
    56   6 C        2.923    -0.032    28.792     8.799
    57   6 C        2.920    -0.035    28.873     8.812
    58   6 C        2.918    -0.038    28.942     8.822
    59   6 C        2.982     0.010    27.796     8.648
    60   6 C        2.913    -0.037    28.912     8.817
    61   6 C        2.913    -0.035    28.870     8.811
    62   6 C        2.984     0.006    27.875     8.661
    63   6 C        2.995     0.002    27.971     8.676
    64   6 C        2.995     0.002    27.966     8.675
    65   6 C        2.924    -0.032    28.803     8.801
    66   6 C        2.921    -0.043    29.079     8.843
    67   1 H        0.925     0.035     2.513     2.479
    68   1 H        0.925     0.032     2.564     2.504
    69   1 H        0.925     0.037     2.491     2.468
    70   1 H        0.925     0.036     2.505     2.475
    71   1 H        0.925     0.035     2.517     2.481
    72   1 H        0.925     0.035     2.516     2.481
    73   1 H        0.925     0.035     2.516     2.481
    74   1 H        0.925     0.032     2.564     2.504
    75   1 H        0.925     0.037     2.489     2.467
    76   1 H        0.926     0.028     2.615     2.529
    77   1 H        0.926     0.024     2.668     2.554
    78   1 H        0.926     0.036     2.506     2.475
    79   1 H        0.926     0.036     2.505     2.475
    80   1 H        0.925     0.037     2.488     2.467
    81   1 H        0.925     0.035     2.516     2.481
    82   1 H        0.925     0.032     2.564     2.504
    83   1 H        0.925     0.037     2.491     2.468
    84   1 H        0.925     0.032     2.564     2.504
    85   1 H        0.925     0.035     2.513     2.479
    86   1 H        0.925     0.035     2.517     2.481
    87   1 H        0.925     0.035     2.516     2.481
    88   1 H        0.925     0.036     2.506     2.475
    89   1 H        0.926     0.028     2.614     2.528
    90   1 H        0.926     0.024     2.672     2.556
    91   1 H        0.926     0.041     2.437     2.441
    92   1 H        0.926     0.037     2.494     2.470
    93   1 H        0.926     0.031     2.566     2.505
    94   1 H        0.926     0.035     2.514     2.480
    95   1 H        0.926     0.034     2.535     2.490
    96   1 H        0.926     0.033     2.541     2.493
    97   1 H        0.926     0.041     2.436     2.441
    98   1 H        0.926     0.027     2.634     2.538
    99   1 H        0.926     0.045     2.387     2.416
   100   1 H        0.926     0.043     2.409     2.427
   101   1 H        0.926     0.043     2.408     2.427
   102   1 H        0.926     0.040     2.442     2.444
   103   1 H        0.926     0.027     2.631     2.537
   104   1 H        0.926     0.037     2.493     2.469
   105   1 H        0.926     0.049     2.329     2.386
   106   1 H        0.926     0.051     2.311     2.377
   107   1 H        0.926     0.049     2.328     2.386
   108   1 H        0.926     0.036     2.499     2.472
   109   1 H        0.926     0.044     2.397     2.421
   110   1 H        0.926     0.043     2.414     2.430
   111   1 H        0.926     0.034     2.533     2.489
   112   1 H        0.926     0.035     2.510     2.477
   113   1 H        0.926     0.034     2.537     2.491
   114   1 H        0.926     0.032     2.564     2.504
   115   1 H        0.926     0.037     2.493     2.469
   116   1 H        0.926     0.041     2.436     2.441

molecular dipole:
                 x           y           z       tot (Debye)
 q only:       -0.645      -1.268       1.424
   full:       -0.713      -1.609       1.815       6.425

 projected vibrational frequencies (cm⁻¹)
eigval :       -0.00    -0.00    -0.00     0.00     0.00     0.00
eigval :       -5.54     6.33     6.71    11.19    12.84    22.43
eigval :       27.59    29.01    30.68    32.77    38.25    44.82
eigval :       47.52    50.45    51.71    66.52    69.05    72.53
eigval :       81.30    87.23    94.82   104.60   111.28   115.56
eigval :      122.57   130.98   140.09   154.67   163.35   165.29
eigval :      176.78   182.42   191.63   201.90   202.53   215.65
eigval :      222.68   228.83   230.59   232.49   238.92   248.03
eigval :      254.34   258.53   273.81   278.36   288.76   298.04
eigval :      306.17   314.53   318.94   321.21   337.93   338.92
eigval :      346.64   358.03   359.66   366.90   369.87   376.23
eigval :      377.33   380.47   385.28   394.27   397.82   402.08
eigval :      407.28   410.96   411.38   414.21   439.52   442.04
eigval :      444.30   455.26   461.42   465.01   470.75   475.56
eigval :      477.98   481.36   490.36   496.79   508.18   514.44
eigval :      519.67   539.33   544.76   555.98   571.78   578.45
eigval :      583.37   586.06   586.55   593.25   597.05   604.91
eigval :      610.20   628.93   638.93   639.62   646.59   652.34
eigval :      657.75   662.02   672.09   678.54   683.36   687.76
eigval :      689.15   691.39   694.70   696.67   707.56   708.33
eigval :      711.28   720.01   730.95   744.43   751.86   758.32
eigval :      762.87   768.04   801.98   813.04   816.64   817.21
eigval :      821.75   825.88   826.67   830.43   846.33   852.16
eigval :      867.68   872.39   872.43   872.78   873.65   874.99
eigval :      879.50   881.81   900.27   902.65   911.04   913.34
eigval :      913.53   913.94   918.01   922.86   923.32   923.53
eigval :      925.55   926.55   926.67   927.55   930.77   934.65
eigval :      935.04   935.54   942.44   950.29   958.38   958.93
eigval :      960.64   961.15   961.98   962.36   962.74   977.98
eigval :      995.61  1001.59  1015.04  1029.99  1034.51  1034.61
eigval :     1034.94  1037.26  1040.56  1048.48  1077.44  1080.37
eigval :     1107.78  1109.34  1114.90  1115.64  1119.42  1125.26
eigval :     1127.59  1132.92  1136.63  1140.91  1150.16  1165.10
eigval :     1166.01  1176.27  1177.37  1178.52  1182.30  1184.94
eigval :     1187.59  1189.93  1195.87  1196.75  1200.99  1209.30
eigval :     1212.32  1225.44  1225.55  1229.22  1230.40  1233.96
eigval :     1236.74  1242.50  1246.75  1259.00  1265.83  1267.94
eigval :     1274.23  1278.13  1283.95  1285.67  1291.22  1303.03
eigval :     1303.80  1305.52  1308.74  1309.85  1311.87  1313.30
eigval :     1315.91  1318.28  1324.54  1345.50  1357.90  1363.87
eigval :     1374.50  1379.92  1383.07  1384.66  1398.03  1401.04
eigval :     1401.94  1402.18  1402.20  1402.60  1406.06  1413.59
eigval :     1418.91  1425.92  1426.11  1428.07  1432.78  1441.23
eigval :     1449.04  1451.19  1464.98  1478.33  1481.49  1484.13
eigval :     1485.11  1489.39  1489.66  1492.57  1492.76  1498.16
eigval :     1499.02  1499.62  1502.96  1503.79  1508.68  1510.86
eigval :     1511.27  1517.72  1518.59  1529.51  1532.30  1534.78
eigval :     1558.18  1558.58  1561.98  1565.51  1569.79  1579.90
eigval :     1580.88  1583.15  1591.77  1594.18  1595.91  1598.06
eigval :     1603.25  1603.37  1606.54  1616.39  3017.04  3017.50
eigval :     3018.56  3018.88  3022.14  3022.30  3023.48  3023.95
eigval :     3026.07  3026.22  3029.35  3029.67  3034.28  3034.62
eigval :     3043.69  3043.93  3047.20  3047.24  3065.46  3066.98
eigval :     3067.29  3069.61  3073.20  3074.47  3074.70  3074.89
eigval :     3075.57  3077.49  3078.43  3078.47  3080.22  3081.13
eigval :     3081.36  3082.07  3084.35  3084.59  3086.72  3087.67
eigval :     3087.90  3088.51  3088.96  3090.28  3092.60  3092.85
eigval :     3094.35  3097.03  3099.87  3103.18  3112.06  3114.70

   temp. (K)  partition function   enthalpy   heat capacity  entropy
                                   cal/mol     cal/K/mol   cal/K/mol   J/K/mol
 298.15  VIB  0.587E+28            33473.508    206.971    210.828
         ROT  0.366E+09              888.752      2.981     42.167
         INT  0.215E+37            34362.260    209.951    252.994
         TR   0.240E+29             1481.254      4.968     46.080
         TOT                       35843.5144   214.9196   299.0744  1251.3272

       T/K    H(0)-H(T)+PV         H(T)/Eh          T*S/Eh         G(T)/Eh
   ------------------------------------------------------------------------
    298.15    0.571203E-01    0.981753E+00    0.142100E+00    0.839653E+00
   ------------------------------------------------------------------------

         :::::::::::::::::::::::::::::::::::::::::::::::::::::
         ::                  THERMODYNAMIC                  ::
         :::::::::::::::::::::::::::::::::::::::::::::::::::::
         :: total free energy        -169.300736138105 Eh   ::
         ::.................................................::
         :: total energy             -170.140389624226 Eh   ::
         :: zero point energy           0.924633093146 Eh   ::
         :: G(RRHO) w/o ZPVE           -0.084979607024 Eh   ::
         :: G(RRHO) contrib.            0.839653486122 Eh   ::
         :::::::::::::::::::::::::::::::::::::::::::::::::::::

           -------------------------------------------------
          | TOTAL ENERGY             -170.140389624226 Eh   |
          | TOTAL ENTHALPY           -169.158636255011 Eh   |
          | TOTAL FREE ENERGY        -169.300736138105 Eh   |
          | GRADIENT NORM               0.000046979011 Eh/α |
          | HOMO-LUMO GAP               1.985557228357 eV   |
           -------------------------------------------------

 * finished run on 2025/08/22 at 15:59:11.166
