   * xtb version 6.7.1 (edcfbbe) compiled by 'albert@albert-system' on 2024-07-22

   ID    Z sym.   atoms
    1    6 C      1-20, 22-38, 41-47, 49-66
    2    7 N      21, 39, 40, 48
    3    1 H      67-116

          program call               : xtb data2507/toluene/DTPCZPYTZ/DTPCZPYTZ_toluene_S0_finalOpt.xtbopt.xyz --gfn 2 --uhf 2 --gbsa toluene --ohess vtight --parallel 40 --molden --ceasefiles --namespace data2507/toluene/DTPCZPYTZ/DTPCZPYTZ_toluene_T1_preOpt
      * Solvation model:               GBSA
        Solvent                        toluene
        Solvent mass                       9.2140E+01 g/mol
          :  Hamiltonian                  GFN2-xTB          :
 * total energy  :  -170.0638119 Eh     change       -0.8461370E-08 Eh
 * total energy  :  -170.0693390 Eh     change       -0.5527133E-02 Eh
 * total energy  :  -170.0710768 Eh     change       -0.1737759E-02 Eh
 * total energy  :  -170.0713793 Eh     change       -0.3025664E-03 Eh
 * total energy  :  -170.0718315 Eh     change       -0.4521853E-03 Eh
 * total energy  :  -170.0720354 Eh     change       -0.2039238E-03 Eh
 * total energy  :  -170.0721484 Eh     change       -0.1129836E-03 Eh
 * total energy  :  -170.0722027 Eh     change       -0.5431368E-04 Eh
 * total energy  :  -170.0722498 Eh     change       -0.4711471E-04 Eh
 * total energy  :  -170.0723044 Eh     change       -0.5459413E-04 Eh
 * total energy  :  -170.0730384 Eh     change       -0.4984854E-06 Eh
 * total energy  :  -170.0730390 Eh     change       -0.5679686E-06 Eh
 * total energy  :  -170.0730396 Eh     change       -0.5826326E-06 Eh
 * total energy  :  -170.0730400 Eh     change       -0.4501808E-06 Eh
 * total energy  :  -170.0730404 Eh     change       -0.3335417E-06 Eh
 * total energy  :  -170.0730406 Eh     change       -0.2832571E-06 Eh
 * total energy  :  -170.0730408 Eh     change       -0.2116502E-06 Eh
 * total energy  :  -170.0730410 Eh     change       -0.1370720E-06 Eh
 * total energy  :  -170.0730411 Eh     change       -0.8766105E-07 Eh
   *** GEOMETRY OPTIMIZATION CONVERGED AFTER 150 ITERATIONS ***

 final structure:
================
116
 xtb: 6.7.1 (edcfbbe)
C          -11.28481915002003       -5.11063617119322       -1.14043337002552
C          -11.54882733428958       -4.10231658015642       -0.01174417484886
C          -12.90757367861246       -3.44383933479104       -0.27050937723215
C          -11.62529232988179       -4.83707615440580        1.33505517746195
C          -10.40867995782270       -3.09486232893892        0.03010900869488
C           -9.10679467142317       -3.55355492947010        0.27271936555359
C           -8.01198858110403       -2.71415277261608        0.32536393157054
C           -8.22272659707510       -1.35601394570087        0.13831912994566
C           -9.51987146539347       -0.87078336015719       -0.13260384162430
C          -10.60237802915974       -1.73734477235220       -0.18120123739128
C           -9.39076375488857        0.54907455171807       -0.33109912193176
C          -10.31046676548095        1.55480286730232       -0.59181943282425
C           -9.88143064556486        2.86977301108494       -0.70147795134564
C          -10.83427480010265        4.02277679367583       -0.98405588627723
C          -10.41062270237800        4.72184147321061       -2.28471687942423
C          -10.77809219900507        5.01967335407334        0.18357088023797
C          -12.28620738878048        3.56163154054905       -1.14499686566889
C           -8.51769610762610        3.14348452120299       -0.52957955232340
C           -7.58172570688915        2.16291244308886       -0.26845183054949
C           -8.01971019140295        0.84947755600705       -0.18554015623769
N           -7.32081768431479       -0.30870195260233        0.10169914806218
C           -5.94700946960379       -0.39946974959036        0.32220121364110
C           -5.44692146572093       -1.10567936546783        1.41944156793859
C           -4.09188150921894       -1.18478240532369        1.63764341404354
C           -3.17368573491547       -0.54964639241498        0.78370650674890
C           -1.75054698343695       -0.65322028826693        1.01546301879370
C           -1.21311299098889       -1.88384599921163        1.42913679966986
C            0.13317972046168       -2.09209715241511        1.51610240843717
C            1.05634346699233       -1.05147886709001        1.20138091754080
C            2.43563954084766       -1.23801415636525        1.28382215582728
C            3.31695868683913       -0.21605867209926        0.97144632615519
C            2.85675369268199        1.04050614801302        0.56240522181319
C            3.75203442881478        2.11649446461624        0.22240775375336
C            5.17061257953606        1.90556226354417        0.02878772101043
C            6.10946734223702        2.84707693497743        0.48482216695751
C            7.45834431532209        2.64592506677655        0.31774402258314
C            7.93558989166620        1.49551796172363       -0.32000997951294
C            9.36314705345226        1.30633872505993       -0.44852742231246
N           10.23350843155590        2.27193125465187       -0.62005046759602
N           11.45082443512600        1.73017751609324       -0.72731465476907
C           11.33952993790099        0.43079867590648       -0.61602252125212
C           12.46090065098280       -0.49318736147908       -0.64206001443467
C           12.51053591840466       -1.61695042941215        0.18063203970939
C           13.60574743094753       -2.46015180795539        0.13605872813019
C           14.66083675951976       -2.19175989275580       -0.72053195579588
C           14.62539205667566       -1.06481668001818       -1.52706267780979
C           13.53481908977137       -0.21731558380656       -1.48793828984015
N           10.01792449650871        0.09393705256874       -0.43544568363480
C            9.46143812995394       -1.18652247025991       -0.26041233647145
C            8.66790292006467       -1.44792925415763        0.85202839510166
C            8.11323337650538       -2.70412299969862        1.01513279325391
C            8.35296357964834       -3.69955306681967        0.08145140140135
C            9.14965708854812       -3.43802211301766       -1.02147158089766
C            9.70383493918129       -2.18324348699831       -1.19955860709331
C            7.00870517228412        0.58514284360375       -0.83834406023326
C            5.65979409301747        0.78541652477390       -0.66362806691298
C            3.21984194780014        3.40294404863429        0.03805544066088
C            1.87572560080447        3.64139754662292        0.07527684834340
C            0.95158584878804        2.58303724125094        0.31773951474292
C           -0.42458494204746        2.80120234189442        0.36684948767412
C           -1.30774411454483        1.75938414818598        0.59892009475579
C           -0.85218003296755        0.45043051839715        0.78883424236312
C            0.55048288568516        0.22436619750845        0.84042601059088
C            1.45524910483151        1.27937395183532        0.56369904705033
C           -3.69280924946720        0.13951961779086       -0.32622080386961
C           -5.04636030100612        0.21272291257095       -0.55407177651990
H          -10.36558906537532       -5.66491231187091       -0.97172662263507
H          -11.20034685706736       -4.59337999968082       -2.09441404087736
H          -12.10470703636021       -5.82308775006607       -1.20505485840949
H          -13.68354378754988       -4.20688546103935       -0.27913021027735
H          -13.15064805303955       -2.72731071272426        0.51099498282016
H          -12.92229002959260       -2.94113251573135       -1.23498179002479
H          -11.78947642687456       -4.12631030304904        2.14283210487950
H          -12.45002210920264       -5.54683959279277        1.32715628917605
H          -10.70977101360369       -5.38382097671739        1.54324558471071
H           -8.93712440414868       -4.60917712480727        0.41989680917313
H           -7.02294524278549       -3.11327819179296        0.49216041919126
H          -11.57832058233558       -1.33333157123383       -0.39150801201082
H          -11.34938604175580        1.29051602613413       -0.69570934408528
H          -11.08982443327900        5.54257144330233       -2.50614789432805
H           -9.40426239191774        5.12463876382705       -2.21069894068854
H          -10.43682556181618        4.01899932756663       -3.11533415701275
H          -11.47584631946426        5.83664882379004        0.01119962511940
H          -11.04888653281691        4.52494499889248        1.11449593024352
H           -9.78358824441721        5.44160646827860        0.29939490269147
H          -12.38630066212200        2.86386944202898       -1.97338811592630
H          -12.65149439752906        3.09191025635460       -0.23443648964663
H          -12.91772553297274        4.42296244646778       -1.35402670565927
H           -8.17081720132859        4.16338620493368       -0.59502235258614
H           -6.54425315840583        2.42148835262485       -0.12012201870274
H           -6.13620584752075       -1.56057129736232        2.11525642504516
H           -3.72766265151490       -1.70068006849150        2.51343569143978
H           -1.88967390174222       -2.70451513744147        1.62093722538554
H            0.52409477218529       -3.05754342050932        1.80226099770997
H            2.81945286516373       -2.19705089480027        1.60202330393280
H            4.37759035857118       -0.38794338174767        1.07397407498691
H            5.76559441218525        3.72202866999444        1.01622280338133
H            8.17523723226424        3.36207220476514        0.69043768055031
H           11.70290500564708       -1.82380880419032        0.86780741617500
H           13.63556541603024       -3.32853016823109        0.77774259443537
H           15.51255070852436       -2.85479843510488       -0.75350668566940
H           15.45023844178760       -0.84618155782411       -2.18905244022169
H           13.49379994888936        0.66687094264293       -2.10580164257948
H            8.48999342788529       -0.66601789613217        1.57627268059205
H            7.49529462663542       -2.90437407131336        1.87738846748288
H            7.91947273604207       -4.67905510690526        0.21376097988179
H            9.33872366220838       -4.21083854659749       -1.75107217285105
H           10.32217760676103       -1.96840650511776       -2.05910050475217
H            7.34868535210224       -0.27082208588527       -1.40360945401275
H            4.95946373525954        0.09273787927030       -1.10706309134023
H            3.89686009904945        4.21170708773521       -0.19787376222270
H            1.48811151936665        4.63411561864257       -0.10096604364357
H           -0.80402127464370        3.80330660192062        0.22521028670645
H           -2.36374598148966        1.97187510219862        0.66371856000452
H           -3.01083008864894        0.57204544544948       -1.04298552764418
H           -5.42243464660031        0.71553266263222       -1.43279878304261

          :  Hamiltonian                  GFN2-xTB          :
         :: gradient norm              0.000048915170 Eh/a0 ::
         :: HOMO-LUMO gap              0.729791819853 eV    ::
         :: SCC energy              -173.157332893302 Eh    ::
         :: -> dispersion             -0.159640348245 Eh    ::
         :: -> Gsolv                  -0.070704428219 Eh    ::
         :: repulsion energy           3.084291801280 Eh    ::

    * Orbital Energies and Occupations

         #    Occupation            Energy/Eh            Energy/eV
      -------------------------------------------------------------
         1        2.0000           -0.6996976             -19.0397
       ...           ...                  ...                  ...
       148        2.0000           -0.4057154             -11.0401
       149        2.0000           -0.4037688             -10.9871
       150        2.0000           -0.4033479             -10.9757
       151        2.0000           -0.3996548             -10.8752
       152        2.0000           -0.3992688             -10.8647
       153        2.0000           -0.3969667             -10.8020
       154        2.0000           -0.3916807             -10.6582
       155        2.0000           -0.3828410             -10.4176
       156        2.0000           -0.3768982             -10.2559
       157        2.0000           -0.3659923              -9.9592
       158        1.9988           -0.3622589              -9.8576
       159        1.0012           -0.3495303              -9.5112
       160        1.0000           -0.2886577              -7.8548 (HOMO)
       161        0.0000           -0.2618380              -7.1250 (LUMO)
       162                         -0.2476097              -6.7378
       163                         -0.2441098              -6.6426
       164                         -0.2431789              -6.6172
       165                         -0.2417695              -6.5789
       166                         -0.2397239              -6.5232
       167                         -0.2308885              -6.2828
       168                         -0.2296577              -6.2493
       169                         -0.2273389              -6.1862
       170                         -0.2256450              -6.1401
       171                         -0.2235932              -6.0843
       ...                                ...                  ...
       314                          0.7378169              20.0770
      -------------------------------------------------------------
                  HL-Gap            0.0268196 Eh            0.7298 eV

     #   Z          covCN         q      C6AA      α(0)
     1   6 C        3.761    -0.105    22.552     6.770
     2   6 C        3.902     0.025    20.092     6.371
     3   6 C        3.761    -0.107    22.597     6.776
     4   6 C        3.761    -0.105    22.555     6.770
     5   6 C        2.972     0.002    27.981     8.677
     6   6 C        2.930    -0.039    28.980     8.829
     7   6 C        2.908    -0.051    29.263     8.870
     8   6 C        3.076     0.043    26.956     8.512
     9   6 C        3.065    -0.018    28.393     8.738
    10   6 C        2.917    -0.043    29.073     8.842
    11   6 C        3.065    -0.018    28.394     8.738
    12   6 C        2.917    -0.043    29.073     8.842
    13   6 C        2.972     0.002    27.981     8.677
    14   6 C        3.902     0.025    20.092     6.371
    15   6 C        3.761    -0.105    22.554     6.770
    16   6 C        3.761    -0.105    22.553     6.770
    17   6 C        3.761    -0.107    22.597     6.776
    18   6 C        2.930    -0.039    28.979     8.828
    19   6 C        2.908    -0.051    29.259     8.870
    20   6 C        3.077     0.043    26.955     8.512
    21   7 N        2.800    -0.032    21.866     6.945
    22   6 C        2.912     0.060    26.659     8.467
    23   6 C        2.917    -0.043    29.058     8.840
    24   6 C        2.923    -0.035    28.862     8.810
    25   6 C        2.973     0.012    27.744     8.640
    26   6 C        2.972    -0.005    28.136     8.701
    27   6 C        2.914    -0.035    28.872     8.811
    28   6 C        2.913    -0.044    29.096     8.845
    29   6 C        2.979     0.008    27.824     8.653
    30   6 C        2.916    -0.043    29.062     8.840
    31   6 C        2.916    -0.040    28.991     8.829
    32   6 C        2.976     0.004    27.925     8.668
    33   6 C        2.972    -0.004    28.110     8.697
    34   6 C        2.974     0.012    27.742     8.640
    35   6 C        2.922    -0.035    28.883     8.813
    36   6 C        2.922    -0.032    28.795     8.800
    37   6 C        2.973    -0.013    28.326     8.730
    38   6 C        3.122     0.139    24.801     8.156
    39   7 N        2.062    -0.225    26.636     7.656
    40   7 N        2.062    -0.221    26.549     7.643
    41   6 C        3.123     0.138    24.833     8.161
    42   6 C        2.974    -0.005    28.134     8.700
    43   6 C        2.922    -0.034    28.848     8.808
    44   6 C        2.919    -0.029    28.724     8.789
    45   6 C        2.919    -0.028    28.706     8.786
    46   6 C        2.918    -0.027    28.674     8.781
    47   6 C        2.927    -0.030    28.743     8.792
    48   7 N        2.828    -0.066    22.512     7.047
    49   6 C        2.912     0.064    26.563     8.451
    50   6 C        2.921    -0.038    28.955     8.824
    51   6 C        2.920    -0.025    28.637     8.775
    52   6 C        2.919    -0.029    28.723     8.789
    53   6 C        2.920    -0.025    28.640     8.776
    54   6 C        2.921    -0.039    28.971     8.827
    55   6 C        2.918    -0.037    28.918     8.818
    56   6 C        2.922    -0.035    28.875     8.812
    57   6 C        2.914    -0.035    28.867     8.810
    58   6 C        2.913    -0.042    29.043     8.837
    59   6 C        2.979     0.007    27.860     8.658
    60   6 C        2.916    -0.040    29.004     8.831
    61   6 C        2.916    -0.042    29.035     8.836
    62   6 C        2.976     0.006    27.882     8.661
    63   6 C        2.994     0.001    28.001     8.680
    64   6 C        2.994     0.001    28.004     8.681
    65   6 C        2.922    -0.033    28.817     8.803
    66   6 C        2.918    -0.043    29.073     8.842
    67   1 H        0.925     0.036     2.499     2.472
    68   1 H        0.925     0.033     2.548     2.496
    69   1 H        0.925     0.039     2.466     2.456
    70   1 H        0.925     0.037     2.487     2.466
    71   1 H        0.925     0.036     2.497     2.471
    72   1 H        0.925     0.036     2.498     2.472
    73   1 H        0.925     0.033     2.544     2.494
    74   1 H        0.925     0.038     2.470     2.458
    75   1 H        0.925     0.036     2.496     2.471
    76   1 H        0.926     0.034     2.535     2.490
    77   1 H        0.926     0.031     2.569     2.507
    78   1 H        0.926     0.042     2.419     2.432
    79   1 H        0.926     0.042     2.418     2.432
    80   1 H        0.925     0.038     2.469     2.457
    81   1 H        0.925     0.036     2.498     2.471
    82   1 H        0.925     0.033     2.544     2.494
    83   1 H        0.925     0.039     2.467     2.456
    84   1 H        0.925     0.033     2.548     2.496
    85   1 H        0.925     0.036     2.499     2.472
    86   1 H        0.925     0.036     2.497     2.471
    87   1 H        0.925     0.036     2.498     2.472
    88   1 H        0.925     0.037     2.487     2.466
    89   1 H        0.926     0.034     2.536     2.490
    90   1 H        0.926     0.031     2.574     2.509
    91   1 H        0.926     0.043     2.411     2.428
    92   1 H        0.926     0.041     2.431     2.438
    93   1 H        0.926     0.033     2.550     2.497
    94   1 H        0.926     0.029     2.593     2.518
    95   1 H        0.926     0.029     2.601     2.522
    96   1 H        0.926     0.031     2.567     2.506
    97   1 H        0.926     0.039     2.462     2.454
    98   1 H        0.926     0.040     2.442     2.444
    99   1 H        0.926     0.026     2.649     2.545
   100   1 H        0.926     0.040     2.452     2.449
   101   1 H        0.926     0.043     2.415     2.430
   102   1 H        0.926     0.042     2.417     2.431
   103   1 H        0.926     0.044     2.402     2.424
   104   1 H        0.926     0.035     2.513     2.479
   105   1 H        0.926     0.048     2.345     2.395
   106   1 H        0.926     0.050     2.324     2.384
   107   1 H        0.926     0.048     2.341     2.392
   108   1 H        0.926     0.036     2.508     2.476
   109   1 H        0.926     0.022     2.706     2.573
   110   1 H        0.926     0.038     2.478     2.462
   111   1 H        0.926     0.032     2.563     2.504
   112   1 H        0.926     0.031     2.572     2.508
   113   1 H        0.926     0.030     2.583     2.514
   114   1 H        0.926     0.035     2.520     2.482
   115   1 H        0.926     0.043     2.411     2.428
   116   1 H        0.926     0.042     2.418     2.432

molecular dipole:
                 x           y           z       tot (Debye)
 q only:       -3.804      -2.045       0.182
   full:       -3.843      -2.551       0.251      11.741

 projected vibrational frequencies (cm⁻¹)
eigval :       -0.00    -0.00     0.00     0.00     0.00     0.00
eigval :        6.53     7.65    13.10    16.72    17.92    25.23
eigval :       28.90    35.44    36.25    38.70    44.11    47.73
eigval :       51.85    54.39    62.20    68.22    74.14    81.90
eigval :       85.69    94.98   106.29   113.22   114.23   122.97
eigval :      131.31   134.57   147.89   156.70   166.13   172.71
eigval :      182.76   186.55   195.19   204.47   204.83   225.36
eigval :      227.81   231.22   234.17   242.19   245.68   248.97
eigval :      256.16   258.95   273.90   278.24   289.17   302.50
eigval :      307.39   317.06   320.23   323.55   327.92   338.52
eigval :      345.26   358.45   359.62   365.66   372.86   374.02
eigval :      378.02   385.71   389.47   391.68   400.06   401.30
eigval :      404.44   409.23   410.13   414.32   430.14   440.73
eigval :      442.76   444.74   460.30   462.76   466.07   473.16
eigval :      480.67   482.34   490.65   493.36   497.82   509.68
eigval :      517.85   532.77   535.82   551.63   570.48   574.22
eigval :      582.17   584.63   585.82   592.10   595.39   603.95
eigval :      608.64   615.63   624.77   630.53   640.94   643.11
eigval :      658.27   662.64   667.87   671.93   677.06   682.85
eigval :      688.08   689.59   690.67   693.38   704.45   705.71
eigval :      707.69   718.77   727.29   740.92   746.72   748.36
eigval :      761.17   767.32   774.17   788.20   807.14   813.22
eigval :      818.35   821.36   823.82   826.91   830.02   832.66
eigval :      863.11   864.13   871.19   872.20   872.65   874.39
eigval :      877.11   878.57   892.66   895.89   898.84   901.57
eigval :      906.72   907.52   913.05   915.87   919.93   921.50
eigval :      924.64   925.45   927.01   928.92   930.83   933.55
eigval :      937.38   940.03   943.82   949.74   956.71   959.39
eigval :      959.83   961.45   962.90   963.07   965.09   973.89
eigval :      986.77   997.62  1008.24  1028.22  1029.38  1034.79
eigval :     1035.14  1036.99  1038.34  1040.47  1077.97  1080.73
eigval :     1103.51  1105.43  1111.95  1116.44  1118.58  1127.13
eigval :     1129.46  1136.61  1139.71  1139.94  1150.32  1156.40
eigval :     1162.40  1170.87  1175.94  1177.20  1177.36  1180.02
eigval :     1184.87  1190.22  1196.50  1197.26  1206.91  1212.00
eigval :     1213.83  1224.81  1224.93  1228.91  1229.45  1230.64
eigval :     1232.79  1236.08  1240.48  1255.77  1264.79  1266.91
eigval :     1274.91  1275.63  1278.83  1280.20  1282.52  1298.52
eigval :     1300.63  1302.52  1310.17  1312.10  1313.86  1317.96
eigval :     1318.63  1325.93  1329.16  1339.26  1344.02  1345.21
eigval :     1348.75  1373.25  1373.64  1383.22  1384.42  1387.84
eigval :     1399.73  1402.29  1403.37  1405.48  1408.24  1410.63
eigval :     1415.27  1419.54  1426.83  1427.41  1428.99  1432.00
eigval :     1433.56  1440.62  1452.39  1455.89  1468.22  1471.16
eigval :     1476.11  1478.74  1479.52  1490.08  1491.01  1492.14
eigval :     1493.11  1498.57  1499.24  1500.01  1503.38  1505.75
eigval :     1507.13  1511.60  1512.84  1513.12  1516.67  1516.96
eigval :     1517.29  1518.35  1519.08  1524.21  1528.87  1553.77
eigval :     1565.32  1573.12  1576.00  1578.93  1579.72  1582.12
eigval :     1591.20  1591.40  1595.30  1605.75  3019.36  3020.49
eigval :     3020.66  3021.03  3023.58  3024.01  3025.33  3025.56
eigval :     3027.63  3028.12  3030.31  3030.98  3035.40  3036.09
eigval :     3044.35  3044.36  3047.70  3047.79  3066.76  3067.28
eigval :     3069.21  3069.37  3071.59  3074.03  3078.33  3080.05
eigval :     3080.11  3080.49  3080.93  3081.54  3081.78  3082.18
eigval :     3082.63  3083.87  3084.40  3084.71  3087.55  3091.06
eigval :     3091.70  3092.05  3092.26  3092.95  3093.66  3094.74
eigval :     3094.86  3095.70  3099.13  3101.90  3117.35  3120.26

   temp. (K)  partition function   enthalpy   heat capacity  entropy
                                   cal/mol     cal/K/mol   cal/K/mol   J/K/mol
 298.15  VIB  0.163E+27            33331.470    208.879    207.379
         ROT  0.375E+09              888.752      2.981     42.213
         INT  0.611E+35            34220.222    211.860    249.592
         TR   0.240E+29             1481.254      4.968     46.080
         TOT                       35701.4758   216.8281   295.6717  1237.0903

       T/K    H(0)-H(T)+PV         H(T)/Eh          T*S/Eh         G(T)/Eh
   ------------------------------------------------------------------------
    298.15    0.568939E-01    0.979463E+00    0.140483E+00    0.838980E+00
   ------------------------------------------------------------------------

         :::::::::::::::::::::::::::::::::::::::::::::::::::::
         ::                  THERMODYNAMIC                  ::
         :::::::::::::::::::::::::::::::::::::::::::::::::::::
         :: total free energy        -169.234061464677 Eh   ::
         ::.................................................::
         :: total energy             -170.073041099846 Eh   ::
         :: zero point energy           0.922568865892 Eh   ::
         :: G(RRHO) w/o ZPVE           -0.083589230723 Eh   ::
         :: G(RRHO) contrib.            0.838979635170 Eh   ::
         :::::::::::::::::::::::::::::::::::::::::::::::::::::

           -------------------------------------------------
          | TOTAL ENERGY             -170.073041099846 Eh   |
          | TOTAL ENTHALPY           -169.093578310749 Eh   |
          | TOTAL FREE ENERGY        -169.234061464677 Eh   |
          | GRADIENT NORM               0.000048859629 Eh/α |
          | HOMO-LUMO GAP               0.729799503901 eV   |
           -------------------------------------------------

 * finished run on 2025/08/22 at 16:14:18.558
