   * xtb version 6.7.1 (edcfbbe) compiled by 'albert@albert-system' on 2024-07-22

   ID    Z sym.   atoms
    1    6 C      1-20, 22-38, 41-47, 49-66
    2    7 N      21, 39, 40, 48
    3    1 H      67-116

          program call               : xtb data2507/toluene/DTPCZPYTZ/DTPCZPYTZ_toluene_S0_crest.xyz --gfn 2 --gbsa toluene --ohess vtight --parallel 40 --molden --ceasefiles --namespace data2507/toluene/DTPCZPYTZ/DTPCZPYTZ_toluene_S0_finalOpt
      * Solvation model:               GBSA
        Solvent                        toluene
        Solvent mass                       9.2140E+01 g/mol
          :  Hamiltonian                  GFN2-xTB          :
 * total energy  :  -170.1413709 Eh     change       -0.5665242E-08 Eh
 * total energy  :  -170.1414229 Eh     change       -0.5199683E-04 Eh
 * total energy  :  -170.1414567 Eh     change       -0.3380835E-04 Eh
 * total energy  :  -170.1414716 Eh     change       -0.1486045E-04 Eh
 * total energy  :  -170.1414837 Eh     change       -0.1208524E-04 Eh
 * total energy  :  -170.1414921 Eh     change       -0.8447528E-05 Eh
 * total energy  :  -170.1414988 Eh     change       -0.6741668E-05 Eh
 * total energy  :  -170.1415040 Eh     change       -0.5190031E-05 Eh
 * total energy  :  -170.1415084 Eh     change       -0.4337705E-05 Eh
 * total energy  :  -170.1415125 Eh     change       -0.4077162E-05 Eh
 * total energy  :  -170.1415893 Eh     change       -0.7270986E-06 Eh
 * total energy  :  -170.1415901 Eh     change       -0.8417223E-06 Eh
 * total energy  :  -170.1415911 Eh     change       -0.9056365E-06 Eh
 * total energy  :  -170.1415920 Eh     change       -0.9797251E-06 Eh
 * total energy  :  -170.1415932 Eh     change       -0.1190962E-05 Eh
 * total energy  :  -170.1415946 Eh     change       -0.1332507E-05 Eh
 * total energy  :  -170.1415957 Eh     change       -0.1129967E-05 Eh
 * total energy  :  -170.1415967 Eh     change       -0.1024169E-05 Eh
 * total energy  :  -170.1415967 Eh     change       -0.9263374E-08 Eh
   *** GEOMETRY OPTIMIZATION CONVERGED AFTER 44 ITERATIONS ***

 final structure:
================
116
 xtb: 6.7.1 (edcfbbe)
C          -11.29947138360524       -5.12232093613644       -1.14694691045185
C          -11.51627891985168       -4.15136379546684        0.02362556420696
C          -12.89508164696113       -3.50551195791887       -0.14547162228184
C          -11.51427036860895       -4.92686679692850        1.34960017352733
C          -10.38825439625454       -3.12824706510444        0.03830526386302
C           -9.06902926270351       -3.57810005920119        0.18946344780305
C           -7.98321227761911       -2.72675307331642        0.21255366377203
C           -8.21944361263676       -1.36610600641732        0.08826658658672
C           -9.53502025365080       -0.88733466363614       -0.08690017370303
C          -10.60924045433997       -1.76830692748576       -0.10624587725936
C           -9.43257659556426        0.53891966220409       -0.23356761771898
C          -10.37490091815200        1.54407738219589       -0.41220749460203
C           -9.96560095093696        2.86450570476448       -0.50252281535620
C          -10.94155149607610        4.01584734849673       -0.70545608415818
C          -10.58993692705074        4.75001796535956       -2.00821967241337
C          -10.83599254723732        4.98423727184478        0.48222008648084
C          -12.39588347412758        3.54474691003787       -0.80453227913701
C           -8.59677777313293        3.14841928800623       -0.39598183613975
C           -7.63881284830894        2.17097768947189       -0.21821551907882
C           -8.05899234419289        0.85128472406456       -0.15201510755852
N           -7.33330377004983       -0.30712742969685        0.04630683262056
C           -5.94084044537869       -0.39839815443791        0.17096242131110
C           -5.37528020386203       -1.09677923696297        1.23470505191554
C           -4.00305732851800       -1.20135841412488        1.34399512601725
C           -3.16274223470217       -0.59775665492068        0.41070357457660
C           -1.70277878899829       -0.75270651964416        0.51777621540225
C           -1.18207074885681       -2.04083109076388        0.61527430171149
C            0.17704808737320       -2.26526962443667        0.66083810229447
C            1.07588861792413       -1.19858582180176        0.60199033863542
C            2.48528833705484       -1.39599264440784        0.63846454058907
C            3.34556699849288       -0.35387788469629        0.56721955862386
C            2.87676132733354        0.98887813538677        0.45113457425553
C            3.75056809742506        2.08862343761483        0.36372917568925
C            5.21031697567326        1.91169684746755        0.28978831107558
C            6.04495738271682        2.56644662645668        1.19404460810221
C            7.41297552944263        2.39360291794285        1.14324886443319
C            7.98223434745143        1.55901533203158        0.18252188588204
C            9.42295733391136        1.37012019974271        0.17569957280852
N           10.30613321719578        2.30407829938226        0.41636959978480
N           11.52751486249588        1.76891611498481        0.30303227944038
C           11.39915171451830        0.50308051715203       -0.00278065558291
C           12.51021117502880       -0.41869025072520       -0.17259029013872
C           12.43707106148180       -1.74710500350294        0.24154477951246
C           13.52228919885644       -2.58679940049353        0.06819021078502
C           14.68810493589026       -2.11276507423608       -0.51054491435483
C           14.77390280510162       -0.78614701014828       -0.90355626211602
C           13.69374384384355        0.05883635370979       -0.73441406093214
N           10.06486506103100        0.18517649400388       -0.10029356619141
C            9.47723419736786       -1.05583068594518       -0.41199877733215
C            8.53615724896830       -1.60834095256336        0.45016842376006
C            7.94803846507382       -2.81918393337015        0.13256930851115
C            8.29865978212548       -3.48058697314421       -1.03333775548890
C            9.24136277821519       -2.93000713138940       -1.88655780931301
C            9.83165266525157       -1.71635565493079       -1.58317629659014
C            7.15635970722636        0.94332372305068       -0.75640115136350
C            5.78835624334590        1.11810906440356       -0.69963896204753
C            3.23194843083785        3.38041499713346        0.34217144049544
C            1.87247563906307        3.60789084121360        0.37332227948930
C            0.97343525871368        2.54090375015145        0.42695191672275
C           -0.43575444546462        2.74148865528878        0.46658835142601
C           -1.29599657261365        1.69740711322080        0.50320925448154
C           -0.82828303998496        0.34954706926145        0.50144147013255
C            0.57297901062562        0.12353926713464        0.52415032085476
C            1.47578375471857        1.21674847332731        0.46727674080890
C           -3.73701756558827        0.10188818691729       -0.64950252962436
C           -5.10871589746276        0.19831416200399       -0.77297431596607
H          -10.36459980731855       -5.66646389520250       -1.04390337592052
H          -11.27309140360463       -4.57585640912670       -2.08798272162890
H          -12.11140568523018       -5.84565791517469       -1.18966811742490
H          -13.66038805070560       -4.27945570777922       -0.14292925147431
H          -13.10872625281930       -2.81941760493826        0.67116945120970
H          -12.96315614357904       -2.96977145345355       -1.08969433432948
H          -11.64842554181615       -4.24257429270692        2.18535757124255
H          -12.32706268666057       -5.65041035297086        1.36181460290335
H          -10.58033615818138       -5.46282088675198        1.49517082560372
H           -8.87934526666894       -4.63630335780505        0.28841647131616
H           -6.98104649949637       -3.11651246423752        0.31323842267703
H          -11.60054935208529       -1.36874364184072       -0.24151762736526
H          -11.41516452161732        1.27027971312844       -0.47169592608869
H          -11.29049206609638        5.56476505212524       -2.18049023375201
H           -9.58699991060134        5.16644340420030       -1.97123586998839
H          -10.64304487708291        4.06420934897542       -2.85185980707903
H          -11.54438687976182        5.80176108604520        0.36326840528353
H          -11.06094588638415        4.46445124644155        1.41176427305501
H           -9.83862498825881        5.40781028904418        0.56260488137510
H          -12.53221225270829        2.86970106285278       -1.64655615091588
H          -12.70817643607588        3.04410691358944        0.10931286140228
H          -13.04572357083584        4.40485672596572       -0.95482615980500
H           -8.26379442870027        4.17400232514578       -0.44939605704485
H           -6.59548274042760        2.43415747848269       -0.12511263834928
H           -6.01778104758102       -1.54631852849665        1.97733693123863
H           -3.57227585655758       -1.73855538788941        2.17657914261052
H           -1.86533925318529       -2.87822545272135        0.63261229174928
H            0.55797079670797       -3.27425268280647        0.73039759072574
H            2.85447904889250       -2.40786884033021        0.73061408688764
H            4.41065691527713       -0.52528910581669        0.61335930400621
H            5.61075132397508        3.19690189928357        1.95623187674268
H            8.06039111304103        2.89109188861109        1.84939435414092
H           11.54056301285380       -2.12196923700062        0.71362002375675
H           13.45633819092469       -3.61551964247047        0.39068336396304
H           15.53096262644750       -2.77381558707810       -0.64729453279772
H           15.68520910998484       -0.40946747514906       -1.34399820185560
H           13.74500001643790        1.09533046575012       -1.03123669006757
H            8.27301564990836       -1.08645244794222        1.35894084921495
H            7.21637702511868       -3.24635375060254        0.80147936378801
H            7.83796270532925       -4.42575332253633       -1.27650725182440
H            9.51736714672337       -3.44264035387769       -2.79547321955233
H           10.56458599952478       -1.27620627665294       -2.24377191744691
H            7.58286568640994        0.33653376322392       -1.54202716074307
H            5.15787019110430        0.64652066286642       -1.43943278992077
H            3.91589007622242        4.21504590078005        0.27892918325846
H            1.49185818975798        4.61904085924609        0.34956496142922
H           -0.80435601815426        3.75774251475224        0.47327201240859
H           -2.36029468995490        1.87213058341806        0.55306511154553
H           -3.09991321920503        0.54745320307908       -1.39982239661237
H           -5.54455852389981        0.72074387501975       -1.61176015027638

          :  Hamiltonian                  GFN2-xTB          :
         :: gradient norm              0.000062770654 Eh/a0 ::
         :: HOMO-LUMO gap              1.931455280839 eV    ::
         :: SCC energy              -173.243212597286 Eh    ::
         :: -> dispersion             -0.159781045449 Eh    ::
         :: -> Gsolv                  -0.070226774129 Eh    ::
         :: repulsion energy           3.101615879657 Eh    ::

    * Orbital Energies and Occupations

         #    Occupation            Energy/Eh            Energy/eV
      -------------------------------------------------------------
         1        2.0000           -0.7036561             -19.1475
       ...           ...                  ...                  ...
       147        2.0000           -0.4084322             -11.1140
       148        2.0000           -0.4067239             -11.0675
       149        2.0000           -0.4064655             -11.0605
       150        2.0000           -0.4047818             -11.0147
       151        2.0000           -0.4035916             -10.9823
       152        2.0000           -0.3996285             -10.8744
       153        2.0000           -0.3938084             -10.7161
       154        2.0000           -0.3925053             -10.6806
       155        2.0000           -0.3875092             -10.5447
       156        2.0000           -0.3704320             -10.0800
       157        2.0000           -0.3690687             -10.0429
       158        2.0000           -0.3638015              -9.8995
       159        2.0000           -0.3532853              -9.6134 (HOMO)
       160                         -0.2823056              -7.6819 (LUMO)
       161                         -0.2635473              -7.1715
       162                         -0.2476075              -6.7377
       163                         -0.2450746              -6.6688
       164                         -0.2447462              -6.6599
       165                         -0.2435713              -6.6279
       166                         -0.2386323              -6.4935
       167                         -0.2325418              -6.3278
       168                         -0.2317618              -6.3066
       169                         -0.2297857              -6.2528
       170                         -0.2294100              -6.2426
       ...                                ...                  ...
       314                          0.7444200              20.2567
      -------------------------------------------------------------
                  HL-Gap            0.0709797 Eh            1.9315 eV

     #   Z          covCN         q      C6AA      α(0)
     1   6 C        3.761    -0.104    22.535     6.767
     2   6 C        3.902     0.025    20.106     6.374
     3   6 C        3.761    -0.106    22.570     6.772
     4   6 C        3.761    -0.104    22.536     6.767
     5   6 C        2.972    -0.004    28.119     8.698
     6   6 C        2.931    -0.041    29.025     8.835
     7   6 C        2.908    -0.055    29.373     8.887
     8   6 C        3.080     0.044    26.932     8.508
     9   6 C        3.066    -0.022    28.490     8.752
    10   6 C        2.918    -0.046    29.138     8.852
    11   6 C        3.067    -0.022    28.490     8.752
    12   6 C        2.918    -0.046    29.138     8.852
    13   6 C        2.972    -0.004    28.118     8.698
    14   6 C        3.902     0.025    20.106     6.374
    15   6 C        3.761    -0.104    22.536     6.767
    16   6 C        3.761    -0.104    22.535     6.767
    17   6 C        3.761    -0.106    22.569     6.772
    18   6 C        2.931    -0.041    29.024     8.835
    19   6 C        2.908    -0.055    29.369     8.886
    20   6 C        3.079     0.044    26.932     8.508
    21   7 N        2.801    -0.051    22.233     7.003
    22   6 C        2.912     0.063    26.578     8.454
    23   6 C        2.920    -0.044    29.082     8.844
    24   6 C        2.924    -0.034    28.836     8.806
    25   6 C        2.977     0.009    27.808     8.650
    26   6 C        2.976     0.003    27.959     8.673
    27   6 C        2.921    -0.036    28.890     8.814
    28   6 C        2.918    -0.038    28.954     8.824
    29   6 C        2.983     0.009    27.820     8.652
    30   6 C        2.913    -0.037    28.930     8.820
    31   6 C        2.912    -0.037    28.928     8.819
    32   6 C        2.982     0.006    27.870     8.660
    33   6 C        2.976     0.001    27.995     8.679
    34   6 C        2.977     0.016    27.640     8.624
    35   6 C        2.923    -0.032    28.794     8.800
    36   6 C        2.924    -0.030    28.748     8.793
    37   6 C        2.974    -0.007    28.191     8.709
    38   6 C        3.129     0.138    24.803     8.154
    39   7 N        2.062    -0.221    26.543     7.642
    40   7 N        2.065    -0.221    26.530     7.641
    41   6 C        3.126     0.137    24.834     8.160
    42   6 C        2.974    -0.004    28.126     8.699
    43   6 C        2.922    -0.034    28.843     8.807
    44   6 C        2.919    -0.029    28.718     8.788
    45   6 C        2.919    -0.028    28.690     8.784
    46   6 C        2.918    -0.027    28.665     8.780
    47   6 C        2.927    -0.029    28.733     8.791
    48   7 N        2.830    -0.062    22.446     7.037
    49   6 C        2.912     0.063    26.585     8.455
    50   6 C        2.921    -0.039    28.959     8.825
    51   6 C        2.920    -0.025    28.627     8.774
    52   6 C        2.919    -0.028    28.703     8.786
    53   6 C        2.920    -0.025    28.627     8.774
    54   6 C        2.921    -0.038    28.955     8.824
    55   6 C        2.921    -0.035    28.860     8.810
    56   6 C        2.923    -0.032    28.804     8.801
    57   6 C        2.920    -0.035    28.874     8.812
    58   6 C        2.918    -0.038    28.949     8.823
    59   6 C        2.982     0.009    27.801     8.649
    60   6 C        2.913    -0.037    28.931     8.820
    61   6 C        2.912    -0.036    28.900     8.815
    62   6 C        2.982     0.006    27.871     8.660
    63   6 C        2.994     0.002    27.975     8.676
    64   6 C        2.994     0.002    27.971     8.676
    65   6 C        2.923    -0.032    28.802     8.801
    66   6 C        2.920    -0.044    29.092     8.845
    67   1 H        0.925     0.035     2.515     2.480
    68   1 H        0.925     0.031     2.565     2.505
    69   1 H        0.925     0.037     2.488     2.467
    70   1 H        0.925     0.036     2.505     2.475
    71   1 H        0.925     0.035     2.516     2.481
    72   1 H        0.925     0.035     2.517     2.481
    73   1 H        0.925     0.032     2.562     2.503
    74   1 H        0.925     0.037     2.490     2.468
    75   1 H        0.925     0.035     2.513     2.479
    76   1 H        0.926     0.028     2.613     2.528
    77   1 H        0.926     0.024     2.668     2.554
    78   1 H        0.926     0.036     2.504     2.475
    79   1 H        0.926     0.036     2.504     2.475
    80   1 H        0.925     0.037     2.490     2.468
    81   1 H        0.925     0.035     2.513     2.479
    82   1 H        0.925     0.032     2.563     2.504
    83   1 H        0.925     0.037     2.489     2.467
    84   1 H        0.925     0.032     2.564     2.504
    85   1 H        0.925     0.035     2.515     2.480
    86   1 H        0.925     0.035     2.516     2.481
    87   1 H        0.925     0.035     2.517     2.481
    88   1 H        0.925     0.036     2.505     2.475
    89   1 H        0.926     0.028     2.612     2.527
    90   1 H        0.926     0.024     2.672     2.556
    91   1 H        0.926     0.040     2.444     2.445
    92   1 H        0.926     0.039     2.465     2.455
    93   1 H        0.926     0.033     2.540     2.492
    94   1 H        0.926     0.034     2.525     2.485
    95   1 H        0.926     0.033     2.540     2.492
    96   1 H        0.926     0.033     2.544     2.494
    97   1 H        0.926     0.043     2.415     2.430
    98   1 H        0.926     0.044     2.401     2.423
    99   1 H        0.926     0.027     2.631     2.536
   100   1 H        0.926     0.040     2.442     2.444
   101   1 H        0.926     0.043     2.408     2.427
   102   1 H        0.926     0.043     2.409     2.427
   103   1 H        0.926     0.045     2.386     2.416
   104   1 H        0.926     0.036     2.502     2.473
   105   1 H        0.926     0.049     2.329     2.387
   106   1 H        0.926     0.051     2.311     2.377
   107   1 H        0.926     0.049     2.328     2.386
   108   1 H        0.926     0.037     2.493     2.469
   109   1 H        0.926     0.027     2.636     2.539
   110   1 H        0.926     0.041     2.436     2.441
   111   1 H        0.926     0.034     2.537     2.491
   112   1 H        0.926     0.035     2.514     2.479
   113   1 H        0.926     0.033     2.542     2.493
   114   1 H        0.926     0.036     2.509     2.477
   115   1 H        0.926     0.040     2.453     2.449
   116   1 H        0.926     0.040     2.446     2.446

molecular dipole:
                 x           y           z       tot (Debye)
 q only:       -0.843      -1.813      -0.421
   full:       -0.934      -2.305      -0.541       6.469

 projected vibrational frequencies (cm⁻¹)
eigval :       -0.00    -0.00     0.00     0.00     0.00     0.00
eigval :        5.89     7.16    10.49    13.65    15.35    25.67
eigval :       27.42    31.92    35.12    37.84    43.15    46.62
eigval :       49.15    55.18    59.31    67.83    73.59    76.48
eigval :       86.38    89.03   104.33   106.16   111.76   117.44
eigval :      120.73   131.25   142.69   155.68   162.91   171.24
eigval :      181.91   187.08   196.87   201.97   206.26   219.34
eigval :      223.51   228.94   232.57   236.46   244.13   247.98
eigval :      256.10   260.04   273.55   278.72   289.32   301.64
eigval :      306.68   312.48   317.32   321.57   332.04   338.01
eigval :      346.05   358.90   359.57   370.37   371.82   377.22
eigval :      379.68   382.98   386.74   392.09   399.44   403.60
eigval :      409.30   411.86   413.55   415.80   439.91   441.96
eigval :      444.56   458.76   462.46   464.90   470.35   476.26
eigval :      479.37   482.69   490.80   496.50   510.21   514.05
eigval :      518.24   541.65   544.52   556.60   572.95   577.17
eigval :      583.20   585.02   586.21   593.47   598.21   607.16
eigval :      608.98   627.45   640.69   641.00   642.09   653.29
eigval :      658.20   662.31   672.59   679.18   682.73   686.96
eigval :      687.41   690.89   695.04   699.43   707.90   708.57
eigval :      710.87   719.61   731.03   744.60   752.12   758.98
eigval :      764.01   768.75   804.25   812.21   814.20   818.18
eigval :      821.53   823.69   830.52   830.85   848.20   854.37
eigval :      867.73   872.20   872.68   873.84   875.58   877.52
eigval :      880.91   881.10   899.60   905.74   909.84   912.84
eigval :      914.36   915.32   918.74   922.22   922.92   925.02
eigval :      925.56   928.45   929.36   932.16   934.05   934.39
eigval :      936.84   939.77   942.71   950.24   958.22   958.92
eigval :      960.67   960.85   961.57   962.01   963.36   977.98
eigval :      996.23  1001.43  1014.84  1029.63  1033.61  1034.68
eigval :     1036.02  1037.04  1040.37  1047.83  1078.00  1080.79
eigval :     1107.76  1108.93  1114.47  1115.39  1118.44  1124.97
eigval :     1127.36  1135.61  1136.70  1140.34  1150.73  1165.61
eigval :     1167.83  1175.17  1176.25  1176.52  1181.18  1185.89
eigval :     1189.48  1190.63  1196.76  1197.66  1200.14  1208.41
eigval :     1212.08  1225.26  1225.69  1228.95  1230.06  1234.90
eigval :     1236.22  1242.50  1247.08  1258.18  1266.24  1267.99
eigval :     1274.71  1278.15  1283.50  1285.24  1288.60  1302.72
eigval :     1303.36  1308.44  1310.11  1310.74  1312.71  1313.70
eigval :     1316.67  1318.43  1325.27  1345.48  1357.97  1363.73
eigval :     1373.74  1381.05  1382.49  1385.11  1398.61  1400.33
eigval :     1400.87  1401.41  1402.48  1404.01  1405.68  1414.01
eigval :     1416.82  1425.18  1426.37  1427.38  1432.90  1440.60
eigval :     1449.63  1451.61  1464.88  1478.25  1481.21  1484.07
eigval :     1484.62  1489.24  1492.18  1492.28  1492.91  1496.43
eigval :     1499.09  1499.51  1502.45  1504.76  1505.38  1510.98
eigval :     1511.70  1517.36  1518.23  1529.43  1530.07  1535.48
eigval :     1555.00  1558.92  1560.43  1564.71  1569.65  1579.83
eigval :     1580.93  1583.24  1591.85  1592.63  1593.92  1595.92
eigval :     1602.43  1603.16  1605.72  1616.16  3017.08  3017.57
eigval :     3018.63  3018.98  3022.15  3022.56  3023.71  3024.22
eigval :     3025.97  3026.46  3029.61  3029.85  3034.43  3034.95
eigval :     3043.28  3043.35  3046.44  3046.57  3065.88  3066.60
eigval :     3067.81  3068.86  3074.12  3074.59  3074.77  3074.88
eigval :     3076.19  3077.75  3078.94  3079.27  3080.07  3080.31
eigval :     3081.47  3081.76  3084.42  3086.72  3087.46  3088.35
eigval :     3088.56  3089.23  3089.45  3090.83  3091.96  3092.75
eigval :     3094.19  3097.13  3100.31  3103.01  3112.37  3115.28

   temp. (K)  partition function   enthalpy   heat capacity  entropy
                                   cal/mol     cal/K/mol   cal/K/mol   J/K/mol
 298.15  VIB  0.612E+27            33310.801    207.539    208.518
         ROT  0.370E+09              888.752      2.981     42.186
         INT  0.226E+36            34199.553    210.520    250.704
         TR   0.240E+29             1481.254      4.968     46.080
         TOT                       35680.8072   215.4879   296.7837  1241.7430

       T/K    H(0)-H(T)+PV         H(T)/Eh          T*S/Eh         G(T)/Eh
   ------------------------------------------------------------------------
    298.15    0.568610E-01    0.981897E+00    0.141012E+00    0.840885E+00
   ------------------------------------------------------------------------

         :::::::::::::::::::::::::::::::::::::::::::::::::::::
         ::                  THERMODYNAMIC                  ::
         :::::::::::::::::::::::::::::::::::::::::::::::::::::
         :: total free energy        -169.300711409992 Eh   ::
         ::.................................................::
         :: total energy             -170.141596717042 Eh   ::
         :: zero point energy           0.925035836763 Eh   ::
         :: G(RRHO) w/o ZPVE           -0.084150529713 Eh   ::
         :: G(RRHO) contrib.            0.840885307051 Eh   ::
         :::::::::::::::::::::::::::::::::::::::::::::::::::::

           -------------------------------------------------
          | TOTAL ENERGY             -170.141596717042 Eh   |
          | TOTAL ENTHALPY           -169.159699894701 Eh   |
          | TOTAL FREE ENERGY        -169.300711409992 Eh   |
          | GRADIENT NORM               0.000062769262 Eh/α |
          | HOMO-LUMO GAP               1.931455439488 eV   |
           -------------------------------------------------

 * finished run on 2025/08/22 at 16:13:51.614
