   * xtb version 6.7.1 (edcfbbe) compiled by 'albert@albert-system' on 2024-07-22

   ID    Z sym.   atoms
    1    6 C      1-4, 6-26, 28-35
    2    7 N      5
    3    8 O      27
    4    1 H      36-60

          program call               : xtb data2507/toluene/XCBP/XCBP_toluene_S0_finalOpt.xtbopt.xyz --gfn 2 --uhf 2 --gbsa toluene --ohess vtight --parallel 40 --molden --ceasefiles --namespace data2507/toluene/XCBP/XCBP_toluene_T1_preOpt
      * Solvation model:               GBSA
        Solvent                        toluene
        Solvent mass                       9.2140E+01 g/mol
          :  Hamiltonian                  GFN2-xTB          :
 * total energy  :   -90.3673378 Eh     change       -0.1609635E-08 Eh
 * total energy  :   -90.3706682 Eh     change       -0.3330453E-02 Eh
 * total energy  :   -90.3717728 Eh     change       -0.1104544E-02 Eh
 * total energy  :   -90.3721903 Eh     change       -0.4174804E-03 Eh
 * total energy  :   -90.3725907 Eh     change       -0.4004858E-03 Eh
 * total energy  :   -90.3729481 Eh     change       -0.3573954E-03 Eh
 * total energy  :   -90.3732496 Eh     change       -0.3014891E-03 Eh
 * total energy  :   -90.3734287 Eh     change       -0.1790989E-03 Eh
 * total energy  :   -90.3735242 Eh     change       -0.9550290E-04 Eh
 * total energy  :   -90.3735841 Eh     change       -0.5989987E-04 Eh
 * total energy  :   -90.3739360 Eh     change       -0.3267962E-06 Eh
 * total energy  :   -90.3739364 Eh     change       -0.3523177E-06 Eh
 * total energy  :   -90.3739367 Eh     change       -0.3243372E-06 Eh
 * total energy  :   -90.3739369 Eh     change       -0.2276202E-06 Eh
 * total energy  :   -90.3739371 Eh     change       -0.1900842E-06 Eh
 * total energy  :   -90.3739373 Eh     change       -0.1641567E-06 Eh
 * total energy  :   -90.3739374 Eh     change       -0.1167427E-06 Eh
 * total energy  :   -90.3739375 Eh     change       -0.1021573E-06 Eh
 * total energy  :   -90.3739376 Eh     change       -0.8223445E-07 Eh
   *** GEOMETRY OPTIMIZATION CONVERGED AFTER 55 ITERATIONS ***

 final structure:
================
60
 xtb: 6.7.1 (edcfbbe)
C           -0.04653840956770       -2.20475936102702       -2.06212424128133
C           -0.54087808586143       -1.13368706154435       -1.13862216990516
C           -1.90003150714229       -1.00547483222802       -0.94154919385234
C           -2.44423203537660       -0.05693441701706       -0.07237337277649
N           -3.83626265166004        0.02207344433470        0.04891619890156
C           -4.66348782391176       -1.02213195105298        0.40416548414027
C           -4.33177403628699       -2.32313673001287        0.76150418519389
C           -5.36311678499559       -3.17518291601508        1.11392740869092
C           -6.68747012591655       -2.74504830076015        1.12268090424072
C           -7.02093228063268       -1.44139113858440        0.78848356948520
C           -6.00548621210731       -0.57119131055506        0.42787517760859
C           -5.97325629185887        0.81756747407224        0.04109469296228
C           -6.95035015117473        1.77967085273351       -0.15405356928962
C           -6.56202099431499        3.03924540316564       -0.58368425909921
C           -5.22514666909356        3.33216765123940       -0.84162652954464
C           -4.23248989490592        2.38753437560875       -0.65474870082881
C           -4.61229596144150        1.13579028925334       -0.18640265440996
C           -1.59225654537843        0.75892606986538        0.69441922686905
C           -2.11423636252109        1.70678382356515        1.73138376087913
C           -0.23367891629652        0.61590162096673        0.50594286002604
C            0.33111305739990       -0.28032013887677       -0.41780051301715
C            1.77220961510842       -0.30092537819917       -0.56447262279185
C            2.60134765632989       -0.20458515469548        0.57459621980482
C            3.96525668574582       -0.21848494518846        0.47708300416273
C            4.60374536637046       -0.26825746251780       -0.78403557277512
C            6.03039706998187       -0.28932405873984       -0.96411140284172
O            6.54270929193581       -0.70625768367481       -2.04656260802603
C            6.91381411217507        0.14301006091307        0.12931326045970
C            8.16306025927567       -0.47141116181034        0.27638048366455
C            9.03047918149570       -0.06548646232428        1.26915855660822
C            8.68261493913485        0.97264545833456        2.12133191000596
C            7.46315121953508        1.61408458819808        1.95755622098686
C            6.58531910821880        1.21107068548885        0.97093923146323
C            3.77294017273469       -0.39820774196450       -1.92615104222235
C            2.41172613624288       -0.40199484393964       -1.81775041912143
H           -0.73193426716998       -3.05015759119611       -2.05373667463383
H            0.00878450193898       -1.83764942564433       -3.08732155994759
H            0.94306747201986       -2.54771768363801       -1.77088243052932
H           -2.57730571623900       -1.64111602486314       -1.49451172630884
H           -3.30492352764695       -2.65465485023811        0.76994468229446
H           -5.13573069888257       -4.19348029247531        1.39154683954729
H           -7.46603073670611       -3.43874334568736        1.40255754239833
H           -8.04777399512772       -1.11038527434973        0.81215726851158
H           -7.99092284493698        1.55059294004701        0.01692288181847
H           -7.30893506581726        3.80354319964802       -0.73750242176765
H           -4.95916162092906        4.31489135190970       -1.20105283018010
H           -3.20119499029648        2.60806357510614       -0.88151898435289
H           -2.22940943973392        2.70956737425365        1.32121222292110
H           -1.41386666375124        1.76791820209468        2.56133984722364
H           -3.08119197228671        1.38592956840666        2.11190553205915
H            0.43333380327749        1.24250682822384        1.07967223182077
H            2.14522785539236       -0.19066393964732        1.55436289823786
H            4.56319134556659       -0.22458403339169        1.37630923849514
H            8.42556050731372       -1.27592419639233       -0.39588871638668
H            9.98481048926098       -0.56087197739897        1.37896628828021
H            9.36264903517088        1.28941040661013        2.89823610342428
H            7.19872324632461        2.44309642585462        2.59862422268892
H            5.65762827109427        1.74459236844818        0.82431164207335
H            4.25668293156636       -0.45397280067533       -2.89113564525230
H            1.81537567111178       -0.42013245553741       -2.71675313850880

          :  Hamiltonian                  GFN2-xTB          :
         :: gradient norm              0.000038961225 Eh/a0 ::
         :: HOMO-LUMO gap              0.622579911103 eV    ::
         :: SCC energy               -92.012169133287 Eh    ::
         :: -> dispersion             -0.076609720769 Eh    ::
         :: -> Gsolv                  -0.050065749173 Eh    ::
         :: repulsion energy           1.638231556875 Eh    ::

    * Orbital Energies and Occupations

         #    Occupation            Energy/Eh            Energy/eV
      -------------------------------------------------------------
         1        2.0000           -0.6946295             -18.9018
       ...           ...                  ...                  ...
        73        2.0000           -0.4213525             -11.4656
        74        2.0000           -0.4202604             -11.4359
        75        2.0000           -0.4190684             -11.4034
        76        2.0000           -0.4122724             -11.2185
        77        2.0000           -0.4028882             -10.9631
        78        2.0000           -0.4007040             -10.9037
        79        2.0000           -0.4001054             -10.8874
        80        2.0000           -0.3989381             -10.8557
        81        2.0000           -0.3946200             -10.7382
        82        2.0000           -0.3877769             -10.5519
        83        1.7659           -0.3761473             -10.2355
        84        1.2341           -0.3738952             -10.1742
        85        1.0000           -0.2827301              -7.6935 (HOMO)
        86        0.0000           -0.2598501              -7.0709 (LUMO)
        87                         -0.2461320              -6.6976
        88                         -0.2386072              -6.4928
        89                         -0.2284790              -6.2172
        90                         -0.2199075              -5.9840
        91                         -0.2184213              -5.9435
        92                         -0.2145547              -5.8383
        93                         -0.2061442              -5.6095
        94                         -0.2012695              -5.4768
        95                         -0.1680713              -4.5735
        96                         -0.1141650              -3.1066
       ...                                ...                  ...
       165                          0.7285797              19.8257
      -------------------------------------------------------------
                  HL-Gap            0.0228799 Eh            0.6226 eV

     #   Z          covCN         q      C6AA      α(0)
     1   6 C        3.758    -0.110    22.663     6.787
     2   6 C        2.963     0.016    27.649     8.625
     3   6 C        2.925    -0.052    29.297     8.876
     4   6 C        2.915     0.043    27.035     8.526
     5   7 N        2.802     0.001    21.236     6.844
     6   6 C        3.076     0.047    26.875     8.500
     7   6 C        2.909    -0.039    28.977     8.827
     8   6 C        2.922    -0.029    28.734     8.790
     9   6 C        2.920    -0.030    28.757     8.794
    10   6 C        2.911    -0.027    28.683     8.782
    11   6 C        3.064    -0.010    28.195     8.707
    12   6 C        3.064    -0.010    28.196     8.707
    13   6 C        2.911    -0.027    28.683     8.782
    14   6 C        2.920    -0.030    28.752     8.793
    15   6 C        2.922    -0.029    28.736     8.791
    16   6 C        2.909    -0.038    28.945     8.822
    17   6 C        3.075     0.048    26.836     8.493
    18   6 C        2.960     0.011    27.775     8.644
    19   6 C        3.757    -0.110    22.664     6.788
    20   6 C        2.932    -0.048    29.193     8.861
    21   6 C        2.973     0.009    27.806     8.650
    22   6 C        2.973    -0.003    28.089     8.694
    23   6 C        2.919    -0.036    28.893     8.815
    24   6 C        2.913    -0.043    29.078     8.842
    25   6 C        2.968    -0.015    28.395     8.741
    26   6 C        2.833     0.171    24.319     8.081
    27   8 O        0.858    -0.482    23.396     6.485
    28   6 C        2.971    -0.007    28.196     8.710
    29   6 C        2.923    -0.028    28.704     8.786
    30   6 C        2.917    -0.031    28.783     8.798
    31   6 C        2.919    -0.038    28.933     8.821
    32   6 C        2.918    -0.031    28.778     8.797
    33   6 C        2.920    -0.038    28.933     8.821
    34   6 C        2.919    -0.033    28.820     8.804
    35   6 C        2.916    -0.036    28.891     8.814
    36   1 H        0.925     0.052     2.298     2.371
    37   1 H        0.924     0.055     2.253     2.347
    38   1 H        0.925     0.051     2.308     2.376
    39   1 H        0.926     0.048     2.348     2.396
    40   1 H        0.926     0.046     2.370     2.407
    41   1 H        0.926     0.044     2.402     2.424
    42   1 H        0.926     0.043     2.408     2.427
    43   1 H        0.926     0.046     2.376     2.411
    44   1 H        0.926     0.045     2.379     2.412
    45   1 H        0.926     0.043     2.409     2.427
    46   1 H        0.926     0.043     2.404     2.425
    47   1 H        0.926     0.046     2.373     2.409
    48   1 H        0.925     0.060     2.197     2.318
    49   1 H        0.925     0.054     2.270     2.356
    50   1 H        0.925     0.047     2.352     2.398
    51   1 H        0.926     0.048     2.349     2.397
    52   1 H        0.926     0.035     2.522     2.484
    53   1 H        0.926     0.031     2.574     2.509
    54   1 H        0.926     0.028     2.618     2.530
    55   1 H        0.926     0.032     2.560     2.502
    56   1 H        0.926     0.034     2.534     2.489
    57   1 H        0.926     0.035     2.517     2.481
    58   1 H        0.926     0.035     2.517     2.481
    59   1 H        0.926     0.027     2.632     2.537
    60   1 H        0.926     0.040     2.444     2.445

molecular dipole:
                 x           y           z       tot (Debye)
 q only:       -6.728       0.596       1.624
   full:       -6.576       0.587       1.621      17.280

 projected vibrational frequencies (cm⁻¹)
eigval :       -0.00    -0.00     0.00     0.00     0.00     0.00
eigval :       12.54    19.86    22.64    36.53    46.11    47.96
eigval :       70.08    75.63    98.21   104.72   122.02   124.90
eigval :      129.34   132.58   154.97   175.80   186.07   203.64
eigval :      208.60   219.88   228.57   266.10   268.27   276.97
eigval :      298.10   322.87   329.21   361.38   371.48   382.78
eigval :      388.21   394.70   402.57   417.92   420.01   431.74
eigval :      439.65   453.65   476.81   508.80   512.77   526.15
eigval :      534.09   542.84   555.23   579.63   583.52   587.47
eigval :      591.05   602.50   628.57   646.73   661.89   663.26
eigval :      674.76   685.31   696.81   710.29   733.02   749.53
eigval :      752.56   767.79   775.52   787.43   803.16   828.62
eigval :      861.23   865.02   869.94   871.48   878.27   883.16
eigval :      886.94   896.28   900.01   904.54   906.66   908.79
eigval :      912.62   918.84   921.04   921.99   935.23   963.90
eigval :      980.08  1007.50  1008.38  1020.93  1022.82  1026.93
eigval :     1034.02  1063.73  1066.79  1076.62  1093.74  1116.35
eigval :     1133.96  1136.67  1157.64  1165.14  1168.00  1173.95
eigval :     1174.63  1174.66  1183.94  1204.70  1211.59  1224.09
eigval :     1234.74  1242.68  1247.61  1260.60  1273.68  1274.86
eigval :     1281.45  1291.21  1310.21  1322.74  1326.72  1328.96
eigval :     1337.14  1361.70  1393.95  1400.31  1403.55  1406.67
eigval :     1409.14  1417.74  1421.67  1434.85  1438.05  1440.44
eigval :     1444.38  1453.96  1459.89  1471.61  1476.17  1477.05
eigval :     1480.39  1482.82  1494.32  1529.94  1545.56  1561.52
eigval :     1564.97  1570.61  1574.97  1576.80  1596.05  2991.54
eigval :     3005.47  3025.92  3038.79  3041.61  3043.83  3065.51
eigval :     3066.55  3067.13  3073.51  3077.11  3077.28  3080.19
eigval :     3082.17  3082.48  3083.08  3085.61  3087.86  3088.32
eigval :     3089.31  3093.91  3095.40  3097.01  3100.46  3102.05

   temp. (K)  partition function   enthalpy   heat capacity  entropy
                                   cal/mol     cal/K/mol   cal/K/mol   J/K/mol
 298.15  VIB  0.271E+13            16816.971    107.477    103.392
         ROT  0.401E+08              888.752      2.981     37.770
         INT  0.109E+21            17705.723    110.458    141.162
         TR   0.928E+28             1481.254      4.968     44.192
         TOT                       19186.9770   115.4262   185.3536   775.5196

       T/K    H(0)-H(T)+PV         H(T)/Eh          T*S/Eh         G(T)/Eh
   ------------------------------------------------------------------------
    298.15    0.305764E-01    0.496254E+00    0.880675E-01    0.408187E+00
   ------------------------------------------------------------------------

         :::::::::::::::::::::::::::::::::::::::::::::::::::::
         ::                  THERMODYNAMIC                  ::
         :::::::::::::::::::::::::::::::::::::::::::::::::::::
         :: total free energy         -89.965750706515 Eh   ::
         ::.................................................::
         :: total energy              -90.373937577309 Eh   ::
         :: zero point energy           0.465677964198 Eh   ::
         :: G(RRHO) w/o ZPVE           -0.057491093405 Eh   ::
         :: G(RRHO) contrib.            0.408186870794 Eh   ::
         :::::::::::::::::::::::::::::::::::::::::::::::::::::

           -------------------------------------------------
          | TOTAL ENERGY              -90.373937577309 Eh   |
          | TOTAL ENTHALPY            -89.877683219025 Eh   |
          | TOTAL FREE ENERGY         -89.965750706515 Eh   |
          | GRADIENT NORM               0.000041010333 Eh/α |
          | HOMO-LUMO GAP               0.622594732374 eV   |
           -------------------------------------------------

 * finished run on 2025/08/25 at 13:30:02.403
