   * xtb version 6.7.1 (edcfbbe) compiled by 'albert@albert-system' on 2024-07-22

   ID    Z sym.   atoms
    1    6 C      1-4, 6-26, 28-35
    2    7 N      5
    3    8 O      27
    4    1 H      36-60

          program call               : xtb data2507/toluene/XCBP/XCBP_toluene_T1_crest.xyz --gfn 2 --uhf 2 --gbsa toluene --ohess vtight --parallel 40 --molden --ceasefiles --namespace data2507/toluene/XCBP/XCBP_toluene_T1_finalOpt
      * Solvation model:               GBSA
        Solvent                        toluene
        Solvent mass                       9.2140E+01 g/mol
          :  Hamiltonian                  GFN2-xTB          :
 * total energy  :   -90.3741020 Eh     change       -0.6664024E-08 Eh
 * total energy  :   -90.3742540 Eh     change       -0.1520591E-03 Eh
 * total energy  :   -90.3743034 Eh     change       -0.4937653E-04 Eh
 * total energy  :   -90.3743150 Eh     change       -0.1157126E-04 Eh
 * total energy  :   -90.3743234 Eh     change       -0.8456162E-05 Eh
 * total energy  :   -90.3743317 Eh     change       -0.8214298E-05 Eh
 * total energy  :   -90.3743380 Eh     change       -0.6344605E-05 Eh
 * total energy  :   -90.3743452 Eh     change       -0.7191543E-05 Eh
 * total energy  :   -90.3743547 Eh     change       -0.9543347E-05 Eh
 * total energy  :   -90.3743632 Eh     change       -0.8412445E-05 Eh
 * total energy  :   -90.3743726 Eh     change       -0.2065220E-05 Eh
 * total energy  :   -90.3743750 Eh     change       -0.2359603E-05 Eh
 * total energy  :   -90.3743766 Eh     change       -0.1645902E-05 Eh
 * total energy  :   -90.3743774 Eh     change       -0.7277160E-06 Eh
 * total energy  :   -90.3743779 Eh     change       -0.5370423E-06 Eh
 * total energy  :   -90.3743786 Eh     change       -0.6811687E-06 Eh
 * total energy  :   -90.3743791 Eh     change       -0.5151555E-06 Eh
 * total energy  :   -90.3743793 Eh     change       -0.2435452E-06 Eh
 * total energy  :   -90.3743793 Eh     change       -0.1079337E-07 Eh
   *** GEOMETRY OPTIMIZATION CONVERGED AFTER 22 ITERATIONS ***

 final structure:
================
60
 xtb: 6.7.1 (edcfbbe)
C           -0.08874565893377       -2.35433042706129        1.89326668692193
C           -0.56120560021249       -1.31390818453467        0.92470674158139
C           -1.91604516921414       -1.09158200402389        0.80565928670140
C           -2.44199779623586       -0.06940336982333        0.00977067731492
N           -3.82858610011233        0.09861685822298       -0.02963827120867
C           -4.52150055354859        1.24094388349774        0.31118966085167
C           -4.03897182524862        2.44508496187429        0.80788750915812
C           -4.96023054929508        3.43239035975877        1.10676117683443
C           -6.32617134867852        3.22637937610336        0.93023476532159
C           -6.81488571935265        2.01302661747986        0.47148400761093
C           -5.91057672781858        1.00934337765575        0.16527158063955
C           -6.04990421781093       -0.35516580491657       -0.27974779847211
C           -7.13666600863006       -1.14941617430423       -0.60652425821780
C           -6.90376190692114       -2.45306121076225       -1.01669301921848
C           -5.60946461514663       -2.95745200126866       -1.11484532727433
C           -4.50851023338160       -2.18137428727611       -0.79963960835276
C           -4.73831576873026       -0.88100084264251       -0.36827746337814
C           -1.57306270832469        0.75284264275992       -0.73200519811711
C           -2.07596614869763        1.78825668231398       -1.69255048509731
C           -0.21922371075237        0.52282121057105       -0.61513979071536
C            0.33091771465434       -0.49555641757933        0.18481396832186
C            1.76865899385743       -0.64649351494962        0.21246819313897
C            2.59438764372616        0.50037993814800        0.24276360151053
C            3.95740938429223        0.40738893577661        0.27594307487359
C            4.60235181753981       -0.85100400473864        0.21310140278266
C            6.03060515743288       -1.02489640991004        0.23674710808465
O            6.54068490665518       -2.13802901862979        0.56354304454270
C            6.91294640318309        0.10632646006988       -0.08590791599301
C            8.15761570082546        0.19968886844959        0.54777064423220
C            9.02514198638838        1.22730496514705        0.24080165961292
C            8.68139407595894        2.17047240071774       -0.71687517807785
C            7.46663931239582        2.06366915933291       -1.37888252262064
C            6.58917961137893        1.04216656224994       -1.07391760607331
C            3.77615935605069       -2.00331516163762        0.21821102231814
C            2.41465939033999       -1.90204967340041        0.20340507287670
H           -0.79370981533546       -2.44770067717101        2.71720505237928
H           -0.02041761554912       -3.32860562094516        1.40802315384508
H            0.89072831185913       -2.10289140259109        2.29200097796591
H           -2.60432884516782       -1.68885343383685        1.38720271841892
H           -2.98379318923034        2.59762072361157        0.97045549567721
H           -4.61365619011668        4.37985754458014        1.49123322597397
H           -7.01522414892239        4.02208290725832        1.17079110554131
H           -7.87605672753663        1.84976546352020        0.36275044635970
H           -8.14132344146398       -0.76000445580401       -0.54632462768227
H           -7.73840726798936       -3.08883480161080       -1.27149357610011
H           -5.46171512276890       -3.97405431952562       -1.44699705775419
H           -3.50607619114890       -2.57020335046854       -0.89024987295808
H           -1.47674291151652        1.76837112892027       -2.60069333291734
H           -1.99056559530560        2.78667407155425       -1.26467917822027
H           -3.11655183776442        1.61923967389627       -1.95732939379620
H            0.45544011655627        1.11830460753493       -1.21213417813314
H            2.13236708800305        1.47504746203991        0.31177914980180
H            4.55057534480218        1.30368169676377        0.38048635178969
H            8.41666848551160       -0.54386419816981        1.28819710557384
H            9.97610733004701        1.29343975524819        0.75018600390982
H            9.36140832186179        2.97453545304582       -0.95655132974630
H            7.20603714374670        2.77788341928833       -2.14714742238480
H            5.66521186442218        0.94304167906391       -1.62456279968196
H            4.26481596325764       -2.96701175324024        0.18943394828948
H            1.82470493901653       -2.80130328123587        0.11907845473294

          :  Hamiltonian                  GFN2-xTB          :
         :: gradient norm              0.000067866300 Eh/a0 ::
         :: HOMO-LUMO gap              0.627854153918 eV    ::
         :: SCC energy               -92.012457382084 Eh    ::
         :: -> dispersion             -0.076596840118 Eh    ::
         :: -> Gsolv                  -0.050292044990 Eh    ::
         :: repulsion energy           1.638078038145 Eh    ::

    * Orbital Energies and Occupations

         #    Occupation            Energy/Eh            Energy/eV
      -------------------------------------------------------------
         1        2.0000           -0.6945637             -18.9000
       ...           ...                  ...                  ...
        73        2.0000           -0.4215069             -11.4698
        74        2.0000           -0.4200650             -11.4306
        75        2.0000           -0.4187959             -11.3960
        76        2.0000           -0.4119160             -11.2088
        77        2.0000           -0.4029209             -10.9640
        78        2.0000           -0.4011785             -10.9166
        79        2.0000           -0.4000218             -10.8851
        80        2.0000           -0.3988140             -10.8523
        81        2.0000           -0.3943864             -10.7318
        82        2.0000           -0.3886524             -10.5758
        83        1.8170           -0.3755102             -10.2182
        84        1.1830           -0.3726673             -10.1408
        85        1.0000           -0.2827551              -7.6942 (HOMO)
        86        0.0000           -0.2596817              -7.0663 (LUMO)
        87                         -0.2466555              -6.7118
        88                         -0.2383077              -6.4847
        89                         -0.2292440              -6.2380
        90                         -0.2197405              -5.9794
        91                         -0.2182600              -5.9392
        92                         -0.2146150              -5.8400
        93                         -0.2054560              -5.5907
        94                         -0.2010495              -5.4708
        95                         -0.1676709              -4.5626
        96                         -0.1144768              -3.1151
       ...                                ...                  ...
       165                          0.7286639              19.8280
      -------------------------------------------------------------
                  HL-Gap            0.0230734 Eh            0.6279 eV

     #   Z          covCN         q      C6AA      α(0)
     1   6 C        3.759    -0.110    22.661     6.787
     2   6 C        2.963     0.017    27.636     8.623
     3   6 C        2.925    -0.052    29.295     8.876
     4   6 C        2.915     0.043    27.026     8.525
     5   7 N        2.802     0.002    21.234     6.844
     6   6 C        3.074     0.048    26.851     8.496
     7   6 C        2.909    -0.038    28.952     8.823
     8   6 C        2.923    -0.030    28.738     8.791
     9   6 C        2.920    -0.030    28.759     8.794
    10   6 C        2.912    -0.028    28.689     8.783
    11   6 C        3.064    -0.010    28.202     8.708
    12   6 C        3.064    -0.010    28.196     8.707
    13   6 C        2.912    -0.027    28.687     8.783
    14   6 C        2.920    -0.030    28.760     8.794
    15   6 C        2.923    -0.029    28.736     8.791
    16   6 C        2.909    -0.039    28.976     8.827
    17   6 C        3.076     0.046    26.882     8.501
    18   6 C        2.960     0.011    27.764     8.643
    19   6 C        3.757    -0.111    22.666     6.788
    20   6 C        2.932    -0.048    29.203     8.863
    21   6 C        2.973     0.010    27.799     8.648
    22   6 C        2.973    -0.003    28.089     8.693
    23   6 C        2.919    -0.036    28.896     8.815
    24   6 C        2.913    -0.043    29.062     8.840
    25   6 C        2.968    -0.015    28.391     8.740
    26   6 C        2.833     0.172    24.302     8.078
    27   8 O        0.858    -0.486    23.476     6.496
    28   6 C        2.971    -0.008    28.224     8.714
    29   6 C        2.924    -0.028    28.700     8.785
    30   6 C        2.917    -0.032    28.787     8.798
    31   6 C        2.919    -0.037    28.928     8.820
    32   6 C        2.918    -0.031    28.782     8.798
    33   6 C        2.920    -0.037    28.931     8.820
    34   6 C        2.919    -0.033    28.817     8.803
    35   6 C        2.916    -0.035    28.883     8.813
    36   1 H        0.925     0.053     2.289     2.366
    37   1 H        0.924     0.057     2.231     2.336
    38   1 H        0.925     0.051     2.303     2.373
    39   1 H        0.926     0.048     2.346     2.395
    40   1 H        0.926     0.047     2.363     2.404
    41   1 H        0.926     0.043     2.404     2.425
    42   1 H        0.926     0.043     2.414     2.430
    43   1 H        0.926     0.045     2.385     2.415
    44   1 H        0.926     0.045     2.381     2.413
    45   1 H        0.926     0.043     2.412     2.429
    46   1 H        0.926     0.043     2.405     2.425
    47   1 H        0.926     0.046     2.370     2.408
    48   1 H        0.925     0.055     2.255     2.348
    49   1 H        0.925     0.061     2.190     2.314
    50   1 H        0.925     0.047     2.354     2.399
    51   1 H        0.926     0.048     2.347     2.396
    52   1 H        0.926     0.035     2.514     2.480
    53   1 H        0.926     0.031     2.575     2.509
    54   1 H        0.926     0.028     2.621     2.532
    55   1 H        0.926     0.031     2.567     2.505
    56   1 H        0.926     0.033     2.538     2.491
    57   1 H        0.926     0.035     2.522     2.483
    58   1 H        0.926     0.034     2.524     2.484
    59   1 H        0.926     0.027     2.628     2.535
    60   1 H        0.926     0.041     2.435     2.440

molecular dipole:
                 x           y           z       tot (Debye)
 q only:       -6.746       1.717      -0.460
   full:       -6.593       1.716      -0.446      17.354

 projected vibrational frequencies (cm⁻¹)
eigval :       -0.00    -0.00    -0.00    -0.00     0.00     0.00
eigval :       11.57    19.48    26.59    35.21    41.45    47.49
eigval :       66.10    79.64    96.43   104.97   116.54   123.45
eigval :      129.41   131.92   151.84   184.62   200.75   208.15
eigval :      210.76   215.51   226.04   264.23   271.41   272.83
eigval :      300.34   324.98   331.90   352.60   370.84   382.01
eigval :      389.29   397.28   411.63   416.66   418.52   430.82
eigval :      441.70   452.40   478.59   504.82   513.19   526.81
eigval :      534.06   540.93   564.34   578.72   583.56   585.68
eigval :      597.50   603.18   620.75   648.08   660.96   665.57
eigval :      673.58   682.01   697.39   709.69   732.66   751.55
eigval :      752.85   765.51   775.63   786.36   803.98   829.47
eigval :      860.93   864.02   869.61   870.50   878.83   882.05
eigval :      887.35   896.11   901.38   903.20   905.74   910.77
eigval :      913.70   915.62   919.71   923.28   935.18   963.45
eigval :      980.75  1006.82  1008.80  1017.09  1023.30  1026.90
eigval :     1030.39  1063.99  1067.25  1076.75  1093.97  1116.58
eigval :     1135.31  1136.93  1157.25  1165.86  1168.47  1174.48
eigval :     1176.22  1176.45  1182.09  1205.19  1211.53  1224.53
eigval :     1234.36  1241.49  1249.60  1260.23  1274.67  1275.01
eigval :     1281.32  1290.04  1308.17  1323.11  1327.59  1330.26
eigval :     1337.33  1361.87  1394.82  1400.73  1403.88  1405.01
eigval :     1406.89  1418.47  1423.64  1433.11  1437.82  1441.83
eigval :     1445.45  1453.87  1458.88  1471.83  1474.02  1476.92
eigval :     1481.12  1482.42  1493.74  1530.06  1547.50  1562.37
eigval :     1564.61  1571.41  1575.78  1577.58  1595.89  2988.43
eigval :     3005.21  3027.46  3031.43  3045.40  3047.26  3065.09
eigval :     3066.08  3067.13  3073.80  3075.54  3076.97  3079.26
eigval :     3081.75  3082.59  3083.09  3087.45  3087.95  3088.04
eigval :     3089.85  3095.77  3095.99  3097.91  3100.81  3104.51

   temp. (K)  partition function   enthalpy   heat capacity  entropy
                                   cal/mol     cal/K/mol   cal/K/mol   J/K/mol
 298.15  VIB  0.294E+13            16810.100    107.329    103.321
         ROT  0.400E+08              888.752      2.981     37.768
         INT  0.118E+21            17698.853    110.310    141.089
         TR   0.928E+28             1481.254      4.968     44.192
         TOT                       19180.1066   115.2782   185.2807   775.2145

       T/K    H(0)-H(T)+PV         H(T)/Eh          T*S/Eh         G(T)/Eh
   ------------------------------------------------------------------------
    298.15    0.305654E-01    0.496274E+00    0.880329E-01    0.408241E+00
   ------------------------------------------------------------------------

         :::::::::::::::::::::::::::::::::::::::::::::::::::::
         ::                  THERMODYNAMIC                  ::
         :::::::::::::::::::::::::::::::::::::::::::::::::::::
         :: total free energy         -89.966137950565 Eh   ::
         ::.................................................::
         :: total energy              -90.374379342453 Eh   ::
         :: zero point energy           0.465708797044 Eh   ::
         :: G(RRHO) w/o ZPVE           -0.057467405155 Eh   ::
         :: G(RRHO) contrib.            0.408241391888 Eh   ::
         :::::::::::::::::::::::::::::::::::::::::::::::::::::

           -------------------------------------------------
          | TOTAL ENERGY              -90.374379342453 Eh   |
          | TOTAL ENTHALPY            -89.878105100019 Eh   |
          | TOTAL FREE ENERGY         -89.966137950565 Eh   |
          | GRADIENT NORM               0.000069349646 Eh/α |
          | HOMO-LUMO GAP               0.627859958204 eV   |
           -------------------------------------------------

 * finished run on 2025/08/25 at 13:33:40.369
