   * xtb version 6.7.1 (edcfbbe) compiled by 'albert@albert-system' on 2024-07-22

   ID    Z sym.   atoms
    1    6 C      1-4, 6-26, 28-35
    2    7 N      5
    3    8 O      27
    4    1 H      36-60

          program call               : xtb data2507/toluene/XCBP/XCBP_toluene_S0_crest.xyz --gfn 2 --gbsa toluene --ohess vtight --parallel 40 --molden --ceasefiles --namespace data2507/toluene/XCBP/XCBP_toluene_S0_finalOpt
      * Solvation model:               GBSA
        Solvent                        toluene
        Solvent mass                       9.2140E+01 g/mol
          :  Hamiltonian                  GFN2-xTB          :
 * total energy  :   -90.4637489 Eh     change       -0.7460116E-08 Eh
 * total energy  :   -90.4638221 Eh     change       -0.7323258E-04 Eh
 * total energy  :   -90.4638395 Eh     change       -0.1732352E-04 Eh
 * total energy  :   -90.4638439 Eh     change       -0.4394445E-05 Eh
 * total energy  :   -90.4638432 Eh     change        0.6558230E-06 Eh
 * total energy  :   -90.4638465 Eh     change       -0.3272699E-05 Eh
 * total energy  :   -90.4638501 Eh     change       -0.3611326E-05 Eh
 * total energy  :   -90.4638520 Eh     change       -0.1952696E-05 Eh
 * total energy  :   -90.4638551 Eh     change       -0.3106323E-05 Eh
 * total energy  :   -90.4638570 Eh     change       -0.1851914E-05 Eh
 * total energy  :   -90.4638615 Eh     change       -0.5695615E-06 Eh
 * total energy  :   -90.4638618 Eh     change       -0.3807189E-06 Eh
 * total energy  :   -90.4638622 Eh     change       -0.3199852E-06 Eh
 * total energy  :   -90.4638624 Eh     change       -0.2717665E-06 Eh
 * total energy  :   -90.4638627 Eh     change       -0.3122221E-06 Eh
 * total energy  :   -90.4638631 Eh     change       -0.4053318E-06 Eh
 * total energy  :   -90.4638636 Eh     change       -0.4871871E-06 Eh
 * total energy  :   -90.4638641 Eh     change       -0.4467715E-06 Eh
 * total energy  :   -90.4638641 Eh     change       -0.3927568E-08 Eh
   *** GEOMETRY OPTIMIZATION CONVERGED AFTER 22 ITERATIONS ***

 final structure:
================
60
 xtb: 6.7.1 (edcfbbe)
C            0.00575431617762       -2.03927619869750       -2.23023975036988
C           -0.50800714492990       -1.05030178708419       -1.22679884298146
C           -1.87674143695655       -0.93691583550901       -1.02800779630273
C           -2.40988347850637       -0.05883328751053       -0.09540618754605
N           -3.81135908255517        0.01300674717702        0.05479140467823
C           -4.61824831024216       -1.00192960014927        0.51736634934691
C           -4.26793903314424       -2.27289919908953        0.95094659977290
C           -5.28093255090265       -3.10517198465688        1.38643804898702
C           -6.61073319206814       -2.68613379119095        1.39907188661551
C           -6.96274504102049       -1.41835580314172        0.97955518802419
C           -5.96321219162244       -0.56238583247326        0.53359324661037
C           -5.95437358131852        0.78519724182222        0.03644596774605
C           -6.94499498832832        1.73020567046588       -0.20002171751297
C           -6.58107430561605        2.95445998468788       -0.72526133084900
C           -5.25063384987557        3.23992308966971       -1.02868389235484
C           -4.24670078580894        2.31809233762803       -0.80287672912395
C           -4.60398510835121        1.09489452414686       -0.25242903825639
C           -1.56891116831441        0.72173883671565        0.70239498469144
C           -2.11838042535397        1.62665450230600        1.76210868101860
C           -0.20360255490303        0.61021737193559        0.49489029841162
C            0.33965050461510       -0.24531090153567       -0.45996500525739
C            1.80660092505438       -0.27829293362978       -0.61003322344097
C            2.61453816369982       -0.52885674512713        0.49815533916756
C            3.99026925167181       -0.53682055874515        0.38423347913932
C            4.59281522060576       -0.29172223941158       -0.84986957221475
C            6.06218380333262       -0.32710871302537       -1.02399337629909
O            6.57195114526324       -0.70153207699283       -2.07092743959897
C            6.89315218811120        0.11212635639457        0.12342476027960
C            8.13625513088799       -0.48650329926580        0.32354680434661
C            8.94445159162396       -0.08504643926034        1.37018417976072
C            8.52962953954232        0.93442438339551        2.21311657386702
C            7.30649894546188        1.55260370798418        2.00476045770752
C            6.48642938064097        1.14347204406685        0.96898807562189
C            3.78547483607004       -0.05439137870276       -1.96258477622841
C            2.41144193117879       -0.03708517944475       -1.84248412670372
H           -0.62197117224765       -2.92826716089429       -2.23539496609740
H           -0.02122472346570       -1.61104338444811       -3.23251061521467
H            1.02975507690625       -2.33092027479159       -2.01154335901171
H           -2.55264017504364       -1.54602885020154       -1.61177607597356
H           -3.23760936103532       -2.59688434790870        0.94761033859910
H           -5.03873810409157       -4.10214797180858        1.72565917555223
H           -7.37450248168526       -3.36671012716811        1.74657942760876
H           -7.99340049650841       -1.09569942137515        0.99660519797691
H           -7.97880630303878        1.50689513112224        0.01906626116670
H           -7.33716341556894        3.70259633936499       -0.91472897108802
H           -5.00144750350569        4.20150095266638       -1.45415503909579
H           -3.21991130291442        2.53543043714585       -1.05823354835940
H           -2.51505657373163        2.54234903414546        1.32365951262309
H           -1.34095604778712        1.89638767023873        2.47239341743697
H           -2.93310801552145        1.13989795075559        2.29658812590937
H            0.46771466960654        1.21273671371570        1.09030884274523
H            2.15319810375698       -0.73470528806893        1.45299242830661
H            4.60183039485837       -0.75863222455584        1.24633326602969
H            8.44596047607855       -1.27441239413572       -0.34816153070826
H            9.90023659917096       -0.56316302557927        1.52589896654698
H            9.16295284930279        1.25183576663771        3.02835033884230
H            6.99065173716744        2.35726557763317        2.65222117407153
H            5.54150335321281        1.63760095914307        0.79741563095380
H            4.26000891000284        0.12820109998797       -2.91615804158838
H            1.79865476356136        0.17608040112755       -2.70501241968452

          :  Hamiltonian                  GFN2-xTB          :
         :: gradient norm              0.000049345977 Eh/a0 ::
         :: HOMO-LUMO gap              1.892724075971 eV    ::
         :: SCC energy               -92.118699978214 Eh    ::
         :: -> dispersion             -0.076738267089 Eh    ::
         :: -> Gsolv                  -0.041347900721 Eh    ::
         :: repulsion energy           1.654835894416 Eh    ::

    * Orbital Energies and Occupations

         #    Occupation            Energy/Eh            Energy/eV
      -------------------------------------------------------------
         1        2.0000           -0.7093009             -19.3011
       ...           ...                  ...                  ...
        72        2.0000           -0.4203319             -11.4378
        73        2.0000           -0.4179129             -11.3720
        74        2.0000           -0.4174737             -11.3600
        75        2.0000           -0.4163776             -11.3302
        76        2.0000           -0.4156293             -11.3098
        77        2.0000           -0.4152223             -11.2988
        78        2.0000           -0.4145748             -11.2812
        79        2.0000           -0.4031231             -10.9695
        80        2.0000           -0.4012783             -10.9193
        81        2.0000           -0.3932325             -10.7004
        82        2.0000           -0.3901321             -10.6160
        83        2.0000           -0.3764868             -10.2447
        84        2.0000           -0.3607118              -9.8155 (HOMO)
        85                         -0.2911554              -7.9227 (LUMO)
        86                         -0.2470478              -6.7225
        87                         -0.2425322              -6.5996
        88                         -0.2354568              -6.4071
        89                         -0.2324072              -6.3241
        90                         -0.2260492              -6.1511
        91                         -0.2227724              -6.0619
        92                         -0.2197756              -5.9804
        93                         -0.1921982              -5.2300
        94                         -0.1866398              -5.0787
        95                         -0.1842264              -5.0131
       ...                                ...                  ...
       165                          0.7468765              20.3235
      -------------------------------------------------------------
                  HL-Gap            0.0695564 Eh            1.8927 eV

     #   Z          covCN         q      C6AA      α(0)
     1   6 C        3.758    -0.110    22.652     6.786
     2   6 C        2.967     0.014    27.701     8.633
     3   6 C        2.928    -0.053    29.305     8.878
     4   6 C        2.916     0.051    26.861     8.499
     5   7 N        2.804    -0.046    22.125     6.986
     6   6 C        3.083     0.048    26.841     8.493
     7   6 C        2.909    -0.053    29.305     8.877
     8   6 C        2.924    -0.036    28.889     8.814
     9   6 C        2.919    -0.044    29.097     8.846
    10   6 C        2.912    -0.036    28.888     8.813
    11   6 C        3.068    -0.021    28.451     8.746
    12   6 C        3.068    -0.020    28.445     8.745
    13   6 C        2.912    -0.035    28.880     8.812
    14   6 C        2.919    -0.044    29.094     8.845
    15   6 C        2.924    -0.036    28.895     8.815
    16   6 C        2.909    -0.052    29.286     8.874
    17   6 C        3.082     0.049    26.803     8.487
    18   6 C        2.965     0.005    27.909     8.665
    19   6 C        3.757    -0.106    22.586     6.776
    20   6 C        2.933    -0.045    29.128     8.851
    21   6 C        2.979    -0.002    28.071     8.691
    22   6 C        2.978     0.024    27.459     8.596
    23   6 C        2.923    -0.032    28.803     8.801
    24   6 C        2.919    -0.026    28.658     8.779
    25   6 C        2.972    -0.017    28.426     8.745
    26   6 C        2.829     0.227    23.245     7.900
    27   8 O        0.858    -0.425    22.193     6.316
    28   6 C        2.972    -0.013    28.345     8.733
    29   6 C        2.924    -0.017    28.444     8.746
    30   6 C        2.917    -0.026    28.655     8.778
    31   6 C        2.920    -0.022    28.550     8.762
    32   6 C        2.918    -0.026    28.659     8.779
    33   6 C        2.921    -0.025    28.640     8.776
    34   6 C        2.922    -0.018    28.468     8.750
    35   6 C        2.921    -0.031    28.764     8.795
    36   1 H        0.925     0.049     2.329     2.386
    37   1 H        0.924     0.054     2.276     2.359
    38   1 H        0.925     0.047     2.359     2.402
    39   1 H        0.926     0.042     2.424     2.435
    40   1 H        0.926     0.027     2.625     2.534
    41   1 H        0.926     0.027     2.623     2.533
    42   1 H        0.926     0.025     2.661     2.551
    43   1 H        0.926     0.027     2.627     2.535
    44   1 H        0.926     0.027     2.627     2.534
    45   1 H        0.926     0.025     2.661     2.551
    46   1 H        0.926     0.027     2.626     2.534
    47   1 H        0.926     0.027     2.632     2.537
    48   1 H        0.925     0.054     2.271     2.356
    49   1 H        0.925     0.049     2.330     2.387
    50   1 H        0.925     0.045     2.381     2.413
    51   1 H        0.926     0.043     2.411     2.428
    52   1 H        0.926     0.047     2.359     2.402
    53   1 H        0.926     0.043     2.407     2.426
    54   1 H        0.926     0.043     2.414     2.429
    55   1 H        0.926     0.044     2.394     2.419
    56   1 H        0.926     0.047     2.363     2.404
    57   1 H        0.926     0.046     2.366     2.405
    58   1 H        0.926     0.043     2.403     2.424
    59   1 H        0.926     0.044     2.401     2.423
    60   1 H        0.926     0.049     2.338     2.391

molecular dipole:
                 x           y           z       tot (Debye)
 q only:       -0.049       0.493       1.330
   full:       -0.028       0.499       1.344       3.644

 projected vibrational frequencies (cm⁻¹)
eigval :       -0.00    -0.00    -0.00    -0.00     0.00     0.00
eigval :       11.25    16.19    20.19    31.44    39.59    42.05
eigval :       64.50    69.17    87.10    97.98   103.00   112.92
eigval :      121.58   128.37   132.28   147.24   177.81   192.28
eigval :      204.55   209.01   222.32   265.90   270.86   278.38
eigval :      285.69   323.29   344.10   363.02   365.03   374.97
eigval :      393.90   396.69   408.65   423.19   431.55   432.09
eigval :      456.89   472.96   482.29   518.01   520.62   541.68
eigval :      542.98   551.70   573.91   586.07   588.54   599.39
eigval :      618.77   641.17   645.92   665.36   674.02   678.69
eigval :      691.18   703.77   709.28   719.55   745.10   755.11
eigval :      764.34   775.65   778.44   796.37   825.84   864.75
eigval :      868.44   872.55   874.11   879.07   888.74   891.60
eigval :      896.55   899.84   901.84   909.41   914.40   921.06
eigval :      922.68   922.86   929.25   932.68   936.79   980.05
eigval :     1001.36  1010.08  1015.00  1027.12  1029.46  1033.89
eigval :     1038.85  1066.16  1069.19  1079.10  1096.32  1118.59
eigval :     1134.41  1147.93  1161.81  1174.53  1176.29  1179.76
eigval :     1180.03  1186.64  1188.12  1198.57  1217.97  1236.04
eigval :     1237.76  1249.83  1263.27  1264.95  1276.43  1292.57
eigval :     1305.71  1308.88  1312.40  1318.18  1320.51  1355.87
eigval :     1362.46  1370.68  1391.59  1401.78  1405.16  1411.22
eigval :     1427.06  1428.05  1441.23  1459.40  1471.77  1472.81
eigval :     1475.43  1476.52  1479.02  1483.62  1487.47  1505.60
eigval :     1553.07  1560.94  1571.23  1577.27  1584.70  1587.94
eigval :     1588.37  1596.30  1598.24  1614.49  1649.41  2995.93
eigval :     3001.09  3022.14  3027.89  3044.67  3046.09  3068.16
eigval :     3068.41  3072.84  3073.55  3075.21  3075.80  3076.02
eigval :     3077.38  3078.22  3079.53  3079.87  3080.41  3083.16
eigval :     3087.49  3088.44  3089.27  3090.05  3095.22  3095.95

   temp. (K)  partition function   enthalpy   heat capacity  entropy
                                   cal/mol     cal/K/mol   cal/K/mol   J/K/mol
 298.15  VIB  0.130E+14            16845.881    105.589    105.083
         ROT  0.398E+08              888.752      2.981     37.757
         INT  0.517E+21            17734.633    108.570    142.840
         TR   0.928E+28             1481.254      4.968     44.192
         TOT                       19215.8872   113.5377   187.0317   782.5407

       T/K    H(0)-H(T)+PV         H(T)/Eh          T*S/Eh         G(T)/Eh
   ------------------------------------------------------------------------
    298.15    0.306225E-01    0.499464E+00    0.888648E-01    0.410599E+00
   ------------------------------------------------------------------------

         :::::::::::::::::::::::::::::::::::::::::::::::::::::
         ::                  THERMODYNAMIC                  ::
         :::::::::::::::::::::::::::::::::::::::::::::::::::::
         :: total free energy         -90.053265043747 Eh   ::
         ::.................................................::
         :: total energy              -90.463864085140 Eh   ::
         :: zero point energy           0.468841376334 Eh   ::
         :: G(RRHO) w/o ZPVE           -0.058242334941 Eh   ::
         :: G(RRHO) contrib.            0.410599041393 Eh   ::
         :::::::::::::::::::::::::::::::::::::::::::::::::::::

           -------------------------------------------------
          | TOTAL ENERGY              -90.463864085140 Eh   |
          | TOTAL ENTHALPY            -89.964400243378 Eh   |
          | TOTAL FREE ENERGY         -90.053265043747 Eh   |
          | GRADIENT NORM               0.000049324864 Eh/α |
          | HOMO-LUMO GAP               1.892724776245 eV   |
           -------------------------------------------------

 * finished run on 2025/08/25 at 13:29:57.247
