   * xtb version 6.7.1 (edcfbbe) compiled by 'albert@albert-system' on 2024-07-22

   ID    Z sym.   atoms
    1    6 C      1-4, 6-26, 28-35
    2    7 N      5
    3    8 O      27
    4    1 H      36-60

          program call               : xtb data2507/toluene/XCBP/XCBP.xyz --gfn 2 --gbsa toluene --ohess vtight --parallel 40 --molden --ceasefiles --namespace data2507/toluene/XCBP/XCBP_toluene_S0_preOpt
      * Solvation model:               GBSA
        Solvent                        toluene
        Solvent mass                       9.2140E+01 g/mol
          :  Hamiltonian                  GFN2-xTB          :
 * total energy  :   -90.4512387 Eh     change       -0.6985999E-08 Eh
 * total energy  :   -90.4604077 Eh     change       -0.9168959E-02 Eh
 * total energy  :   -90.4619953 Eh     change       -0.1587592E-02 Eh
 * total energy  :   -90.4623582 Eh     change       -0.3629501E-03 Eh
 * total energy  :   -90.4626670 Eh     change       -0.3088059E-03 Eh
 * total energy  :   -90.4627729 Eh     change       -0.1059119E-03 Eh
 * total energy  :   -90.4628707 Eh     change       -0.9771995E-04 Eh
 * total energy  :   -90.4629707 Eh     change       -0.1000166E-03 Eh
 * total energy  :   -90.4630786 Eh     change       -0.1079284E-03 Eh
 * total energy  :   -90.4631727 Eh     change       -0.9405316E-04 Eh
 * total energy  :   -90.4638432 Eh     change       -0.2486876E-06 Eh
 * total energy  :   -90.4638435 Eh     change       -0.2099727E-06 Eh
 * total energy  :   -90.4638436 Eh     change       -0.1667171E-06 Eh
 * total energy  :   -90.4638438 Eh     change       -0.1552330E-06 Eh
 * total energy  :   -90.4638439 Eh     change       -0.1680037E-06 Eh
 * total energy  :   -90.4638441 Eh     change       -0.2017413E-06 Eh
 * total energy  :   -90.4638444 Eh     change       -0.2623089E-06 Eh
 * total energy  :   -90.4638447 Eh     change       -0.2789380E-06 Eh
 * total energy  :   -90.4638447 Eh     change       -0.3782773E-08 Eh
   *** GEOMETRY OPTIMIZATION CONVERGED AFTER 94 ITERATIONS ***

 final structure:
================
60
 xtb: 6.7.1 (edcfbbe)
C            0.66518795255161        1.36056542911842       -1.70677115961668
C           -0.16980778296209        0.64416725903880       -0.68772118986267
C           -1.54926551492124        0.61706364894550       -0.83681828708792
C           -2.37086138483716       -0.01357678287848        0.08611529717916
N           -3.76738986125134       -0.01023446169527       -0.12223893841629
C           -4.54450474018268       -1.10768629857567       -0.41155688167712
C           -4.16071901044585       -2.42579038955141       -0.61679123122821
C           -5.14969232359453       -3.34578052898729       -0.90684524201000
C           -6.48857972641057       -2.96804814702617       -0.99997512245514
C           -6.87260909261142       -1.65384201192480       -0.81963671255027
C           -5.89734557171400       -0.70842458177060       -0.52725989739093
C           -5.92123801583622        0.70984971255688       -0.30155302794869
C           -6.92998359431150        1.66510662118561       -0.27717116020707
C           -6.59273020058468        2.97827107212641       -0.01439716139605
C           -5.27018866874757        3.34701106655666        0.22892019396666
C           -4.24870744807491        2.41711539883655        0.21131375925443
C           -4.58150642974934        1.09785596560881       -0.06215440980810
C           -1.82600403883299       -0.62016448751256        1.22097108447117
C           -2.70058627035634       -1.25547181760967        2.25768126622739
C           -0.44830718594798       -0.59185370591422        1.36434629238571
C            0.38688186199214        0.01241953798297        0.42848419466925
C            1.84212299894911       -0.02600322314112        0.66773694048824
C            2.71404963137404       -0.56581630995071       -0.27612954307356
C            4.07328605260605       -0.61203583971278       -0.03883748642893
C            4.59429586136891       -0.11875531485519        1.15765072850946
C            6.04083109827114       -0.17356815511272        1.46586848719791
O            6.44382251773768       -0.30484227947444        2.61342478430970
C            6.98493823407853       -0.06144937576066        0.32724239186153
C            6.71325681052111        0.75028614011602       -0.77337508948658
C            7.63525369325218        0.85688134871794       -1.79877472768268
C            8.82833907412441        0.15343558971887       -1.74121146708550
C            9.10980561761020       -0.64680042229472       -0.64469233967763
C            8.19878719524855       -0.74459166218906        0.38986388875161
C            3.71936147209009        0.39249831962696        2.11682771616207
C            2.36299565111357        0.44425645875359        1.87253860932044
H            0.90080157402002        0.69622668744381       -2.53832053883118
H            0.11907795907500        2.21159604965530       -2.10829733386961
H            1.59936594817056        1.71034902107467       -1.27499562148667
H           -2.00412570905893        1.09836437848799       -1.69131358626619
H           -3.12224446937885       -2.71812381897382       -0.56149546301462
H           -4.88093258294022       -4.37993034817227       -1.06829009840918
H           -7.23302743600391       -3.71771787454458       -1.22600735708114
H           -7.90913686852767       -1.36289588471682       -0.90715409763510
H           -7.95659297253392        1.38277370631396       -0.45885315008770
H           -7.36337224776144        3.73522079803857        0.00758898167007
H           -5.04102625316170        4.38231999589870        0.43688739667719
H           -3.22537424901477        2.70319327977646        0.40502675509341
H           -2.14333553306325       -1.42334549097745        3.17574258155076
H           -3.08328903078517       -2.21405681212738        1.90718009059703
H           -3.55846049464394       -0.62033506095215        2.47535933529648
H           -0.00134996099070       -1.06236388757876        2.22878634999587
H            2.31710126363883       -0.96926733455714       -1.19513479710597
H            4.73304114622052       -1.05492092501664       -0.77018655085691
H            5.79272787155017        1.31374004751521       -0.81119479744364
H            7.42296496705538        1.49187718473832       -2.64623499846547
H            9.54209947478110        0.23397310991959       -2.54777101972164
H           10.04196683859634       -1.18978117316016       -0.59385143754222
H            8.40433541562119       -1.35728218370306        1.25608143041122
H            4.12909823294233        0.75749020766934        3.04783298840832
H            1.69649825467420        0.86085155500289        2.61354237845309

          :  Hamiltonian                  GFN2-xTB          :
         :: gradient norm              0.000056162192 Eh/a0 ::
         :: HOMO-LUMO gap              1.887924969640 eV    ::
         :: SCC energy               -92.118587070343 Eh    ::
         :: -> dispersion             -0.076740742293 Eh    ::
         :: -> Gsolv                  -0.041502244606 Eh    ::
         :: repulsion energy           1.654742381250 Eh    ::

    * Orbital Energies and Occupations

         #    Occupation            Energy/Eh            Energy/eV
      -------------------------------------------------------------
         1        2.0000           -0.7091139             -19.2960
       ...           ...                  ...                  ...
        72        2.0000           -0.4202195             -11.4348
        73        2.0000           -0.4178951             -11.3715
        74        2.0000           -0.4175233             -11.3614
        75        2.0000           -0.4163753             -11.3301
        76        2.0000           -0.4155825             -11.3086
        77        2.0000           -0.4153234             -11.3015
        78        2.0000           -0.4145018             -11.2792
        79        2.0000           -0.4030934             -10.9687
        80        2.0000           -0.4013626             -10.9216
        81        2.0000           -0.3932645             -10.7013
        82        2.0000           -0.3902308             -10.6187
        83        2.0000           -0.3764127             -10.2427
        84        2.0000           -0.3607257              -9.8158 (HOMO)
        85                         -0.2913458              -7.9279 (LUMO)
        86                         -0.2469856              -6.7208
        87                         -0.2425176              -6.5992
        88                         -0.2354367              -6.4066
        89                         -0.2323626              -6.3229
        90                         -0.2260836              -6.1520
        91                         -0.2229149              -6.0658
        92                         -0.2197264              -5.9791
        93                         -0.1920104              -5.2249
        94                         -0.1867246              -5.0810
        95                         -0.1841665              -5.0114
       ...                                ...                  ...
       165                          0.7470012              20.3269
      -------------------------------------------------------------
                  HL-Gap            0.0693800 Eh            1.8879 eV

     #   Z          covCN         q      C6AA      α(0)
     1   6 C        3.758    -0.110    22.664     6.787
     2   6 C        2.967     0.014    27.701     8.633
     3   6 C        2.928    -0.052    29.302     8.877
     4   6 C        2.916     0.051    26.862     8.499
     5   7 N        2.804    -0.046    22.132     6.987
     6   6 C        3.082     0.049    26.801     8.487
     7   6 C        2.909    -0.052    29.290     8.874
     8   6 C        2.924    -0.036    28.896     8.815
     9   6 C        2.919    -0.044    29.096     8.846
    10   6 C        2.912    -0.035    28.880     8.812
    11   6 C        3.068    -0.020    28.446     8.745
    12   6 C        3.068    -0.021    28.452     8.746
    13   6 C        2.912    -0.036    28.888     8.813
    14   6 C        2.919    -0.044    29.100     8.846
    15   6 C        2.924    -0.036    28.890     8.814
    16   6 C        2.909    -0.053    29.307     8.877
    17   6 C        3.083     0.048    26.838     8.493
    18   6 C        2.965     0.005    27.903     8.664
    19   6 C        3.757    -0.106    22.578     6.775
    20   6 C        2.932    -0.045    29.118     8.850
    21   6 C        2.979    -0.002    28.066     8.690
    22   6 C        2.978     0.024    27.455     8.595
    23   6 C        2.922    -0.031    28.766     8.795
    24   6 C        2.919    -0.027    28.666     8.780
    25   6 C        2.972    -0.017    28.427     8.746
    26   6 C        2.829     0.226    23.248     7.901
    27   8 O        0.858    -0.426    22.206     6.318
    28   6 C        2.972    -0.013    28.343     8.733
    29   6 C        2.921    -0.026    28.641     8.776
    30   6 C        2.918    -0.026    28.660     8.779
    31   6 C        2.920    -0.022    28.551     8.762
    32   6 C        2.917    -0.026    28.656     8.778
    33   6 C        2.924    -0.017    28.444     8.746
    34   6 C        2.922    -0.018    28.457     8.748
    35   6 C        2.922    -0.032    28.797     8.800
    36   1 H        0.925     0.055     2.257     2.349
    37   1 H        0.925     0.050     2.325     2.384
    38   1 H        0.925     0.048     2.347     2.396
    39   1 H        0.926     0.042     2.416     2.431
    40   1 H        0.926     0.026     2.637     2.540
    41   1 H        0.926     0.027     2.627     2.535
    42   1 H        0.926     0.025     2.662     2.551
    43   1 H        0.926     0.027     2.627     2.535
    44   1 H        0.926     0.027     2.628     2.535
    45   1 H        0.926     0.025     2.662     2.551
    46   1 H        0.926     0.027     2.623     2.533
    47   1 H        0.926     0.027     2.629     2.536
    48   1 H        0.925     0.048     2.341     2.393
    49   1 H        0.925     0.054     2.275     2.359
    50   1 H        0.925     0.045     2.377     2.411
    51   1 H        0.926     0.041     2.431     2.438
    52   1 H        0.926     0.050     2.316     2.380
    53   1 H        0.926     0.044     2.393     2.419
    54   1 H        0.926     0.044     2.399     2.422
    55   1 H        0.926     0.047     2.362     2.403
    56   1 H        0.926     0.047     2.363     2.404
    57   1 H        0.926     0.044     2.395     2.420
    58   1 H        0.926     0.042     2.416     2.431
    59   1 H        0.926     0.043     2.405     2.425
    60   1 H        0.926     0.045     2.386     2.416

molecular dipole:
                 x           y           z       tot (Debye)
 q only:        0.118       0.173      -1.516
   full:        0.142       0.164      -1.540       3.952

 projected vibrational frequencies (cm⁻¹)
eigval :       -0.00    -0.00    -0.00    -0.00     0.00     0.00
eigval :        8.24    13.79    20.67    28.74    39.74    45.17
eigval :       55.80    72.69    79.83   101.21   108.85   118.16
eigval :      127.52   131.70   146.77   150.40   179.95   194.78
eigval :      204.18   208.18   225.50   267.20   270.06   280.65
eigval :      283.85   317.68   344.72   364.82   367.65   378.38
eigval :      394.30   395.53   409.22   422.64   431.05   433.03
eigval :      457.25   472.59   481.95   518.24   518.64   541.97
eigval :      543.90   551.36   576.22   586.24   588.42   598.36
eigval :      616.92   641.34   647.41   667.33   673.95   677.99
eigval :      690.93   704.04   709.60   718.76   749.20   755.13
eigval :      767.03   773.99   778.83   793.35   829.88   864.69
eigval :      868.26   871.20   874.66   878.94   889.42   892.82
eigval :      899.12   900.45   901.22   909.75   919.63   921.03
eigval :      921.49   924.96   928.82   933.47   935.90   980.18
eigval :     1001.15  1010.34  1014.60  1028.08  1032.15  1034.96
eigval :     1039.81  1065.72  1069.14  1079.08  1096.11  1118.53
eigval :     1135.97  1148.10  1160.98  1174.71  1176.88  1179.45
eigval :     1180.51  1188.03  1189.54  1199.10  1218.11  1236.18
eigval :     1238.33  1251.94  1263.89  1265.69  1276.27  1292.62
eigval :     1306.43  1308.68  1312.45  1318.03  1320.46  1355.78
eigval :     1362.78  1371.02  1392.28  1402.83  1404.98  1411.11
eigval :     1427.34  1428.14  1441.66  1459.26  1471.63  1472.78
eigval :     1475.46  1475.95  1480.93  1484.67  1487.67  1505.62
eigval :     1552.93  1560.71  1571.24  1577.38  1584.88  1587.81
eigval :     1588.50  1596.54  1598.40  1614.69  1648.53  2999.37
eigval :     3000.84  3019.10  3033.55  3044.06  3044.60  3067.71
eigval :     3068.05  3072.42  3073.31  3075.18  3075.62  3077.11
eigval :     3077.25  3077.41  3079.30  3080.60  3081.69  3083.26
eigval :     3087.33  3087.71  3088.04  3089.89  3095.16  3097.19

   temp. (K)  partition function   enthalpy   heat capacity  entropy
                                   cal/mol     cal/K/mol   cal/K/mol   J/K/mol
 298.15  VIB  0.183E+14            16808.924    105.438    105.024
         ROT  0.392E+08              888.752      2.981     37.726
         INT  0.716E+21            17697.676    108.419    142.750
         TR   0.928E+28             1481.254      4.968     44.192
         TOT                       19178.9304   113.3868   186.9418   782.1646

       T/K    H(0)-H(T)+PV         H(T)/Eh          T*S/Eh         G(T)/Eh
   ------------------------------------------------------------------------
    298.15    0.305636E-01    0.499572E+00    0.888221E-01    0.410749E+00
   ------------------------------------------------------------------------

         :::::::::::::::::::::::::::::::::::::::::::::::::::::
         ::                  THERMODYNAMIC                  ::
         :::::::::::::::::::::::::::::::::::::::::::::::::::::
         :: total free energy         -90.053095239917 Eh   ::
         ::.................................................::
         :: total energy              -90.463844684185 Eh   ::
         :: zero point energy           0.469007964967 Eh   ::
         :: G(RRHO) w/o ZPVE           -0.058258520699 Eh   ::
         :: G(RRHO) contrib.            0.410749444267 Eh   ::
         :::::::::::::::::::::::::::::::::::::::::::::::::::::

           -------------------------------------------------
          | TOTAL ENERGY              -90.463844684185 Eh   |
          | TOTAL ENTHALPY            -89.964273148169 Eh   |
          | TOTAL FREE ENERGY         -90.053095239917 Eh   |
          | GRADIENT NORM               0.000056154117 Eh/α |
          | HOMO-LUMO GAP               1.887924847209 eV   |
           -------------------------------------------------

 * finished run on 2025/08/25 at 13:27:35.063
