   * xtb version 6.7.1 (edcfbbe) compiled by 'albert@albert-system' on 2024-07-22

   ID    Z sym.   atoms
    1    7 N      1, 5, 19, 41, 43, 57
    2    6 C      2-4, 6-18, 20-27, 29-40, 42, 44-56, 58-65, 67-76
    3   16 S      28, 66
    4    1 H      77-112

          program call               : xtb data2507/gas/2BTCz2CzTPN/2BTCz2CzTPN_gas_S0_finalOpt.xtbopt.xyz --gfn 2 --spinpol --tblite --uhf 2 --ohess vtight --parallel 40 --molden --ceasefiles --namespace data2507/gas/2BTCz2CzTPN/2BTCz2CzTPN_gas_T1_preOpt
 * total energy  :  -188.0830701 Eh     change        0.1977213E-08 Eh
 * total energy  :  -188.0878160 Eh     change       -0.4745859E-02 Eh
 * total energy  :  -188.0891532 Eh     change       -0.1337261E-02 Eh
 * total energy  :  -188.0892176 Eh     change       -0.6440601E-04 Eh
 * total energy  :  -188.0892513 Eh     change       -0.3365771E-04 Eh
 * total energy  :  -188.0892640 Eh     change       -0.1268344E-04 Eh
 * total energy  :  -188.0892791 Eh     change       -0.1510220E-04 Eh
 * total energy  :  -188.0892923 Eh     change       -0.1322601E-04 Eh
 * total energy  :  -188.0893028 Eh     change       -0.1049580E-04 Eh
 * total energy  :  -188.0893126 Eh     change       -0.9808106E-05 Eh
 * total energy  :  -188.0893317 Eh     change       -0.1465954E-05 Eh
 * total energy  :  -188.0893328 Eh     change       -0.1112203E-05 Eh
 * total energy  :  -188.0893336 Eh     change       -0.8183939E-06 Eh
 * total energy  :  -188.0893340 Eh     change       -0.4294541E-06 Eh
 * total energy  :  -188.0893344 Eh     change       -0.3890760E-06 Eh
 * total energy  :  -188.0893347 Eh     change       -0.2980082E-06 Eh
 * total energy  :  -188.0893350 Eh     change       -0.2384873E-06 Eh
 * total energy  :  -188.0893351 Eh     change       -0.1343073E-06 Eh
 * total energy  :  -188.0893352 Eh     change       -0.9550169E-07 Eh
   *** GEOMETRY OPTIMIZATION CONVERGED AFTER 22 ITERATIONS ***

 final structure:
================
112
 xtb: 6.7.1 (edcfbbe)
N           -1.50246373250670       -3.65416192804250        0.86514069132303
C           -1.06061356937021       -2.58466746661977        0.85567218164751
C           -0.53613836959238       -1.30159881180514        0.83875938079976
C            0.87966082741695       -1.08327121765620        0.83832002105919
N            1.73776588735907       -2.19458371510747        0.85876517297356
C            2.77354916921542       -2.40001739380384       -0.02816633842460
C            2.99717412027467       -1.80620489950899       -1.26184453623229
C            4.13884416488886       -2.16852436093013       -1.95233167519740
C            5.02128332728741       -3.11474342508204       -1.44103747754777
C            4.76528754985906       -3.75838830641766       -0.24200176753045
C            3.62812206422597       -3.41021461988371        0.46814407479207
C            3.04887334538284       -3.85378966693928        1.70832457397220
C            3.42391597532631       -4.79624840737572        2.65187183516918
C            2.63350376140723       -4.95758620673858        3.77594707114554
C            1.49000998736022       -4.18703081952138        3.96693282982164
C            1.09938763608080       -3.23606491815227        3.04355646999178
C            1.88090545714795       -3.08126479561696        1.90742459940809
C            1.39646853611147        0.19275987357464        0.80418005554342
N            2.78925606159612        0.38751414379617        0.80058781009717
C            3.65476350812478       -0.18334578300218        1.70905237741802
C            3.37955824371871       -0.74054522279699        2.94946472037689
C            4.43753331211239       -1.26694104368214        3.66466842942069
C            5.73948178633151       -1.22263535952543        3.17081232811288
C            6.02710027256582       -0.62112016867426        1.95960289348665
C            4.97920036358941       -0.08785764546227        1.22425666310196
C            4.89260858195387        0.59633960500074       -0.03189441901975
C            5.80778336319436        0.95444000070087       -1.00872046820718
S            7.52378908261660        0.66217787395293       -0.99150416093671
C            7.69179139262523        1.42433754696160       -2.56149529197394
C            8.87448342873746        1.58308581256419       -3.26125289278549
C            8.83146274908502        2.21139365916490       -4.49258001896792
C            7.62604625091282        2.67199612619721       -5.01250195031064
C            6.44741460658342        2.51181946467301       -4.31284220146808
C            6.46382488524292        1.88191255389335       -3.07059315414150
C            5.37092334665237        1.60667096293183       -2.17727348371260
C            4.01290092724816        1.88919003054832       -2.35568362531865
C            3.08283472834074        1.52723167940370       -1.40731921618651
C            3.52566382803863        0.88476998367289       -0.25191815874186
C            0.53568740772732        1.33701190629907        0.78594539228159
C            1.06024951061977        2.61965644885774        0.75122475994637
N            1.50236924725375        3.68859706179517        0.71766219484446
C           -0.88012102194790        1.11881764440509        0.79281126792315
N           -1.73814870589051        2.23006313897291        0.76759463029436
C           -2.77344207824619        2.39943700128352       -0.12749475440857
C           -2.99655998214666        1.75600729638352       -1.33612552987172
C           -4.13795265264391        2.08996708545424       -2.04121026504353
C           -5.02055755114072        3.05621911050799       -1.56915953958976
C           -4.76497447989510        3.74812473962806       -0.39723465512747
C           -3.62810156353867        3.42907264699154        0.32694214547383
C           -3.04935984189994        3.92266592054354        1.54830277527191
C           -3.42467434171783        4.90284454572423        2.45251327054042
C           -2.63480498028538        5.10964516584917        3.56949208753779
C           -1.49163970989590        4.34719845788126        3.79233503821663
C           -1.10077429220342        3.35932935679926        2.90864823382135
C           -1.88165919020326        3.15867683597062        1.77928552758365
C           -1.39692217522318       -0.15756434996901        0.80969502975062
N           -2.78966682786186       -0.35253625542273        0.81227964967950
C           -3.65655200654745        0.25447458826352        1.69564199811211
C           -3.38313234396469        0.86221217645541        2.91249495662367
C           -4.44223007087085        1.41697462743990        3.60421148289128
C           -5.74356364312997        1.35171935682115        3.11104989987699
C           -6.02942928795321        0.70075582011269        1.92526389593268
C           -4.98037188668582        0.13835059076733        1.21366450709827
C           -4.89194097158019       -0.59672765619974       -0.01327068357877
C           -5.80584754752164       -0.99541717384879       -0.97545828789953
S           -7.52215488690324       -0.70444514888119       -0.97175087806160
C           -7.68798520885422       -1.53066732205053       -2.50923201061986
C           -8.86990964764943       -1.71934746242547       -3.20282605885156
C           -8.82516356830039       -2.39766141688019       -4.40726782474551
C           -7.61880401576165       -2.87787405215105       -4.90686177750401
C           -6.44094332985599       -2.68779525207373       -4.21340942794030
C           -6.45909498490969       -2.00742906024596       -2.99808835259881
C           -5.36727639392260       -1.69461774387707       -2.11586845735367
C           -4.00882438084073       -1.98289201177485       -2.28129504430749
C           -3.08002287357770       -1.58163324496392       -1.34761104882219
C           -3.52456484369450       -0.89290854843847       -0.21984885009985
H            2.30020747269295       -1.09247728508374       -1.67455424923743
H            4.34709217307688       -1.70632162053512       -2.90572753074997
H            5.91021732985404       -3.36260745538397       -2.00104021912058
H            5.43587211613536       -4.51586342239811        0.13340387976806
H            4.31575108632056       -5.38736387052100        2.51069362315199
H            2.90649117728036       -5.69002388553904        4.52072085650200
H            0.89527921198224       -4.33360005403235        4.85584155633558
H            0.21246626562954       -2.64275168161058        3.20306819762162
H            2.37579243529643       -0.75687745006688        3.34613573252738
H            4.24909653533647       -1.72167012133404        4.62530380991436
H            6.53824655510808       -1.65246674797717        3.75584102964162
H            7.03924906030945       -0.56249686510629        1.58987779309034
H            9.80492512814530        1.22396208938114       -2.84980180209812
H            9.74338581320447        2.34589496185175       -5.05421003981798
H            7.61467967621085        3.16119844374852       -5.97487773214305
H            5.51485618936685        2.87271706607540       -4.71908663019174
H            3.69355127528038        2.39140259227670       -3.25538519057039
H            2.03638027032611        1.74042646965150       -1.55700350597999
H           -2.29944822146406        1.02610273103502       -1.71923250751416
H           -4.34585579895139        1.58936926201155       -2.97509413295534
H           -5.90928972494420        3.28108419422716       -2.13910184264451
H           -5.43564844943111        4.52028012621400       -0.05320749346062
H           -4.31631500271789        5.48788837491344        2.28692240867390
H           -2.90798307911654        5.87187351101561        4.28367539279855
H           -0.89735110761881        4.52967630909301        4.67486944864250
H           -0.21412697395794        2.77276302087828        3.09273669452465
H           -2.37987100392280        0.89533402128267        3.30939041575756
H           -4.25517070898611        1.91088777408844        4.54557477467676
H           -6.54324062179136        1.80481062224740        3.67696812481291
H           -7.04110483304844        0.62639956942661        1.55707596796031
H           -9.80108962107771       -1.34467482693469       -2.80721537336635
H           -9.73646408839024       -2.55615104156638       -4.96362582569158
H           -7.60608663329548       -3.40616816302778       -5.84832753845182
H           -5.50765343207861       -3.06404055811774       -4.60373839772156
H           -3.68812305812781       -2.52116352826963       -3.15940756587803
H           -2.03323858201019       -1.79981042815857       -1.48748852262216

 projected vibrational frequencies (cm⁻¹)
eigval :       -0.00    -0.00    -0.00     0.00     0.00     0.00
eigval :        8.15    10.95    11.02    14.15    21.89    28.19
eigval :       33.81    34.65    35.01    46.76    49.68    57.47
eigval :       60.18    60.33    65.57    74.58    75.90    82.29
eigval :       88.19   104.62   105.29   110.81   114.34   117.26
eigval :      119.31   124.49   127.88   130.87   138.08   138.43
eigval :      142.22   143.90   161.23   162.17   192.02   194.04
eigval :      200.52   206.78   212.12   212.20   219.49   230.68
eigval :      247.42   255.69   261.27   269.04   273.89   275.37
eigval :      282.64   291.08   305.06   320.19   330.11   334.60
eigval :      360.84   371.71   380.96   383.42   387.48   395.56
eigval :      396.68   398.60   401.58   408.34   410.25   411.99
eigval :      415.48   422.60   423.70   423.85   430.78   431.97
eigval :      435.59   441.98   448.98   455.10   466.53   478.94
eigval :      480.77   488.42   489.04   492.99   493.87   499.92
eigval :      500.84   507.67   515.63   516.84   521.36   536.26
eigval :      537.42   538.85   539.04   544.70   550.54   552.02
eigval :      566.87   566.89   578.90   584.75   586.36   594.66
eigval :      595.43   598.95   601.17   616.04   629.08   630.82
eigval :      645.17   647.84   660.74   660.89   665.73   666.11
eigval :      672.92   672.95   683.88   687.98   688.53   691.66
eigval :      702.29   702.82   707.22   707.36   709.71   717.21
eigval :      738.09   744.22   753.97   758.39   766.87   767.59
eigval :      771.37   771.42   774.11   774.25   777.86   777.93
eigval :      804.52   813.17   813.82   816.41   836.62   837.16
eigval :      864.97   865.22   867.98   869.31   869.32   874.14
eigval :      874.16   874.46   874.50   890.92   892.54   892.77
eigval :      896.59   901.35   901.47   903.87   904.11   904.64
eigval :      904.66   905.56   905.57   914.88   919.60   919.65
eigval :      920.65   920.67   921.48   921.65   921.65   921.71
eigval :      931.54   973.71   999.16  1001.43  1011.23  1011.50
eigval :     1035.28  1045.97  1046.53  1064.56  1067.70  1067.75
eigval :     1068.47  1068.71  1071.35  1072.60  1075.98  1076.05
eigval :     1084.50  1109.33  1115.21  1121.48  1141.47  1141.58
eigval :     1142.77  1143.96  1144.29  1152.49  1155.61  1156.68
eigval :     1158.45  1174.48  1175.82  1177.29  1178.12  1178.17
eigval :     1178.78  1180.95  1181.81  1193.60  1209.16  1215.18
eigval :     1219.33  1229.98  1230.55  1232.77  1233.21  1239.59
eigval :     1242.46  1255.45  1256.74  1276.18  1277.95  1278.27
eigval :     1280.07  1284.21  1285.03  1294.54  1295.50  1307.73
eigval :     1309.01  1314.95  1315.62  1326.52  1337.48  1338.95
eigval :     1341.64  1342.30  1343.93  1350.75  1358.07  1363.30
eigval :     1365.27  1367.61  1374.72  1381.63  1392.17  1394.53
eigval :     1395.69  1397.59  1412.13  1412.74  1416.05  1417.89
eigval :     1421.12  1423.25  1444.28  1444.41  1455.48  1455.67
eigval :     1462.61  1462.81  1470.76  1478.41  1478.97  1483.08
eigval :     1483.28  1537.01  1540.70  1542.32  1545.96  1548.97
eigval :     1566.47  1566.49  1567.49  1567.56  1579.91  1579.94
eigval :     1580.92  1581.34  1582.85  1583.07  1583.63  1584.57
eigval :     1594.89  1595.62  1603.61  1604.77  2247.31  2289.53
eigval :     3080.71  3080.82  3083.10  3083.12  3083.20  3083.21
eigval :     3084.15  3084.24  3086.72  3086.76  3088.40  3088.42
eigval :     3089.27  3089.28  3089.29  3089.32  3092.99  3093.05
eigval :     3095.59  3095.61  3095.87  3095.95  3096.19  3096.24
eigval :     3097.37  3097.43  3100.72  3100.75  3101.65  3101.94
eigval :     3102.64  3102.76  3102.79  3103.05  3107.07  3107.26

   temp. (K)  partition function   enthalpy   heat capacity  entropy
                                   cal/mol     cal/K/mol   cal/K/mol   J/K/mol
 298.15  VIB  0.480E+27            34977.023    221.579    217.210
         ROT  0.117E+09              888.752      2.981     39.895
         INT  0.561E+35            35865.775    224.559    257.105
         TR   0.306E+29             1481.254      4.968     46.564
         TOT                       37347.0293   229.5276   303.6687  1270.5498

       T/K    H(0)-H(T)+PV         H(T)/Eh          T*S/Eh         G(T)/Eh
   ------------------------------------------------------------------------
    298.15    0.595163E-01    0.874072E+00    0.144283E+00    0.729789E+00
   ------------------------------------------------------------------------

         :::::::::::::::::::::::::::::::::::::::::::::::::::::
         ::                  THERMODYNAMIC                  ::
         :::::::::::::::::::::::::::::::::::::::::::::::::::::
         :: total free energy        -187.359546146420 Eh   ::
         ::.................................................::
         :: total energy             -188.089335083542 Eh   ::
         :: zero point energy           0.814555454430 Eh   ::
         :: G(RRHO) w/o ZPVE           -0.084766517307 Eh   ::
         :: G(RRHO) contrib.            0.729788937123 Eh   ::
         :::::::::::::::::::::::::::::::::::::::::::::::::::::

           -------------------------------------------------
          | TOTAL ENERGY             -188.089335083542 Eh   |
          | TOTAL ENTHALPY           -187.215263349582 Eh   |
          | TOTAL FREE ENERGY        -187.359546146420 Eh   |
          | GRADIENT NORM               0.000129669918 Eh/α |
           -------------------------------------------------

 * finished run on 2025/07/16 at 20:35:32.831
