   * xtb version 6.7.1 (edcfbbe) compiled by 'albert@albert-system' on 2024-07-22

   ID    Z sym.   atoms
    1    7 N      1, 5, 19, 41, 43, 57
    2    6 C      2-4, 6-18, 20-27, 29-40, 42, 44-56, 58-65, 67-76
    3   16 S      28, 66
    4    1 H      77-112

          program call               : xtb data2507/gas/2BTCz2CzTPN/2BTCz2CzTPN.xyz --gfn 2 --ohess vtight --parallel 40 --molden --ceasefiles --namespace data2507/gas/2BTCz2CzTPN/2BTCz2CzTPN_gas_S0_preOpt
          :  Hamiltonian                  GFN2-xTB          :
 * total energy  :  -188.0961115 Eh     change       -0.9607561E-08 Eh
 * total energy  :  -188.1286775 Eh     change       -0.3256594E-01 Eh
 * total energy  :  -188.1389038 Eh     change       -0.1022637E-01 Eh
 * total energy  :  -188.1420792 Eh     change       -0.3175321E-02 Eh
 * total energy  :  -188.1444756 Eh     change       -0.2396449E-02 Eh
 * total energy  :  -188.1459655 Eh     change       -0.1489872E-02 Eh
 * total energy  :  -188.1469640 Eh     change       -0.9985186E-03 Eh
 * total energy  :  -188.1477133 Eh     change       -0.7492614E-03 Eh
 * total energy  :  -188.1482680 Eh     change       -0.5547024E-03 Eh
 * total energy  :  -188.1487828 Eh     change       -0.5148501E-03 Eh
 * total energy  :  -188.1592032 Eh     change       -0.2626712E-05 Eh
 * total energy  :  -188.1592060 Eh     change       -0.2756421E-05 Eh
 * total energy  :  -188.1592086 Eh     change       -0.2594015E-05 Eh
 * total energy  :  -188.1592106 Eh     change       -0.2065898E-05 Eh
 * total energy  :  -188.1592121 Eh     change       -0.1518024E-05 Eh
 * total energy  :  -188.1592132 Eh     change       -0.1047961E-05 Eh
 * total energy  :  -188.1592139 Eh     change       -0.7491650E-06 Eh
 * total energy  :  -188.1592145 Eh     change       -0.5709464E-06 Eh
 * total energy  :  -188.1592145 Eh     change       -0.5868458E-08 Eh
   *** GEOMETRY OPTIMIZATION CONVERGED AFTER 68 ITERATIONS ***

 final structure:
================
112
 xtb: 6.7.1 (edcfbbe)
N           -1.56754250657639       -0.89555898126433       -3.58428715337557
C           -1.11047756093662       -0.85422457362218       -2.53454095434151
C           -0.54877983638286       -0.79516465553827       -1.23624255219944
C            0.84761221379901       -0.78348617522199       -1.09102402255674
N            1.67301640235974       -0.82818954435056       -2.21295238471936
C            2.75035647398975        0.02047290151119       -2.42563603676510
C            3.01110895342888        1.25438507863690       -1.85375253924421
C            4.16928071847984        1.90648966535979       -2.23435608741853
C            5.02848029470357        1.35785668068985       -3.18107548992628
C            4.73212230698373        0.16095438526029       -3.80476166556974
C            3.57726041834696       -0.51282702732693       -3.43469465930778
C            2.95953908962373       -1.73850118683840       -3.86338109765741
C            3.31016819416730       -2.70138061431986       -4.79850085990009
C            2.49555453500236       -3.80650187585241       -4.94730214557836
C            1.35277107924216       -3.96325553166302       -4.16936664518353
C            0.98574373958351       -3.01890437302191       -3.22842983363437
C            1.78885816290471       -1.89922089153964       -3.09221950995102
C            1.40177232333790       -0.72933630911178        0.20047008040744
N            2.78638839565747       -0.75831486905816        0.37186233719505
C            3.62080788946246       -1.68841591952117       -0.23094799600172
C            3.30427474138496       -2.92495320814249       -0.76760764463748
C            4.33422680175360       -3.67069224351587       -1.30958424527039
C            5.64737700815155       -3.20932914403840       -1.29430359462343
C            5.97500817400810       -2.00359099000386       -0.70563520916896
C            4.95452017943528       -1.23804205516802       -0.15932361722073
C            4.91746173793739        0.01958720489925        0.52772176901640
C            5.87523140426488        0.96222886372243        0.87252977705800
S            7.58656562831588        0.87549192868363        0.55896111110924
C            7.82769385607247        2.42896937146476        1.33153450746580
C            9.04220174642202        3.07480114516070        1.48770852960654
C            9.05865102457627        4.29877401671311        2.12844047850313
C            7.88050170919432        4.86675126882420        2.60375112124732
C            6.67127040781600        4.22181496018878        2.44579161278819
C            6.62783397795055        2.98697381597066        1.80400783828615
C            5.49479035740656        2.14098289830033        1.53335173259411
C            4.14884945524901        2.37170756143876        1.83009948313591
C            3.17868491178338        1.45573283884898        1.48681698863446
C            3.56980149476812        0.28278767683024        0.84888294276220
C            0.54977389943927       -0.65894084425495        1.31296926997899
C            1.11147253100234       -0.57930570823272        2.61014992444637
N            1.56836406690507       -0.50844011171929        3.65842066743018
C           -0.84663292327787       -0.66513793003204        1.16746874136109
N           -1.67203444860869       -0.59243422683746        2.28794080482799
C           -2.75102929105717        0.27189267800729        2.40977157460910
C           -3.01392188813829        1.43806197348424        1.71083112674227
C           -4.17348343618169        2.12443858146709        2.02030023182703
C           -5.03199759473941        1.67709270511186        3.01946664718339
C           -4.73355463019945        0.55329783507869        3.76606344206306
C           -3.57724926427235       -0.15350524993362        3.46938393958725
C           -2.95734467334329       -1.32589744785172        4.02511946908436
C           -3.30645402667162       -2.18536725476707        5.05660271324577
C           -2.48980898541477       -3.26705850878591        5.32130585544378
C           -1.34648732716643       -3.50286458745412        4.56439109998265
C           -0.98095416036944       -2.66241071715385        3.52906592769994
C           -1.78613226121424       -1.56489166275300        3.27534595087974
C           -1.40076757350177       -0.74891737563056       -0.12246202829236
N           -2.78531342010048       -0.79805949904146       -0.28979410326822
C           -3.61845336896103       -1.66027230667698        0.40819559869823
C           -3.30022874400485       -2.83267574094838        1.07259208884630
C           -4.32913187038394       -3.51819240103258        1.69073106551378
C           -5.64288012508599       -3.06270780482805        1.62709623538539
C           -5.97217447151930       -1.92646928626146        0.91421131942025
C           -4.95276808912007       -1.22173184827254        0.28965757270878
C           -4.91743512529074       -0.04375657085681       -0.52653333777327
C           -5.87643675577725        0.85602100781906       -0.96869648109745
S           -7.58759439232508        0.80088947886592       -0.64711326157486
C           -7.83074826687981        2.26388819422842       -1.57921963732824
C           -9.04603949615438        2.88829520990885       -1.80216379060040
C           -9.06406966434148        4.03781719627346       -2.56845104650581
C           -7.88671219705063        4.55377549954899       -3.10152992120503
C           -6.67669714517670        3.93044440422447       -2.87690124430651
C           -6.63166962038183        2.77026253617984       -2.10842413207744
C           -5.49756402952586        1.95886800158566       -1.75040505261931
C           -4.15197045071646        2.15859234235953       -2.07029491686330
C           -3.18060656804708        1.28520011875945       -1.63245239884966
C           -3.57015341025418        0.18574630364454       -0.87404531319268
H            2.33579168763094        1.69882377350952       -1.13743291292411
H            4.40818412868372        2.85917115329335       -1.78586683857934
H            5.93035972582000        1.88962841914353       -3.44359985372418
H            5.38157309090656       -0.24444415940384       -4.56503002159918
H            4.20499807103634       -2.58556049219759       -5.39032005047080
H            2.74828177660260       -4.56566509549888       -5.67204755802957
H            0.73847122512116       -4.84144866840593       -4.29928278498893
H            0.10159547155015       -3.16367994123817       -2.62534762808866
H            2.29181055942621       -3.30089142350548       -0.76260343578798
H            4.11149528876231       -4.62945067635715       -1.75263797619180
H            6.42297433725974       -3.81698274471751       -1.73492860743837
H            6.99658277128439       -1.65890431767141       -0.66388896757109
H            9.95046968759138        2.62545470436384        1.11716426917345
H            9.99552700783153        4.81801839115446        2.26252919361435
H            7.91570110121600        5.82337098223237        3.10328250464494
H            5.76033565464263        4.66522450314818        2.81850165138807
H            3.86819109888029        3.28528258561245        2.33054081103600
H            2.14147830692438        1.65509372716452        1.70912124666088
H           -2.33920088846396        1.80571533929825        0.95170222675052
H           -4.41405154384721        3.02399776688095        1.47372896495154
H           -5.93502541863466        2.23180666536699        3.22420961857462
H           -5.38252013547045        0.22911898563845        4.56474597730557
H           -4.20168266471557       -2.00942918586656        5.63279339287582
H           -2.74132809572407       -3.94596315859945        6.12210694236100
H           -0.73057285537568       -4.36126608485174        4.78634185994425
H           -0.09635578752609       -2.86835627770835        2.94472158358139
H           -2.28726631397167       -3.20570872042798        1.10714591419967
H           -4.10508749717777       -4.42438736799280        2.23270867476782
H           -6.41761640185203       -3.62129502251793        2.12979841315959
H           -6.99420274482926       -1.58943713604491        0.83652838985578
H           -9.95368834906408        2.47955583734471       -1.38590678821820
H          -10.00156922356161        4.53899616622780       -2.75617720390610
H           -7.92315275890821        5.45233572399447       -3.69914975569940
H           -5.76637515143022        4.33307089893897       -3.29467073385124
H           -3.87253657188280        3.01453412270518       -2.66452596503221
H           -2.14368429449203        1.46125265041798       -1.87485151972478

          :  Hamiltonian                  GFN2-xTB          :
         :: gradient norm              0.000105703457 Eh/a0 ::
         :: HOMO-LUMO gap              1.520919746722 eV    ::
         :: SCC energy              -191.681006124209 Eh    ::
         :: -> dispersion             -0.218084895906 Eh    ::
         :: repulsion energy           3.521791615036 Eh    ::

    * Orbital Energies and Occupations

         #    Occupation            Energy/Eh            Energy/eV
      -------------------------------------------------------------
         1        2.0000           -0.7269585             -19.7815
       ...           ...                  ...                  ...
       163        2.0000           -0.4155099             -11.3066
       164        2.0000           -0.4064659             -11.0605
       165        2.0000           -0.4058916             -11.0449
       166        2.0000           -0.3984894             -10.8434
       167        2.0000           -0.3974069             -10.8140
       168        2.0000           -0.3891347             -10.5889
       169        2.0000           -0.3888718             -10.5817
       170        2.0000           -0.3839216             -10.4470
       171        2.0000           -0.3782349             -10.2923
       172        2.0000           -0.3773522             -10.2683
       173        2.0000           -0.3736952             -10.1688
       174        2.0000           -0.3717609             -10.1161
       175        2.0000           -0.3714988             -10.1090 (HOMO)
       176                         -0.3156059              -8.5881 (LUMO)
       177                         -0.2824926              -7.6870
       178                         -0.2613580              -7.1119
       179                         -0.2589956              -7.0476
       180                         -0.2558326              -6.9616
       181                         -0.2552965              -6.9470
       182                         -0.2533079              -6.8929
       183                         -0.2531346              -6.8881
       184                         -0.2416213              -6.5748
       185                         -0.2336659              -6.3584
       186                         -0.2335958              -6.3565
       ...                                ...                  ...
       350                          1.1567044              31.4755
      -------------------------------------------------------------
                  HL-Gap            0.0558929 Eh            1.5209 eV

     #   Z          covCN         q      C6AA      α(0)
     1   7 N        0.911    -0.215    25.684     7.330
     2   6 C        1.912     0.123    28.075     8.557
     3   6 C        2.972    -0.008    28.225     8.715
     4   6 C        2.917     0.058    26.690     8.472
     5   7 N        2.799    -0.053    22.268     7.009
     6   6 C        3.074     0.049    26.821     8.491
     7   6 C        2.911    -0.047    29.166     8.856
     8   6 C        2.925    -0.030    28.746     8.793
     9   6 C        2.921    -0.035    28.880     8.813
    10   6 C        2.914    -0.030    28.748     8.792
    11   6 C        3.063    -0.012    28.258     8.717
    12   6 C        3.069    -0.012    28.233     8.712
    13   6 C        2.914    -0.030    28.743     8.791
    14   6 C        2.920    -0.036    28.902     8.816
    15   6 C        2.925    -0.029    28.723     8.789
    16   6 C        2.910    -0.044    29.095     8.845
    17   6 C        3.066     0.052    26.774     8.485
    18   6 C        2.918     0.058    26.709     8.475
    19   7 N        2.802    -0.050    22.212     7.000
    20   6 C        3.079     0.049    26.820     8.490
    21   6 C        2.910    -0.046    29.139     8.852
    22   6 C        2.925    -0.030    28.750     8.793
    23   6 C        2.921    -0.035    28.877     8.812
    24   6 C        2.913    -0.030    28.745     8.792
    25   6 C        3.064    -0.010    28.200     8.708
    26   6 C        3.090    -0.022    28.459     8.744
    27   6 C        2.998     0.036    27.188     8.553
    28  16 S        2.211    -0.083   144.515    20.233
    29   6 C        3.004     0.037    27.149     8.547
    30   6 C        2.936    -0.038    28.948     8.824
    31   6 C        2.923    -0.031    28.771     8.796
    32   6 C        2.918    -0.034    28.848     8.808
    33   6 C        2.918    -0.033    28.811     8.802
    34   6 C        3.107    -0.002    27.923     8.658
    35   6 C        3.104    -0.011    28.153     8.694
    36   6 C        2.921    -0.033    28.818     8.803
    37   6 C        2.909    -0.050    29.243     8.867
    38   6 C        3.065     0.051    26.801     8.489
    39   6 C        2.972    -0.008    28.225     8.715
    40   6 C        1.912     0.123    28.075     8.557
    41   7 N        0.911    -0.215    25.684     7.330
    42   6 C        2.917     0.058    26.690     8.472
    43   7 N        2.799    -0.053    22.269     7.009
    44   6 C        3.074     0.049    26.821     8.491
    45   6 C        2.911    -0.047    29.166     8.856
    46   6 C        2.925    -0.030    28.746     8.793
    47   6 C        2.921    -0.035    28.880     8.813
    48   6 C        2.914    -0.030    28.748     8.792
    49   6 C        3.063    -0.012    28.258     8.717
    50   6 C        3.069    -0.012    28.233     8.712
    51   6 C        2.914    -0.030    28.743     8.791
    52   6 C        2.920    -0.036    28.902     8.816
    53   6 C        2.925    -0.029    28.723     8.789
    54   6 C        2.910    -0.044    29.095     8.845
    55   6 C        3.066     0.052    26.774     8.485
    56   6 C        2.918     0.058    26.709     8.475
    57   7 N        2.802    -0.050    22.212     7.000
    58   6 C        3.079     0.049    26.820     8.490
    59   6 C        2.910    -0.046    29.139     8.852
    60   6 C        2.925    -0.030    28.750     8.793
    61   6 C        2.921    -0.035    28.877     8.812
    62   6 C        2.913    -0.030    28.745     8.792
    63   6 C        3.064    -0.010    28.200     8.708
    64   6 C        3.090    -0.022    28.459     8.744
    65   6 C        2.998     0.036    27.188     8.553
    66  16 S        2.211    -0.083   144.515    20.233
    67   6 C        3.004     0.037    27.149     8.547
    68   6 C        2.936    -0.038    28.948     8.824
    69   6 C        2.923    -0.031    28.771     8.796
    70   6 C        2.918    -0.034    28.848     8.808
    71   6 C        2.918    -0.033    28.811     8.802
    72   6 C        3.107    -0.002    27.923     8.658
    73   6 C        3.104    -0.011    28.153     8.694
    74   6 C        2.921    -0.033    28.818     8.803
    75   6 C        2.909    -0.050    29.243     8.867
    76   6 C        3.065     0.051    26.801     8.489
    77   1 H        0.926     0.019     2.752     2.594
    78   1 H        0.926     0.032     2.558     2.501
    79   1 H        0.926     0.036     2.503     2.474
    80   1 H        0.926     0.038     2.481     2.463
    81   1 H        0.926     0.037     2.483     2.464
    82   1 H        0.926     0.036     2.507     2.476
    83   1 H        0.926     0.037     2.488     2.467
    84   1 H        0.926     0.022     2.705     2.572
    85   1 H        0.926     0.020     2.731     2.584
    86   1 H        0.926     0.034     2.525     2.485
    87   1 H        0.926     0.037     2.495     2.470
    88   1 H        0.926     0.045     2.385     2.415
    89   1 H        0.926     0.040     2.447     2.446
    90   1 H        0.926     0.037     2.495     2.470
    91   1 H        0.926     0.035     2.520     2.482
    92   1 H        0.926     0.036     2.505     2.475
    93   1 H        0.926     0.042     2.422     2.434
    94   1 H        0.926     0.025     2.652     2.547
    95   1 H        0.926     0.019     2.752     2.594
    96   1 H        0.926     0.032     2.558     2.501
    97   1 H        0.926     0.036     2.503     2.474
    98   1 H        0.926     0.038     2.481     2.463
    99   1 H        0.926     0.037     2.484     2.464
   100   1 H        0.926     0.036     2.507     2.476
   101   1 H        0.926     0.037     2.488     2.467
   102   1 H        0.926     0.022     2.705     2.572
   103   1 H        0.926     0.020     2.731     2.584
   104   1 H        0.926     0.034     2.525     2.485
   105   1 H        0.926     0.037     2.495     2.470
   106   1 H        0.926     0.045     2.385     2.415
   107   1 H        0.926     0.040     2.447     2.446
   108   1 H        0.926     0.037     2.495     2.470
   109   1 H        0.926     0.035     2.520     2.482
   110   1 H        0.926     0.036     2.505     2.475
   111   1 H        0.926     0.042     2.422     2.434
   112   1 H        0.926     0.025     2.652     2.547

molecular dipole:
                 x           y           z       tot (Debye)
 q only:       -0.000       0.162      -0.009
   full:       -0.000       0.456      -0.024       1.160

 projected vibrational frequencies (cm⁻¹)
eigval :       -0.00    -0.00    -0.00    -0.00     0.00     0.00
eigval :        8.83    11.02    12.10    15.75    22.45    28.99
eigval :       35.08    36.34    38.54    48.81    52.82    59.15
eigval :       62.05    62.29    69.39    76.02    78.81    83.78
eigval :       91.65   107.07   107.59   112.40   116.92   123.81
eigval :      125.76   127.34   130.66   135.35   140.28   141.76
eigval :      145.71   148.12   166.12   166.92   197.54   198.32
eigval :      209.16   210.15   214.55   215.29   221.93   234.12
eigval :      248.39   259.35   263.38   271.89   274.89   278.79
eigval :      283.88   295.71   308.18   322.19   332.83   339.47
eigval :      358.52   373.21   381.77   384.77   388.54   395.68
eigval :      399.26   402.62   402.73   412.45   412.74   416.63
eigval :      417.51   423.33   425.27   429.70   434.81   434.85
eigval :      439.86   443.34   457.39   464.08   481.08   481.74
eigval :      491.84   492.65   495.46   495.57   506.96   507.20
eigval :      517.23   517.31   523.20   526.27   535.27   538.75
eigval :      542.43   542.69   545.41   549.65   557.75   560.26
eigval :      577.90   578.78   581.99   589.96   593.50   594.82
eigval :      594.99   603.14   613.25   635.73   640.85   647.22
eigval :      655.62   657.15   660.93   661.07   672.58   673.08
eigval :      674.81   682.08   687.76   687.93   694.69   699.40
eigval :      701.59   702.90   706.54   706.65   712.48   721.80
eigval :      741.17   743.79   755.40   759.16   769.87   770.05
eigval :      772.71   772.73   777.54   777.59   782.41   782.50
eigval :      811.10   813.28   816.39   816.83   838.15   838.61
eigval :      870.23   870.50   870.62   870.63   877.35   877.49
eigval :      878.03   878.14   878.94   892.01   894.28   894.43
eigval :      897.51   902.78   902.91   905.62   905.64   905.78
eigval :      905.81   905.89   906.07   917.07   922.43   922.44
eigval :      922.63   922.65   923.55   923.62   924.74   924.90
eigval :      936.67   976.37  1001.22  1005.10  1011.95  1012.60
eigval :     1041.86  1049.24  1049.47  1071.19  1071.19  1071.38
eigval :     1072.81  1073.01  1076.14  1076.93  1076.95  1078.96
eigval :     1090.72  1119.33  1122.80  1125.83  1146.94  1148.49
eigval :     1152.13  1152.23  1154.77  1154.78  1160.67  1162.66
eigval :     1168.85  1177.94  1179.33  1179.97  1180.27  1180.57
eigval :     1181.64  1182.25  1184.24  1197.96  1215.06  1219.16
eigval :     1230.40  1233.52  1234.66  1234.85  1237.97  1246.26
eigval :     1259.09  1264.41  1268.48  1269.28  1286.75  1290.79
eigval :     1291.59  1294.20  1294.39  1298.52  1303.24  1316.70
eigval :     1319.04  1339.72  1339.88  1346.02  1349.92  1358.93
eigval :     1359.09  1359.44  1360.38  1361.43  1361.90  1378.46
eigval :     1379.70  1391.82  1393.58  1406.85  1409.39  1414.41
eigval :     1414.91  1420.78  1424.84  1425.06  1428.33  1428.75
eigval :     1442.56  1442.73  1450.19  1456.59  1461.32  1461.49
eigval :     1472.09  1473.29  1481.30  1483.19  1486.41  1486.79
eigval :     1491.57  1502.89  1561.13  1561.37  1570.68  1570.80
eigval :     1578.87  1579.15  1579.39  1579.54  1587.91  1588.01
eigval :     1593.45  1593.83  1596.98  1597.05  1601.44  1601.53
eigval :     1610.51  1610.90  1614.28  1615.03  2367.61  2368.58
eigval :     3075.75  3075.93  3077.11  3077.19  3077.75  3077.95
eigval :     3080.94  3080.95  3084.64  3084.66  3085.83  3085.89
eigval :     3085.98  3086.03  3087.46  3087.49  3087.51  3087.52
eigval :     3092.39  3092.46  3094.21  3094.24  3094.70  3094.72
eigval :     3096.15  3096.20  3100.59  3100.64  3101.42  3101.47
eigval :     3102.13  3102.19  3102.52  3102.63  3103.66  3103.80

   temp. (K)  partition function   enthalpy   heat capacity  entropy
                                   cal/mol     cal/K/mol   cal/K/mol   J/K/mol
 298.15  VIB  0.116E+27            34606.663    220.365    214.274
         ROT  0.117E+09              888.752      2.981     39.897
         INT  0.135E+35            35495.416    223.346    254.171
         TR   0.306E+29             1481.254      4.968     46.564
         TOT                       36976.6695   228.3139   300.7347  1258.2741

       T/K    H(0)-H(T)+PV         H(T)/Eh          T*S/Eh         G(T)/Eh
   ------------------------------------------------------------------------
    298.15    0.589261E-01    0.877757E+00    0.142889E+00    0.734868E+00
   ------------------------------------------------------------------------

         :::::::::::::::::::::::::::::::::::::::::::::::::::::
         ::                  THERMODYNAMIC                  ::
         :::::::::::::::::::::::::::::::::::::::::::::::::::::
         :: total free energy        -187.424346681398 Eh   ::
         ::.................................................::
         :: total energy             -188.159214509168 Eh   ::
         :: zero point energy           0.818830524377 Eh   ::
         :: G(RRHO) w/o ZPVE           -0.083962696606 Eh   ::
         :: G(RRHO) contrib.            0.734867827771 Eh   ::
         :::::::::::::::::::::::::::::::::::::::::::::::::::::

           -------------------------------------------------
          | TOTAL ENERGY             -188.159214509168 Eh   |
          | TOTAL ENTHALPY           -187.281457911131 Eh   |
          | TOTAL FREE ENERGY        -187.424346681398 Eh   |
          | GRADIENT NORM               0.000105767898 Eh/α |
          | HOMO-LUMO GAP               1.520922469426 eV   |
           -------------------------------------------------

 * finished run on 2025/07/16 at 20:26:53.866
