   * xtb version 6.7.1 (edcfbbe) compiled by 'albert@albert-system' on 2024-07-22

   ID    Z sym.   atoms
    1    7 N      1, 5, 19, 41, 43, 57
    2    6 C      2-4, 6-18, 20-27, 29-40, 42, 44-56, 58-65, 67-76
    3   16 S      28, 66
    4    1 H      77-112

          program call               : xtb data2507/gas/2BTCz2CzTPN/2BTCz2CzTPN_gas_S0_crest.xyz --gfn 2 --ohess vtight --parallel 40 --molden --ceasefiles --namespace data2507/gas/2BTCz2CzTPN/2BTCz2CzTPN_gas_S0_finalOpt
          :  Hamiltonian                  GFN2-xTB          :
 * total energy  :  -188.1592655 Eh     change       -0.5978507E-08 Eh
 * total energy  :  -188.1592674 Eh     change       -0.1916000E-05 Eh
 * total energy  :  -188.1592696 Eh     change       -0.2161918E-05 Eh
 * total energy  :  -188.1592703 Eh     change       -0.7187307E-06 Eh
 * total energy  :  -188.1592718 Eh     change       -0.1521415E-05 Eh
 * total energy  :  -188.1592742 Eh     change       -0.2399084E-05 Eh
 * total energy  :  -188.1592758 Eh     change       -0.1599981E-05 Eh
 * total energy  :  -188.1592765 Eh     change       -0.6642288E-06 Eh
 * total energy  :  -188.1592769 Eh     change       -0.4727800E-06 Eh
 * total energy  :  -188.1592776 Eh     change       -0.6514189E-06 Eh
 * total energy  :  -188.1592791 Eh     change       -0.4103180E-06 Eh
 * total energy  :  -188.1592796 Eh     change       -0.4778250E-06 Eh
 * total energy  :  -188.1592800 Eh     change       -0.3984140E-06 Eh
 * total energy  :  -188.1592802 Eh     change       -0.2591844E-06 Eh
 * total energy  :  -188.1592804 Eh     change       -0.2119726E-06 Eh
 * total energy  :  -188.1592807 Eh     change       -0.2366972E-06 Eh
 * total energy  :  -188.1592809 Eh     change       -0.2020581E-06 Eh
 * total energy  :  -188.1592810 Eh     change       -0.1054144E-06 Eh
 * total energy  :  -188.1592811 Eh     change       -0.8588376E-07 Eh
   *** GEOMETRY OPTIMIZATION CONVERGED AFTER 21 ITERATIONS ***

 final structure:
================
112
 xtb: 6.7.1 (edcfbbe)
N           -1.49601902700496       -3.63975852318034        0.86403061074929
C           -1.06016899240289       -2.58035825593937        0.85151325625205
C           -0.52431852826215       -1.26993777074580        0.83100180404693
C            0.86876204773600       -1.09729953320317        0.82555975900124
N            1.71506533571035       -2.20486333220255        0.84014603491223
C            2.78786860539669       -2.38344475514366       -0.02172858233491
C            3.02270509835948       -1.79114305280312       -1.25115567089065
C            4.18123693540691       -2.13950703384227       -1.92047077334302
C            5.06649853346934       -3.07384390909054       -1.39244057514391
C            4.79664233169027       -3.71818932206848       -0.20020279223843
C            3.64129294653759       -3.38167403163607        0.49008921884025
C            3.04505630160952       -3.83941603803071        1.71591746551626
C            3.42419511396751       -4.77895850653555        2.66360139714593
C            2.62243972788979       -4.95981037870210        3.77339085154655
C            1.46333532874075       -4.21054161185848        3.94930476708529
C            1.06767837462202       -3.26573092819367        3.02047460496340
C            1.85953895727511       -3.09605005314822        1.89746809793239
C            1.39658861148824        0.20574459252956        0.80606454052487
N            2.77770350680880        0.40699756483786        0.81230695844074
C            3.64944478810315       -0.20453353476052        1.70122708604443
C            3.37973091066141       -0.77112494976719        2.93543846883833
C            4.44038674844703       -1.31394723845684        3.63621464771544
C            5.73751609086024       -1.27164254769350        3.13306684209411
C            6.01812601049172       -0.65644392770710        1.92868116707766
C            4.96649305165899       -0.10862134619873        1.20779745168149
C            4.87906852984051        0.59741950329692       -0.03690396546240
C            5.79680013752245        0.95412352826660       -1.01445976546051
S            7.50994866864253        0.63889195376990       -1.00389634930632
C            7.68283183744126        1.41174560836385       -2.56640027134833
C            8.86642820875691        1.56104125815699       -3.26882392274624
C            8.82842144053986        2.19915079052462       -4.49370232794611
C            7.62730055246311        2.67946041241642       -5.00671420629884
C            6.44905409176246        2.52909374193690       -4.30515139913616
C            6.46057757999840        1.88941749008562       -3.06849601538220
C            5.36610216325952        1.62029986203097       -2.17282006374540
C            4.01167295110367        1.91814791481588       -2.34491280736946
C            3.08040131683039        1.56257507678421       -1.39399538912803
C            3.52031584969396        0.91073606510400       -0.24633851712159
C            0.52208711342295        1.30232930291901        0.78049551864260
C            1.05841662950088        2.61233460054898        0.74907171006576
N            1.49504189233278        3.67106349593594        0.71954976356901
C           -0.87096990064796        1.12961864745908        0.78069996126609
N           -1.71670186337815        2.23720581608280        0.75087499932773
C           -2.78787089239847        2.38381656368832       -0.11891220900081
C           -3.02370081107045        1.74216612357462       -1.32313131433158
C           -4.18017668014480        2.06701217904013       -2.00763844050750
C           -5.06225817429224        3.02592526971797       -1.51986966489440
C           -4.79124170270388        3.71781695155627       -0.35485977935304
C           -3.63810620840165        3.40545106922117        0.35032294402693
C           -3.04158560831903        3.91109787887452        1.55703103214025
C           -3.41821062642342        4.89030836821993        2.46473755344897
C           -2.61714485515609        5.11355573833200        3.56727895881029
C           -1.46129720059837        4.36755849064654        3.77560187971154
C           -1.06808979421161        3.38396527528933        2.88687806703193
C           -1.85903697168383        3.17151975396593        1.77049718334009
C           -1.39890128236971       -0.17317992919616        0.81227231457746
N           -2.78002270372852       -0.37379918153770        0.82482291316834
C           -3.65311450681944        0.27422770248838        1.68621585200158
C           -3.38542553578507        0.89139296383467        2.89638877069792
C           -4.44707100628284        1.46341410660776        3.57199865301442
C           -5.74331540935536        1.40077320110721        3.06870112857620
C           -6.02204725216172        0.73598511922788        1.89051579532455
C           -4.96935688969446        0.15827887505151        1.19495684557363
C           -4.88012919245819       -0.59898649277498       -0.01913748031085
C           -5.79653898735913       -0.99623561722218       -0.98219524234076
S           -7.50970481056359       -0.68089694569505       -0.98721948667084
C           -7.68048141737443       -1.51872407696562       -2.51611451879868
C           -8.86310236198554       -1.69737858186071       -3.21330895641617
C           -8.82343604406231       -2.38648513216806       -4.41018752897189
C           -7.62166007331314       -2.88807352822310       -4.90081296727026
C           -6.44437534101033       -2.70831547370686       -4.20457289415477
C           -6.45756728476623       -2.01707836012549       -2.99600115899893
C           -5.36428635145482       -1.71041835808250       -2.11099863534909
C           -4.00959896995023       -2.01490268971181       -2.26873217659205
C           -3.07960960215623       -1.61975075234530       -1.33227760446759
C           -3.52111285777575       -0.92091169366895       -0.21324492198810
H            2.32772264587138       -1.08344992477832       -1.67884472763098
H            4.39980859719725       -1.67516956783337       -2.87046302837213
H            5.96801244521871       -3.31035202073810       -1.93687916882624
H            5.46667130356434       -4.46905179837320        0.18890178393556
H            4.33072102451560       -5.34946828500266        2.53279145419139
H            2.89781469015828       -5.68818455758468        4.52113334921996
H            0.85907915783056       -4.36645496965677        4.83024579409951
H            0.17057168543065       -2.68536025005541        3.17833208273314
H            2.37953136802698       -0.78878664241512        3.34260871206145
H            4.25484966697294       -1.77928567729362        4.59232964584421
H            6.53816326465388       -1.71322172317385        3.70658894617785
H            7.02713371226172       -0.59578935876976        1.55132047858847
H            9.79290491703759        1.18621729602141       -2.86226992163445
H            9.74031786056726        2.32666980418291       -5.05717603408873
H            7.61979377861513        3.17619853880584       -5.96540606902489
H            5.52002672699437        2.90503490736977       -4.70630623408861
H            3.69304039617733        2.42634679511432       -3.24160622862599
H            2.03516280298101        1.78327397521850       -1.54855758861897
H           -2.33099983854381        1.01486975316696       -1.72054835566805
H           -4.39951306367412        1.56469444634743       -2.93792645405125
H           -5.96207826737656        3.24346976560400       -2.07491371374165
H           -5.45863457006034        4.48683868665179        0.00197726181533
H           -4.32229672207320        5.45850547727063        2.30929020056367
H           -2.89055202639632        5.87317632088724        4.28400956465764
H           -0.85770235499264        4.55703269552629        4.65039535188436
H           -0.17355890783597        2.80699150960275        3.06987026472522
H           -2.38601712449967        0.92545366930728        3.30443968768223
H           -4.26300359312382        1.96809261139660        4.50823819016500
H           -6.54476905469728        1.86625421222180        3.62183251503038
H           -7.03041298805221        0.65995616659208        1.51422686745027
H           -9.79011748866218       -1.30574324588716       -2.82420450973086
H           -9.73454655408935       -2.53752998342821       -4.96909883591645
H           -7.61287156895215       -3.42479438069903       -5.83769446755216
H           -5.51482941383434       -3.10091044393777       -4.58818654025757
H           -3.68970314848358       -2.56006466374428       -3.14298039791261
H           -2.03416427645095       -1.84646266073170       -1.47630593688753

          :  Hamiltonian                  GFN2-xTB          :
         :: gradient norm              0.000043557151 Eh/a0 ::
         :: HOMO-LUMO gap              1.517424272745 eV    ::
         :: SCC energy              -191.681242029279 Eh    ::
         :: -> dispersion             -0.218609449494 Eh    ::
         :: repulsion energy           3.521960972088 Eh    ::

    * Orbital Energies and Occupations

         #    Occupation            Energy/Eh            Energy/eV
      -------------------------------------------------------------
         1        2.0000           -0.7271658             -19.7872
       ...           ...                  ...                  ...
       163        2.0000           -0.4154758             -11.3057
       164        2.0000           -0.4067015             -11.0669
       165        2.0000           -0.4061410             -11.0517
       166        2.0000           -0.3986492             -10.8478
       167        2.0000           -0.3975655             -10.8183
       168        2.0000           -0.3890849             -10.5875
       169        2.0000           -0.3888264             -10.5805
       170        2.0000           -0.3837926             -10.4435
       171        2.0000           -0.3783090             -10.2943
       172        2.0000           -0.3774758             -10.2716
       173        2.0000           -0.3739191             -10.1749
       174        2.0000           -0.3719337             -10.1208
       175        2.0000           -0.3716715             -10.1137 (HOMO)
       176                         -0.3159070              -8.5963 (LUMO)
       177                         -0.2826913              -7.6924
       178                         -0.2614814              -7.1153
       179                         -0.2593082              -7.0561
       180                         -0.2559727              -6.9654
       181                         -0.2554839              -6.9521
       182                         -0.2534400              -6.8965
       183                         -0.2532212              -6.8905
       184                         -0.2417147              -6.5774
       185                         -0.2337475              -6.3606
       186                         -0.2336804              -6.3588
       ...                                ...                  ...
       350                          1.1567994              31.4781
      -------------------------------------------------------------
                  HL-Gap            0.0557645 Eh            1.5174 eV

     #   Z          covCN         q      C6AA      α(0)
     1   7 N        0.911    -0.214    25.666     7.327
     2   6 C        1.912     0.123    28.073     8.557
     3   6 C        2.973    -0.008    28.213     8.713
     4   6 C        2.917     0.059    26.684     8.471
     5   7 N        2.799    -0.054    22.283     7.011
     6   6 C        3.074     0.049    26.818     8.491
     7   6 C        2.911    -0.047    29.168     8.856
     8   6 C        2.925    -0.030    28.742     8.792
     9   6 C        2.921    -0.035    28.879     8.813
    10   6 C        2.914    -0.030    28.748     8.792
    11   6 C        3.064    -0.012    28.259     8.717
    12   6 C        3.069    -0.012    28.233     8.713
    13   6 C        2.914    -0.030    28.742     8.791
    14   6 C        2.920    -0.036    28.904     8.816
    15   6 C        2.925    -0.029    28.725     8.789
    16   6 C        2.910    -0.044    29.102     8.846
    17   6 C        3.067     0.052    26.772     8.484
    18   6 C        2.918     0.058    26.701     8.474
    19   7 N        2.802    -0.051    22.226     7.002
    20   6 C        3.078     0.049    26.814     8.490
    21   6 C        2.910    -0.046    29.136     8.851
    22   6 C        2.925    -0.030    28.748     8.793
    23   6 C        2.921    -0.035    28.877     8.812
    24   6 C        2.913    -0.030    28.744     8.791
    25   6 C        3.064    -0.010    28.200     8.708
    26   6 C        3.089    -0.022    28.456     8.744
    27   6 C        2.998     0.036    27.188     8.553
    28  16 S        2.211    -0.083   144.499    20.232
    29   6 C        3.004     0.037    27.150     8.547
    30   6 C        2.935    -0.038    28.947     8.824
    31   6 C        2.923    -0.031    28.771     8.796
    32   6 C        2.918    -0.034    28.848     8.808
    33   6 C        2.918    -0.033    28.811     8.802
    34   6 C        3.107    -0.002    27.925     8.658
    35   6 C        3.104    -0.011    28.153     8.694
    36   6 C        2.921    -0.033    28.821     8.804
    37   6 C        2.909    -0.050    29.249     8.868
    38   6 C        3.067     0.051    26.797     8.488
    39   6 C        2.973    -0.008    28.213     8.713
    40   6 C        1.912     0.123    28.073     8.557
    41   7 N        0.911    -0.214    25.666     7.327
    42   6 C        2.917     0.059    26.685     8.471
    43   7 N        2.799    -0.054    22.279     7.010
    44   6 C        3.074     0.049    26.818     8.491
    45   6 C        2.911    -0.047    29.168     8.856
    46   6 C        2.925    -0.030    28.742     8.792
    47   6 C        2.921    -0.035    28.879     8.813
    48   6 C        2.914    -0.030    28.748     8.792
    49   6 C        3.064    -0.012    28.259     8.717
    50   6 C        3.069    -0.012    28.233     8.713
    51   6 C        2.914    -0.030    28.742     8.791
    52   6 C        2.920    -0.036    28.904     8.816
    53   6 C        2.925    -0.029    28.725     8.789
    54   6 C        2.910    -0.044    29.102     8.846
    55   6 C        3.067     0.052    26.772     8.484
    56   6 C        2.918     0.058    26.701     8.474
    57   7 N        2.802    -0.051    22.225     7.002
    58   6 C        3.078     0.049    26.815     8.490
    59   6 C        2.910    -0.046    29.136     8.851
    60   6 C        2.925    -0.030    28.748     8.793
    61   6 C        2.921    -0.035    28.876     8.812
    62   6 C        2.913    -0.030    28.744     8.791
    63   6 C        3.064    -0.010    28.199     8.708
    64   6 C        3.089    -0.022    28.456     8.744
    65   6 C        2.998     0.036    27.188     8.553
    66  16 S        2.211    -0.083   144.499    20.232
    67   6 C        3.004     0.037    27.150     8.547
    68   6 C        2.935    -0.038    28.947     8.824
    69   6 C        2.923    -0.031    28.771     8.796
    70   6 C        2.918    -0.034    28.848     8.808
    71   6 C        2.918    -0.033    28.811     8.802
    72   6 C        3.107    -0.002    27.925     8.658
    73   6 C        3.104    -0.011    28.153     8.694
    74   6 C        2.921    -0.033    28.820     8.804
    75   6 C        2.909    -0.050    29.250     8.868
    76   6 C        3.066     0.051    26.797     8.488
    77   1 H        0.926     0.018     2.757     2.597
    78   1 H        0.926     0.032     2.561     2.503
    79   1 H        0.926     0.036     2.502     2.473
    80   1 H        0.926     0.038     2.481     2.463
    81   1 H        0.926     0.037     2.484     2.465
    82   1 H        0.926     0.036     2.508     2.477
    83   1 H        0.926     0.037     2.490     2.468
    84   1 H        0.926     0.022     2.710     2.574
    85   1 H        0.926     0.020     2.729     2.583
    86   1 H        0.926     0.034     2.524     2.484
    87   1 H        0.926     0.037     2.494     2.470
    88   1 H        0.926     0.045     2.386     2.416
    89   1 H        0.926     0.040     2.446     2.446
    90   1 H        0.926     0.037     2.494     2.469
    91   1 H        0.926     0.035     2.520     2.482
    92   1 H        0.926     0.036     2.506     2.476
    93   1 H        0.926     0.042     2.424     2.435
    94   1 H        0.926     0.025     2.657     2.549
    95   1 H        0.926     0.018     2.757     2.597
    96   1 H        0.926     0.032     2.561     2.502
    97   1 H        0.926     0.036     2.502     2.473
    98   1 H        0.926     0.038     2.481     2.463
    99   1 H        0.926     0.037     2.484     2.465
   100   1 H        0.926     0.036     2.508     2.477
   101   1 H        0.926     0.037     2.490     2.468
   102   1 H        0.926     0.021     2.710     2.575
   103   1 H        0.926     0.020     2.728     2.583
   104   1 H        0.926     0.034     2.523     2.484
   105   1 H        0.926     0.037     2.494     2.470
   106   1 H        0.926     0.045     2.386     2.415
   107   1 H        0.926     0.040     2.446     2.446
   108   1 H        0.926     0.037     2.494     2.469
   109   1 H        0.926     0.035     2.520     2.482
   110   1 H        0.926     0.036     2.506     2.475
   111   1 H        0.926     0.042     2.424     2.435
   112   1 H        0.926     0.025     2.657     2.549

molecular dipole:
                 x           y           z       tot (Debye)
 q only:       -0.002      -0.003      -0.171
   full:       -0.002      -0.009      -0.459       1.167

 projected vibrational frequencies (cm⁻¹)
eigval :       -0.00    -0.00    -0.00    -0.00     0.00     0.00
eigval :        8.75    11.12    12.14    15.58    22.59    29.03
eigval :       35.14    37.04    39.03    49.07    52.08    58.47
eigval :       62.20    62.32    69.24    76.08    78.47    83.51
eigval :       91.28   106.62   107.56   112.11   116.03   122.25
eigval :      124.49   127.14   129.84   134.76   140.44   141.49
eigval :      146.01   146.03   165.55   165.96   197.65   198.47
eigval :      209.19   210.28   214.03   214.56   221.23   234.06
eigval :      248.51   259.15   263.09   271.54   274.78   278.61
eigval :      283.86   295.64   308.63   321.63   331.96   339.34
eigval :      357.87   374.17   382.24   384.89   388.71   395.74
eigval :      399.54   402.13   402.45   412.09   412.66   416.37
eigval :      417.21   423.42   425.26   428.51   434.53   435.09
eigval :      439.45   443.29   457.48   464.04   481.09   481.74
eigval :      491.65   492.51   495.44   495.53   506.90   507.15
eigval :      517.17   517.25   523.24   526.01   534.84   538.54
eigval :      542.49   542.69   545.66   549.65   557.67   560.18
eigval :      577.95   578.73   581.84   589.94   593.39   594.90
eigval :      595.13   603.51   613.27   635.81   640.64   647.59
eigval :      655.90   657.26   660.91   660.95   672.46   673.01
eigval :      675.22   682.28   687.82   688.03   694.64   699.25
eigval :      701.69   703.26   706.49   706.73   712.40   721.84
eigval :      741.19   743.84   755.37   759.10   769.77   769.93
eigval :      772.70   772.72   777.36   777.42   782.43   782.50
eigval :      811.08   812.99   815.77   816.46   838.11   838.56
eigval :      869.69   869.96   870.63   870.63   877.04   877.18
eigval :      877.85   877.99   878.97   892.01   893.57   893.75
eigval :      897.29   902.57   902.69   905.46   905.50   905.61
eigval :      905.67   905.73   905.85   917.35   922.46   922.46
eigval :      922.49   922.51   923.42   923.49   924.81   924.97
eigval :      936.80   976.48  1001.33  1005.14  1011.87  1012.56
eigval :     1041.37  1049.24  1049.51  1071.03  1071.06  1071.31
eigval :     1072.53  1072.73  1075.84  1076.95  1076.96  1078.68
eigval :     1090.53  1119.30  1122.78  1125.81  1146.76  1148.29
eigval :     1152.01  1152.10  1154.83  1154.87  1160.63  1162.59
eigval :     1168.74  1177.91  1179.29  1179.84  1180.30  1180.60
eigval :     1181.54  1182.21  1184.17  1197.90  1215.05  1219.13
eigval :     1230.41  1233.67  1234.72  1234.84  1237.98  1246.29
eigval :     1259.30  1264.42  1268.45  1269.15  1286.88  1290.79
eigval :     1291.84  1294.47  1294.68  1298.43  1303.30  1316.91
eigval :     1319.13  1339.77  1339.91  1346.07  1350.04  1358.89
eigval :     1359.06  1359.36  1360.35  1361.33  1361.85  1378.24
eigval :     1379.32  1391.82  1393.61  1406.85  1409.45  1414.17
eigval :     1414.92  1420.66  1424.77  1424.97  1428.36  1428.77
eigval :     1442.26  1442.75  1450.45  1456.54  1461.30  1461.41
eigval :     1472.23  1473.38  1481.42  1483.25  1486.42  1486.79
eigval :     1491.89  1503.71  1561.11  1561.35  1570.68  1570.81
eigval :     1578.75  1579.05  1579.28  1579.44  1587.89  1587.99
eigval :     1593.51  1593.90  1596.91  1596.98  1601.49  1601.59
eigval :     1610.51  1610.90  1614.32  1615.08  2368.41  2369.38
eigval :     3075.43  3075.63  3076.40  3076.53  3077.62  3077.84
eigval :     3080.90  3080.92  3084.50  3084.52  3085.40  3085.53
eigval :     3085.77  3085.82  3087.37  3087.40  3087.43  3087.47
eigval :     3092.26  3092.33  3094.07  3094.11  3094.69  3094.72
eigval :     3096.12  3096.17  3100.51  3100.56  3101.34  3101.41
eigval :     3102.07  3102.12  3102.47  3102.58  3103.63  3103.77

   temp. (K)  partition function   enthalpy   heat capacity  entropy
                                   cal/mol     cal/K/mol   cal/K/mol   J/K/mol
 298.15  VIB  0.123E+27            34623.720    220.394    214.472
         ROT  0.116E+09              888.752      2.981     39.889
         INT  0.143E+35            35512.473    223.375    254.361
         TR   0.306E+29             1481.254      4.968     46.564
         TOT                       36993.7266   228.3435   300.9249  1259.0699

       T/K    H(0)-H(T)+PV         H(T)/Eh          T*S/Eh         G(T)/Eh
   ------------------------------------------------------------------------
    298.15    0.589533E-01    0.877720E+00    0.142979E+00    0.734741E+00
   ------------------------------------------------------------------------

         :::::::::::::::::::::::::::::::::::::::::::::::::::::
         ::                  THERMODYNAMIC                  ::
         :::::::::::::::::::::::::::::::::::::::::::::::::::::
         :: total free energy        -187.424539769538 Eh   ::
         ::.................................................::
         :: total energy             -188.159281057205 Eh   ::
         :: zero point energy           0.818767174429 Eh   ::
         :: G(RRHO) w/o ZPVE           -0.084025886762 Eh   ::
         :: G(RRHO) contrib.            0.734741287667 Eh   ::
         :::::::::::::::::::::::::::::::::::::::::::::::::::::

           -------------------------------------------------
          | TOTAL ENERGY             -188.159281057205 Eh   |
          | TOTAL ENTHALPY           -187.281560626961 Eh   |
          | TOTAL FREE ENERGY        -187.424539769538 Eh   |
          | GRADIENT NORM               0.000043451110 Eh/α |
          | HOMO-LUMO GAP               1.517428688049 eV   |
           -------------------------------------------------

 * finished run on 2025/07/16 at 20:35:04.671
