   * xtb version 6.7.1 (edcfbbe) compiled by 'albert@albert-system' on 2024-07-22

   ID    Z sym.   atoms
    1    7 N      1, 5, 19, 41, 43, 57
    2    6 C      2-4, 6-18, 20-27, 29-40, 42, 44-56, 58-65, 67-76
    3   16 S      28, 66
    4    1 H      77-112

          program call               : xtb data2507/gas/2BTCz2CzTPN/2BTCz2CzTPN_gas_T1_crest.xyz --gfn 2 --spinpol --tblite --uhf 2 --ohess vtight --parallel 40 --molden --ceasefiles --namespace data2507/gas/2BTCz2CzTPN/2BTCz2CzTPN_gas_T1_finalOpt
 * total energy  :  -188.0912334 Eh     change       -0.1014928E-07 Eh
 * total energy  :  -188.0912435 Eh     change       -0.1011201E-04 Eh
 * total energy  :  -188.0912485 Eh     change       -0.4968858E-05 Eh
 * total energy  :  -188.0912519 Eh     change       -0.3375151E-05 Eh
 * total energy  :  -188.0912553 Eh     change       -0.3397826E-05 Eh
 * total energy  :  -188.0912575 Eh     change       -0.2194379E-05 Eh
 * total energy  :  -188.0912620 Eh     change       -0.4558140E-05 Eh
 * total energy  :  -188.0912657 Eh     change       -0.3621491E-05 Eh
 * total energy  :  -188.0912696 Eh     change       -0.3905084E-05 Eh
 * total energy  :  -188.0912722 Eh     change       -0.2643279E-05 Eh
 * total energy  :  -188.0912923 Eh     change       -0.1908680E-06 Eh
 * total energy  :  -188.0912926 Eh     change       -0.3378000E-06 Eh
 * total energy  :  -188.0912930 Eh     change       -0.3552266E-06 Eh
 * total energy  :  -188.0912932 Eh     change       -0.2199831E-06 Eh
 * total energy  :  -188.0912935 Eh     change       -0.2356700E-06 Eh
 * total energy  :  -188.0912937 Eh     change       -0.2015087E-06 Eh
 * total energy  :  -188.0912938 Eh     change       -0.1599125E-06 Eh
 * total energy  :  -188.0912939 Eh     change       -0.1219636E-06 Eh
 * total energy  :  -188.0912940 Eh     change       -0.9303196E-07 Eh
   *** GEOMETRY OPTIMIZATION CONVERGED AFTER 38 ITERATIONS ***

 final structure:
================
112
 xtb: 6.7.1 (edcfbbe)
N           -0.77569857587503        3.59907265008828        2.43535298175695
C           -0.53131173329430        2.79208847062436        1.64357001885175
C           -0.24112750760964        1.83947896544639        0.67803007109312
C            1.11518206355048        1.52365126140595        0.34849115096436
N            2.14976013431263        2.26922766607575        0.93034043189792
C            3.25160619510154        1.72503279929788        1.55986512131901
C            3.43533823409085        0.43800476205728        2.04323478674193
C            4.65679759697207        0.13365727608749        2.61548575891138
C            5.65913405241001        1.09135520668556        2.72875578132494
C            5.45275679858198        2.39530974471030        2.31161694478567
C            4.23728425174596        2.72196275006161        1.73282993368058
C            3.67661893250337        3.93851578668000        1.20763938042734
C            4.15618487968166        5.23223268887088        1.08367206663508
C            3.34688308620819        6.18411073742737        0.48975908556353
C            2.08118226135041        5.85419205984758        0.01307065296956
C            1.58516962489874        4.56930935645994        0.11921872913286
C            2.38489811102827        3.61442945469428        0.73075241056744
C            1.41051090938551        0.47634161416373       -0.50029316137199
N            2.74358870625828        0.21856208554223       -0.85431843545245
C            3.63196671167561        1.17905323088824       -1.29658817101878
C            3.37432761172609        2.44431990265346       -1.80218926265295
C            4.45689898163017        3.22343984975995       -2.16457207678982
C            5.76090435270992        2.74964418883725       -2.04920044437088
C            6.02038200377598        1.46735504495232       -1.60046348467953
C            4.94809241531168        0.67021036699039       -1.23036643755199
C            4.82966909700882       -0.67460311122804       -0.74768450688345
C            5.73305155616634       -1.67565101118161       -0.43104331296960
S            7.46854323947102       -1.59571814844803       -0.55340326834121
C            7.60811191981992       -3.23376092216603        0.05306785375229
C            8.78973065044946       -3.92758526819612        0.24507451199735
C            8.72259302568998       -5.22024645146290        0.73097794844160
C            7.49435833350278       -5.80765569090660        1.01954084797854
C            6.31743013721550       -5.11411502956451        0.82819472985851
C            6.35766496825803       -3.80985838831181        0.33951044011473
C            5.27168824754245       -2.90910156670706        0.06581839008717
C            3.90081348746369       -3.12158269914872        0.24938401723579
C            2.98688937847075       -2.13565245378189       -0.04196064781757
C            3.45163549930707       -0.91970395122411       -0.54260172234200
C            0.37029259157320       -0.33306258217854       -1.06021468960046
C            0.66180468674502       -1.29665155099322       -2.01439098725425
N            0.91046344815722       -2.11610826491525       -2.79201378214891
C           -0.98612088947778       -0.01660596402031       -0.73277637501458
N           -2.01541570402919       -0.77474846805517       -1.31137985222345
C           -2.25644322600498       -2.11253231769198       -1.06946120181440
C           -1.45541013894612       -3.05510741165069       -0.44082743597721
C           -1.96372080404913       -4.32933542463792       -0.27856618304117
C           -3.24322482395683       -4.66127430114345       -0.71607460116745
C           -4.05205020426635       -3.72317996967599       -1.33141871285069
C           -3.55867328736626       -2.44155370595994       -1.51458263971395
C           -4.11872930609511       -1.23842160154023       -2.06832405280779
C           -5.34389896451443       -0.92133913649727       -2.63236891120341
C           -5.54871899427056        0.37036132384869       -3.08571480425224
C           -4.53860878423621        1.32440067911684       -3.01811469097072
C           -3.30996175741085        1.03123030104952       -2.45522824699948
C           -3.12451333469331       -0.24299253833710       -1.94042217416871
C           -1.28210616280993        1.03392605430127        0.11360520339229
N           -2.61558429917791        1.30445802258648        0.45828711608175
C           -3.31969876343745        2.44268775922323        0.11724770301418
C           -2.85650147731303        3.66707312920847       -0.34205404979775
C           -3.79173765447406        4.63614599886033       -0.64803541762357
C           -5.15794374892481        4.39653836039839       -0.51506502171798
C           -5.62886906719166        3.17417566531746       -0.07487186140897
C           -4.70656138586826        2.18925857345581        0.24402214434323
C           -4.83057482886174        0.83219113423103        0.68888301486062
C           -5.88697514795152       -0.03415470612910        0.92003068913379
S           -7.57960445345404        0.29210652354334        0.68499655795893
C           -7.98373622398136       -1.35157142679288        1.14365300212780
C           -9.25703726376453       -1.89062912804074        1.18648802428141
C           -9.39897334454632       -3.21385212217991        1.56311410060698
C           -8.28605018398023       -3.98276563211627        1.88842299406448
C           -7.01699035212630       -3.44228509100273        1.84641918528476
C           -6.84823909009934       -2.11077466022176        1.47458920673029
C           -5.63396833060570       -1.35108026452239        1.35247050094306
C           -4.32522992530335       -1.76675712491489        1.61159952802178
C           -3.25989469915788       -0.92947522670272        1.36571561991657
C           -3.51751561344721        0.33739982672286        0.84563496069125
H            2.64850861647531       -0.29899840191846        1.98738809384482
H            4.83264418090834       -0.86717542355555        2.98059324337043
H            6.60526119469576        0.81444039666935        3.16843034551403
H            6.22046700890192        3.14360547324810        2.43411157178624
H            5.14202072281606        5.48686697481039        1.44132471474274
H            3.70041252936861        7.19919116704456        0.38883560825422
H            1.47463942108593        6.61743384498474       -0.45058972292473
H            0.60543091577704        4.32368208685278       -0.25902934436859
H            2.36415524486877        2.80592331321981       -1.91994142981035
H            4.28468367060071        4.21887102719953       -2.54475251127448
H            6.58086266987026        3.39125066192400       -2.33372928212369
H            7.02912361837224        1.08890736847180       -1.53958360581273
H            9.73745738903371       -3.46503679141637        0.01742141186351
H            9.63295334588701       -5.77894165770595        0.88663529934373
H            7.46465147194190       -6.81884617130764        1.39667776266040
H            5.36690835294578       -5.57433268525566        1.05105943832085
H            3.56260570445326       -4.07183898678027        0.63194300358219
H            1.93334400525806       -2.30364003292967        0.11218572729004
H           -0.46582348701826       -2.80772436442977       -0.09050323179070
H           -1.35653473102789       -5.08250071307313        0.20078621747470
H           -3.60734064480143       -5.66695774304411       -0.56808957973800
H           -5.04910752486657       -3.97743243562914       -1.65732932277845
H           -6.11934537013916       -1.66767768755446       -2.71437434310484
H           -6.50104073018262        0.64059694833038       -3.51580186027453
H           -4.71557102842182        2.31510212853523       -3.40825881163055
H           -2.52114920436516        1.76771315942308       -2.42617199092183
H           -1.80194696783656        3.86375763872386       -0.45126852626880
H           -3.45612641238068        5.60039714339929       -0.99871327359586
H           -5.85700616110312        5.18048525623234       -0.76425008119198
H           -6.68650641811992        2.98087095830867        0.01879074966247
H          -10.11441337769045       -1.28800705074276        0.93017769696842
H          -10.38399234379368       -3.65349378604327        1.60305429529816
H           -8.41914742149839       -5.01462405442443        2.17693642553549
H           -6.15483110607975       -4.04155731543988        2.09661779441583
H           -4.15020770765373       -2.76062340197358        1.99199355894552
H           -2.24855188435472       -1.24502016602721        1.57055436129898

 projected vibrational frequencies (cm⁻¹)
eigval :       -0.00    -0.00     0.00     0.00     0.00     0.00
eigval :        8.78    11.08    12.56    16.79    17.18    28.09
eigval :       32.97    33.71    45.34    47.14    50.22    56.70
eigval :       58.17    60.43    70.98    73.55    76.49    86.22
eigval :       90.61   101.27   105.80   110.62   112.63   115.28
eigval :      118.69   124.33   126.79   127.89   132.83   138.77
eigval :      141.90   150.86   160.92   164.72   190.35   195.31
eigval :      196.05   211.27   213.98   219.11   221.39   235.56
eigval :      246.80   255.11   263.34   266.93   275.92   277.63
eigval :      282.02   290.46   303.27   323.29   335.93   337.19
eigval :      362.94   372.50   381.40   382.44   387.53   392.64
eigval :      395.75   397.82   401.92   402.85   404.62   411.47
eigval :      414.87   418.88   422.90   424.03   432.31   434.66
eigval :      439.19   442.94   452.67   457.30   465.61   479.73
eigval :      481.19   489.04   489.68   492.96   495.84   502.15
eigval :      504.50   510.08   516.22   517.87   526.14   536.00
eigval :      537.80   538.79   543.49   544.00   549.70   558.27
eigval :      562.52   567.43   577.82   585.13   587.54   593.88
eigval :      595.59   598.75   601.39   616.72   627.37   629.73
eigval :      644.66   648.96   660.45   660.85   664.71   666.35
eigval :      672.34   672.80   683.72   687.37   688.33   693.20
eigval :      702.09   703.01   707.15   707.21   709.86   724.76
eigval :      728.27   750.71   753.95   762.88   764.52   764.92
eigval :      768.32   771.17   772.08   774.77   777.11   777.84
eigval :      800.85   806.85   811.34   821.74   836.08   837.14
eigval :      857.46   859.74   864.39   866.86   869.45   869.65
eigval :      874.35   874.82   875.07   888.15   891.77   896.80
eigval :      898.94   899.40   900.35   901.49   904.09   904.35
eigval :      905.02   905.68   905.76   918.35   918.47   919.52
eigval :      920.58   920.68   921.18   921.80   921.86   923.02
eigval :      932.24   976.67   996.09  1003.38  1011.66  1012.03
eigval :     1035.94  1046.58  1047.25  1063.85  1067.28  1067.77
eigval :     1069.36  1069.92  1070.98  1072.93  1076.00  1076.06
eigval :     1087.59  1110.72  1114.74  1122.45  1139.77  1140.48
eigval :     1142.30  1142.60  1145.58  1147.58  1156.00  1157.46
eigval :     1158.82  1174.46  1175.17  1176.29  1178.16  1178.60
eigval :     1179.17  1180.97  1181.52  1193.33  1195.00  1213.54
eigval :     1218.54  1229.15  1229.61  1230.11  1232.47  1235.84
eigval :     1242.60  1258.00  1258.57  1273.23  1276.34  1281.16
eigval :     1282.10  1284.37  1285.48  1294.24  1295.96  1311.01
eigval :     1313.77  1320.76  1321.69  1332.31  1339.01  1341.10
eigval :     1343.86  1344.63  1346.33  1351.27  1359.43  1362.61
eigval :     1365.38  1368.76  1377.50  1384.88  1393.61  1396.45
eigval :     1397.59  1401.28  1411.92  1412.84  1415.73  1416.99
eigval :     1421.61  1425.00  1442.47  1445.81  1456.25  1457.33
eigval :     1462.93  1463.18  1468.80  1477.69  1479.62  1483.40
eigval :     1483.62  1522.27  1541.72  1548.55  1552.34  1554.56
eigval :     1565.53  1567.34  1568.65  1568.94  1578.75  1581.06
eigval :     1582.09  1582.42  1583.00  1583.31  1583.95  1584.97
eigval :     1596.61  1597.53  1603.65  1605.44  2255.50  2293.05
eigval :     3081.18  3081.63  3082.76  3083.06  3083.23  3083.45
eigval :     3084.46  3084.83  3086.24  3087.16  3088.47  3088.91
eigval :     3088.97  3089.16  3089.72  3091.48  3091.50  3093.41
eigval :     3093.55  3095.61  3095.94  3096.29  3096.59  3097.10
eigval :     3097.76  3099.19  3100.95  3101.42  3101.88  3102.19
eigval :     3102.67  3102.74  3103.24  3105.01  3105.10  3108.90

   temp. (K)  partition function   enthalpy   heat capacity  entropy
                                   cal/mol     cal/K/mol   cal/K/mol   J/K/mol
 298.15  VIB  0.315E+27            34937.156    221.725    216.812
         ROT  0.222E+09              888.752      2.981     41.174
         INT  0.700E+35            35825.909    224.706    257.985
         TR   0.306E+29             1481.254      4.968     46.564
         TOT                       37307.1626   229.6745   304.5493  1274.2342

       T/K    H(0)-H(T)+PV         H(T)/Eh          T*S/Eh         G(T)/Eh
   ------------------------------------------------------------------------
    298.15    0.594527E-01    0.874232E+00    0.144701E+00    0.729531E+00
   ------------------------------------------------------------------------

         :::::::::::::::::::::::::::::::::::::::::::::::::::::
         ::                  THERMODYNAMIC                  ::
         :::::::::::::::::::::::::::::::::::::::::::::::::::::
         :: total free energy        -187.361763497374 Eh   ::
         ::.................................................::
         :: total energy             -188.091294038721 Eh   ::
         :: zero point energy           0.814778987103 Eh   ::
         :: G(RRHO) w/o ZPVE           -0.085248445755 Eh   ::
         :: G(RRHO) contrib.            0.729530541347 Eh   ::
         :::::::::::::::::::::::::::::::::::::::::::::::::::::

           -------------------------------------------------
          | TOTAL ENERGY             -188.091294038721 Eh   |
          | TOTAL ENTHALPY           -187.217062303763 Eh   |
          | TOTAL FREE ENERGY        -187.361763497374 Eh   |
          | GRADIENT NORM               0.000043797494 Eh/α |
           -------------------------------------------------

 * finished run on 2025/07/16 at 20:48:20.439
