   * xtb version 6.7.1 (edcfbbe) compiled by 'albert@albert-system' on 2024-07-22

   ID    Z sym.   atoms
    1    6 C      1-5, 8-17, 19-32, 34-43, 45-56
    2    7 N      6, 7, 18, 33, 44
    3    1 H      57-89

          program call               : xtb data2507/gas/4NTAZ-PPI/4NTAZ-PPI_gas_S0_finalOpt.xtbopt.xyz --gfn 2 --spinpol --tblite --uhf 2 --ohess vtight --parallel 40 --molden --ceasefiles --namespace data2507/gas/4NTAZ-PPI/4NTAZ-PPI_gas_T1_preOpt
 * total energy  :  -140.6210439 Eh     change        0.5860699E-08 Eh
 * total energy  :  -140.6257063 Eh     change       -0.4662427E-02 Eh
 * total energy  :  -140.6287478 Eh     change       -0.3041464E-02 Eh
 * total energy  :  -140.6294680 Eh     change       -0.7202028E-03 Eh
 * total energy  :  -140.6305584 Eh     change       -0.1090458E-02 Eh
 * total energy  :  -140.6310083 Eh     change       -0.4498806E-03 Eh
 * total energy  :  -140.6313075 Eh     change       -0.2992099E-03 Eh
 * total energy  :  -140.6315176 Eh     change       -0.2100882E-03 Eh
 * total energy  :  -140.6316648 Eh     change       -0.1471338E-03 Eh
 * total energy  :  -140.6317636 Eh     change       -0.9880439E-04 Eh
 * total energy  :  -140.6325067 Eh     change       -0.1888662E-05 Eh
 * total energy  :  -140.6325084 Eh     change       -0.1672880E-05 Eh
 * total energy  :  -140.6325099 Eh     change       -0.1480324E-05 Eh
 * total energy  :  -140.6325111 Eh     change       -0.1247485E-05 Eh
 * total energy  :  -140.6325122 Eh     change       -0.1028827E-05 Eh
 * total energy  :  -140.6325131 Eh     change       -0.9283998E-06 Eh
 * total energy  :  -140.6325141 Eh     change       -0.9928275E-06 Eh
 * total energy  :  -140.6325141 Eh     change        0.1341806E-07 Eh
 * total energy  :  -140.6325141 Eh     change       -0.1893730E-07 Eh
   *** GEOMETRY OPTIMIZATION CONVERGED AFTER 95 ITERATIONS ***

 final structure:
================
89
 xtb: 6.7.1 (edcfbbe)
C           11.69732290073975       -0.00147367942148       -0.07098938121716
C           10.71940691048633       -0.78001788312610        0.52582034154925
C            9.39235492062402       -0.39712532690188        0.47773288044431
C            9.02878551361762        0.77791793905184       -0.18038648744930
C            7.66064787866026        1.24383037144330       -0.25584351389684
N            7.32105688201362        2.51342068024286       -0.31262071774814
N            6.00937815099952        2.60728620258360       -0.33844858591374
C            5.48698536723602        1.38855262997704       -0.31268997898898
C            4.08568592784168        1.13378430327419       -0.37327221155331
C            3.20560271077960        2.20735322916490       -0.10754967682058
C            1.85429500331686        2.03499663102910       -0.12268994577439
C            1.26159597810371        0.77308681960017       -0.40690497769142
C           -0.14668507642437        0.58107292578622       -0.39432759415096
C           -1.06020155318216        1.67476035835973       -0.46508943419215
C           -2.40787846959396        1.50672817910458       -0.42895505129660
C           -2.98766436919447        0.21208619494006       -0.30489337110974
C           -4.35960833819529       -0.07815132029981       -0.23669329686696
N           -4.82375041199765       -1.33214676410960       -0.34995379516778
C           -6.15045245232135       -1.25913777356954       -0.29346007837521
C           -7.08829774560123       -2.32608393801369       -0.40961230949833
C           -6.65613561304956       -3.63642995067096       -0.62999779379545
C           -7.56901878621898       -4.65576976634870       -0.76658111985213
C           -8.92765335775519       -4.36654088492308       -0.68697782469706
C           -9.36366103643419       -3.07787412788199       -0.46605411663556
C           -8.46378277625002       -2.01390274091777       -0.31414417295036
C           -8.89044793101012       -0.64817483130125       -0.05668197691838
C          -10.24042643179285       -0.32206525178778        0.10552007907363
C          -10.65864387849013        0.96195034544038        0.37715524033181
C           -9.72420979702795        1.98640178750567        0.51230779208640
C           -8.38983629178842        1.71420993928963        0.35645969790562
C           -7.93855096272697        0.41318297975616        0.05891460638356
C           -6.57629045039025        0.08058210673576       -0.10930038458802
N           -5.42447779901355        0.82318173874347       -0.08113570087155
C           -5.31790544160551        2.21417391362885        0.11911036076026
C           -5.65872578928190        3.09271425858191       -0.90590104471418
C           -5.54695233541681        4.45582465828583       -0.70306564538563
C           -5.09787623972357        4.94515327732242        0.51343416342747
C           -4.75977275898062        4.06921807015423        1.53226548120005
C           -4.86848346873643        2.70387068015466        1.34135270782294
C           -2.08092683512659       -0.89268576224019       -0.27858240502076
C           -0.73761574856465       -0.71665938407128       -0.31992218769377
C            2.16119127247906       -0.28334506728567       -0.71423439333143
C            3.51511902702826       -0.11185145670909       -0.70587847516395
N            6.52138051883962        0.47063945729035       -0.25488425537072
C            6.46006669922283       -0.93316826510551       -0.22934661271056
C            7.00744528513738       -1.64593811380058       -1.27018524406841
C            6.96733413091711       -3.04451828700238       -1.26544222632194
C            6.37918260652977       -3.71531398749435       -0.22874849963715
C            5.81651192230288       -3.01545942260015        0.85971880214198
C            5.21116638870948       -3.68776570928400        1.94161029351815
C            4.68451084194675       -2.99201302744331        2.99401798277044
C            4.74794742730882       -1.59181456170046        3.01716455412904
C            5.32373992040882       -0.90688869513472        1.98275414919456
C            5.86137788908619       -1.59621572110714        0.87740210208269
C           10.02280187871584        1.57108988426282       -0.75865619334511
C           11.34506505881036        1.18007983258297       -0.70543777709956
H           12.73160903544329       -0.30980976478452       -0.03348828906436
H           10.99140335699618       -1.69142063915531        1.03797977736449
H            8.64681716653762       -1.00109266205423        0.97279593790767
H            3.64211325072969        3.16635416767219        0.12434778978559
H            1.22314554647871        2.87285241019611        0.12818157941478
H           -0.67303361406194        2.67275518727953       -0.60000131774921
H           -3.04246914005052        2.37150450372568       -0.53448221901159
H           -5.59373838972982       -3.81273745083989       -0.69296658810968
H           -7.23948076272218       -5.66950129098516       -0.93796818321912
H           -9.65206864722959       -5.16022181058642       -0.79955447043595
H          -10.42685942038440       -2.90519359783440       -0.41547022617899
H          -10.99124032965187       -1.09148260582399        0.02552672479910
H          -11.71114526085491        1.17203871974253        0.49503776449662
H          -10.04868277313739        2.99027172248630        0.74232019709137
H           -7.67122311076927        2.50820936233244        0.47690282003348
H           -6.00800994293484        2.69842006241737       -1.84885041674928
H           -5.80856142040184        5.13749330973437       -1.49827540229846
H           -5.01092281509370        6.01003626061242        0.66656347390013
H           -4.41124862377602        4.44986326533256        2.48036149284212
H           -4.60328617502179        2.01058498485781        2.12550342655927
H           -2.51189700501200       -1.87806948135882       -0.20202930813233
H           -0.09825538174412       -1.58289967284290       -0.25312156770698
H            1.76884992429825       -1.24447102999805       -1.00743063522495
H            4.14979092344531       -0.93746584129462       -0.98971207399199
H            7.46647205052414       -1.11869354586466       -2.09369099930919
H            7.39985655281919       -3.58445230871571       -2.09400963930417
H            6.33904162451352       -4.79463578386698       -0.22554737227185
H            5.17278112869818       -4.76741653815176        1.92066060797439
H            4.22088203650326       -3.51592478566734        3.81675997679049
H            4.33841995454185       -1.05389464036321        3.85894255180384
H            5.37130319106852        0.17173233718513        2.01219406577611
H            9.73104356079455        2.48931984795884       -1.24389549008866
H           12.10628670204881        1.79657070532919       -1.16024546508634

 projected vibrational frequencies (cm⁻¹)
eigval :       -0.00    -0.00    -0.00     0.00     0.00     0.00
eigval :        6.09     6.91    11.76    18.96    24.01    25.00
eigval :       27.15    28.58    38.60    45.80    50.18    59.13
eigval :       61.66    71.02    81.08    85.35    91.01    94.96
eigval :       98.10   112.04   130.57   134.19   156.94   159.44
eigval :      169.46   173.71   205.82   213.69   220.19   231.78
eigval :      237.80   244.24   255.47   263.56   273.69   278.05
eigval :      316.69   323.47   339.28   356.37   365.92   371.99
eigval :      373.44   376.79   382.37   388.53   393.76   399.77
eigval :      405.49   413.67   428.88   435.41   437.16   440.51
eigval :      444.76   457.29   470.86   480.98   489.88   494.86
eigval :      504.03   507.18   510.79   527.33   535.86   547.40
eigval :      567.16   582.83   586.00   587.50   588.46   600.39
eigval :      615.49   621.33   629.51   633.72   638.26   643.45
eigval :      652.13   657.46   664.81   666.86   671.37   673.51
eigval :      679.62   689.65   692.91   700.65   716.21   721.43
eigval :      731.45   752.76   758.84   759.14   761.58   764.66
eigval :      776.66   777.07   793.96   797.36   802.06   811.35
eigval :      812.67   822.67   839.19   855.84   869.88   872.50
eigval :      873.07   873.81   887.34   897.87   900.90   902.56
eigval :      903.21   907.96   908.84   913.39   914.39   914.69
eigval :      916.04   917.88   919.84   920.85   924.06   927.13
eigval :      928.03   928.85   930.55   931.31   933.73   941.35
eigval :      942.91   968.77   983.12   992.01  1004.39  1021.82
eigval :     1046.47  1060.83  1077.53  1081.96  1083.36  1084.50
eigval :     1099.17  1105.28  1112.94  1114.82  1119.76  1127.51
eigval :     1135.14  1141.90  1150.13  1153.25  1160.86  1162.69
eigval :     1172.33  1179.66  1180.64  1181.35  1181.46  1184.29
eigval :     1186.42  1195.91  1199.09  1206.09  1207.91  1211.55
eigval :     1224.49  1246.20  1250.51  1253.87  1254.14  1261.31
eigval :     1272.87  1273.20  1275.17  1278.35  1285.31  1290.51
eigval :     1295.70  1304.99  1309.38  1322.88  1325.73  1334.46
eigval :     1334.81  1337.45  1338.23  1348.33  1355.05  1376.40
eigval :     1384.12  1393.57  1396.07  1397.95  1410.26  1416.27
eigval :     1423.62  1428.39  1431.48  1432.93  1437.09  1440.28
eigval :     1443.90  1451.20  1456.89  1466.73  1475.24  1487.92
eigval :     1492.68  1500.10  1505.10  1509.58  1522.68  1544.60
eigval :     1546.95  1551.71  1566.76  1574.43  1575.39  1576.13
eigval :     1581.01  1587.57  1588.31  1589.18  1590.89  1605.49
eigval :     3074.43  3075.31  3075.57  3079.72  3080.34  3080.96
eigval :     3081.80  3083.81  3085.81  3085.91  3086.75  3087.97
eigval :     3088.17  3089.13  3089.90  3090.72  3092.23  3094.36
eigval :     3096.06  3096.83  3096.96  3097.75  3098.10  3099.13
eigval :     3103.15  3103.45  3107.42  3107.59  3107.89  3111.59
eigval :     3112.68  3119.49  3125.07

   temp. (K)  partition function   enthalpy   heat capacity  entropy
                                   cal/mol     cal/K/mol   cal/K/mol   J/K/mol
 298.15  VIB  0.431E+22            25953.528    162.006    163.653
         ROT  0.171E+09              888.752      2.981     40.653
         INT  0.737E+30            26842.280    164.987    204.306
         TR   0.185E+29             1481.254      4.968     45.564
         TOT                       28323.5343   169.9548   249.8706  1045.4587

       T/K    H(0)-H(T)+PV         H(T)/Eh          T*S/Eh         G(T)/Eh
   ------------------------------------------------------------------------
    298.15    0.451364E-01    0.720204E+00    0.118722E+00    0.601482E+00
   ------------------------------------------------------------------------

         :::::::::::::::::::::::::::::::::::::::::::::::::::::
         ::                  THERMODYNAMIC                  ::
         :::::::::::::::::::::::::::::::::::::::::::::::::::::
         :: total free energy        -140.031031708319 Eh   ::
         ::.................................................::
         :: total energy             -140.632514047355 Eh   ::
         :: zero point energy           0.675067507622 Eh   ::
         :: G(RRHO) w/o ZPVE           -0.073585168586 Eh   ::
         :: G(RRHO) contrib.            0.601482339036 Eh   ::
         :::::::::::::::::::::::::::::::::::::::::::::::::::::

           -------------------------------------------------
          | TOTAL ENERGY             -140.632514047355 Eh   |
          | TOTAL ENTHALPY           -139.912310114813 Eh   |
          | TOTAL FREE ENERGY        -140.031031708319 Eh   |
          | GRADIENT NORM               0.000100226316 Eh/α |
           -------------------------------------------------

 * finished run on 2025/07/16 at 14:15:31.306
