   * xtb version 6.7.1 (edcfbbe) compiled by 'albert@albert-system' on 2024-07-22

   ID    Z sym.   atoms
    1    6 C      1-5, 8-17, 19-32, 34-43, 45-56
    2    7 N      6, 7, 18, 33, 44
    3    1 H      57-89

          program call               : xtb data2507/gas/4NTAZ-PPI/4NTAZ-PPI_gas_T1_crest.xyz --gfn 2 --spinpol --tblite --uhf 2 --ohess vtight --parallel 40 --molden --ceasefiles --namespace data2507/gas/4NTAZ-PPI/4NTAZ-PPI_gas_T1_finalOpt
 * total energy  :  -140.6325010 Eh     change       -0.1112920E-07 Eh
 * total energy  :  -140.6325131 Eh     change       -0.1209597E-04 Eh
 * total energy  :  -140.6325206 Eh     change       -0.7501534E-05 Eh
 * total energy  :  -140.6325226 Eh     change       -0.1984078E-05 Eh
 * total energy  :  -140.6325251 Eh     change       -0.2483657E-05 Eh
 * total energy  :  -140.6325276 Eh     change       -0.2467806E-05 Eh
 * total energy  :  -140.6325304 Eh     change       -0.2870460E-05 Eh
 * total energy  :  -140.6325327 Eh     change       -0.2284166E-05 Eh
 * total energy  :  -140.6325342 Eh     change       -0.1507252E-05 Eh
 * total energy  :  -140.6325348 Eh     change       -0.6151886E-06 Eh
 * total energy  :  -140.6325365 Eh     change       -0.4923411E-06 Eh
 * total energy  :  -140.6325367 Eh     change       -0.2155729E-06 Eh
 * total energy  :  -140.6325372 Eh     change       -0.4457081E-06 Eh
 * total energy  :  -140.6325377 Eh     change       -0.5694426E-06 Eh
 * total energy  :  -140.6325384 Eh     change       -0.6639465E-06 Eh
 * total energy  :  -140.6325391 Eh     change       -0.6908091E-06 Eh
 * total energy  :  -140.6325397 Eh     change       -0.6541004E-06 Eh
 * total energy  :  -140.6325405 Eh     change       -0.8029077E-06 Eh
 * total energy  :  -140.6325406 Eh     change       -0.2768573E-07 Eh
   *** GEOMETRY OPTIMIZATION CONVERGED AFTER 22 ITERATIONS ***

 final structure:
================
89
 xtb: 6.7.1 (edcfbbe)
C           11.70717418850490        0.25468997581370       -0.36194238944251
C           10.77516116122735       -0.61536071071690        0.17936291623379
C            9.43839085587626       -0.26838340499730        0.22930644719968
C            9.01802457991159        0.96342457959369       -0.27286781618622
C            7.63732033439478        1.39519419046308       -0.23939112657380
N            7.26552735502467        2.65345246738916       -0.14126372649772
N            5.95275803428544        2.71201912823698       -0.10327181867178
C            5.45989079575609        1.48302751684089       -0.19105253768374
C            4.06306635622900        1.20367406918504       -0.22566233021821
C            3.17494043697466        2.24077794746846        0.14226895256641
C            1.82620682518099        2.05078996611571        0.14402271197468
C            1.24405784789781        0.80437073861632       -0.21856120367458
C           -0.16174865678954        0.59554843574736       -0.20241175095640
C           -1.08625853189585        1.68164013861643       -0.21405689761429
C           -2.43232021761757        1.49734092303744       -0.19718533202034
C           -2.99871459233683        0.19190802556163       -0.14745026970185
C           -4.36757049205448       -0.11870544529582       -0.11599413959724
N           -4.80692333769349       -1.38191528862278       -0.22857047752290
C           -6.13556405593875       -1.33342344065995       -0.20275926216524
C           -7.05099315541812       -2.41963017227148       -0.31897841053262
C           -6.58982200445140       -3.72666927959512       -0.49583111878348
C           -7.48030679033985       -4.76642732905414       -0.62562435765228
C           -8.84553393448443       -4.50132683195740       -0.58218979626754
C           -9.31017059737059       -3.21592038774282       -0.40545069664041
C           -8.43384931271320       -2.13097542974971       -0.26349256162283
C           -8.89173273525024       -0.76665283002468       -0.05776199527000
C          -10.25190071163827       -0.45897534149922        0.04532098335865
C          -10.70036756109382        0.82531193830836        0.26127729721521
C           -9.78843050705706        1.87018644593023        0.39468221085977
C           -8.44501389152111        1.61635886732384        0.29645100612339
C           -7.96216982113515        0.31401185977288        0.06096101700201
C           -6.58964667577006        0.00038220157111       -0.04885989586032
N           -5.45266389895117        0.76391663244496        0.00212571659299
C           -5.38610098297423        2.16281385274681        0.17008309479799
C           -5.62854302673595        3.00377614895257       -0.91238031558315
C           -5.55960191876933        4.37425999398699       -0.74158908827500
C           -5.25162347188854        4.90721452217789        0.50008479312952
C           -5.01270943781889        4.06835283406449        1.57657463574205
C           -5.07944011176545        2.69603463718810        1.41787296072311
C           -2.07887008401118       -0.90279957729169       -0.15544070438762
C           -0.73745484309108       -0.71056630437755       -0.18564743755666
C            2.14952247808383       -0.21665626483590       -0.61438183812583
C            3.50083763806188       -0.02527790965871       -0.62862514459762
N            6.51785191905031        0.59421719926929       -0.27616857550516
C            6.49689285338251       -0.80436291432226       -0.41422012614987
C            7.00037593941852       -1.37023258347816       -1.56194690574524
C            7.00481384577544       -2.76045293986192       -1.71965274769922
C            6.50641052301437       -3.56903904033317       -0.73553225841895
C            5.99143913406928       -3.02210930053801        0.45903541814224
C            5.47977150342837       -3.83768700790251        1.48948425707374
C            4.99801325423159       -3.28853444450933        2.64517059814219
C            5.01317781804867       -1.89858915712868        2.82659338429534
C            5.49800818569402       -1.07696039406555        1.84640335480497
C            5.98955019766936       -1.61359069196225        0.63963687047778
C            9.96673080061382        1.84636775846561       -0.79476179426396
C           11.29910674406677        1.49052689753805       -0.84043952282590
H           12.74930018323010       -0.02565353692124       -0.40200461441889
H           11.09105396731738       -1.57122340646344        0.57113995826692
H            8.73017979880738       -0.94683464667082        0.68061379217785
H            3.60474545151697        3.18603244043328        0.43486262627470
H            1.18931032958535        2.85784914127537        0.47038176717197
H           -0.70854853647748        2.68963543017728       -0.28846740327199
H           -3.07457359670094        2.36080346549066       -0.25181592873148
H           -5.52317140049770       -3.88433055745710       -0.52949452986658
H           -7.12832243153882       -5.77782170271878       -0.76277199367446
H           -9.55238047950451       -5.31160295414053       -0.68801872551128
H          -10.37726321422826       -3.06277029681101       -0.38076845209414
H          -10.98692399890193       -1.24296295089105       -0.03973178853291
H          -11.75974571710515        1.02069124315427        0.33444597433247
H          -10.13767863158126        2.87552624083640        0.57703899525507
H           -7.74426375984843        2.42705970879772        0.41114878863092
H           -5.86803985410556        2.57522792092623       -1.87435816114558
H           -5.74448954197734        5.02737213150643       -1.58103656850707
H           -5.19734571391465        5.97756806757227        0.62824140371540
H           -4.77419668026280        4.48333415647003        2.54413046880701
H           -4.89094811872897        2.03102415096668        2.24740184841674
H           -2.49911985020790       -1.89511179640505       -0.12144801097141
H           -0.08722396211470       -1.57087316446625       -0.15310104207976
H            1.76147720936607       -1.16127867933508       -0.96234630844180
H            4.13829009303037       -0.82009343509101       -0.98430122733447
H            7.39058065657328       -0.73381429279882       -2.34268530733261
H            7.40075634228490       -3.18378974236789       -2.63022605635020
H            6.50232570181894       -4.64231367154396       -0.85640398125228
H            5.47697497474110       -4.90858100692212        1.34549290169475
H            4.60665132805252       -3.92160550882897        3.42773208428568
H            4.63873560111386       -1.47755905140094        3.74756032536446
H            5.50853857927561       -0.00733515961403        1.99628582938886
H            9.63205395993649        2.80538251775934       -1.15808526821481
H           12.02473639053512        2.17705894390331       -1.25094346140922

 projected vibrational frequencies (cm⁻¹)
eigval :       -0.00    -0.00     0.00     0.00     0.00     0.00
eigval :        5.11     7.22    11.56    19.85    22.35    24.31
eigval :       27.14    28.99    38.96    46.06    50.37    58.05
eigval :       60.87    71.07    81.87    86.14    90.47    92.36
eigval :       97.73   111.39   130.75   133.94   156.10   159.17
eigval :      168.76   173.85   206.99   212.87   219.60   231.92
eigval :      238.20   243.39   254.69   263.46   273.63   278.45
eigval :      316.16   323.14   339.40   356.81   365.62   371.88
eigval :      373.10   378.52   381.88   389.09   393.92   399.54
eigval :      405.61   413.84   430.56   435.62   437.50   439.29
eigval :      445.51   456.19   470.88   481.02   489.42   495.09
eigval :      504.10   507.07   510.21   527.38   535.73   547.37
eigval :      566.90   582.85   586.21   587.47   588.65   600.34
eigval :      615.41   621.34   629.56   633.55   636.23   643.35
eigval :      652.00   657.59   664.84   666.86   671.56   673.41
eigval :      679.55   689.51   692.71   700.57   715.69   721.15
eigval :      731.44   753.09   759.07   759.37   761.78   764.97
eigval :      776.67   777.27   793.23   797.32   802.47   811.43
eigval :      814.39   823.85   839.19   856.09   870.08   872.69
eigval :      873.09   873.77   887.29   898.32   900.90   902.49
eigval :      902.86   906.88   908.71   914.07   914.73   915.06
eigval :      916.62   918.11   919.82   920.64   924.31   927.37
eigval :      928.11   929.08   930.71   932.07   933.87   940.90
eigval :      942.84   968.74   982.79   991.76  1004.30  1022.34
eigval :     1045.76  1060.97  1077.60  1082.06  1083.47  1084.49
eigval :     1099.26  1105.30  1113.03  1114.49  1119.83  1127.42
eigval :     1135.54  1142.01  1149.66  1152.57  1160.67  1161.84
eigval :     1172.49  1180.05  1180.98  1181.57  1181.70  1184.54
eigval :     1186.59  1196.16  1199.41  1206.42  1208.25  1212.19
eigval :     1224.63  1246.52  1250.43  1253.97  1254.27  1261.19
eigval :     1271.69  1272.89  1274.95  1278.49  1285.43  1290.52
eigval :     1295.45  1305.32  1308.11  1323.03  1325.57  1334.45
eigval :     1334.88  1337.59  1338.28  1348.33  1354.31  1376.09
eigval :     1383.62  1393.54  1396.06  1397.62  1410.02  1416.04
eigval :     1423.80  1428.26  1431.62  1432.65  1436.45  1440.40
eigval :     1443.72  1451.28  1456.86  1467.01  1475.52  1487.54
eigval :     1492.84  1499.79  1504.70  1508.93  1522.60  1544.44
eigval :     1547.17  1551.23  1566.98  1574.15  1575.37  1577.26
eigval :     1580.88  1587.14  1588.56  1590.06  1590.70  1605.11
eigval :     3074.54  3075.39  3075.75  3079.81  3080.43  3081.14
eigval :     3081.75  3084.36  3086.00  3086.20  3086.43  3088.01
eigval :     3088.12  3088.85  3089.99  3091.09  3092.76  3094.48
eigval :     3096.73  3096.95  3097.37  3097.55  3098.25  3099.24
eigval :     3103.38  3103.95  3107.47  3107.75  3108.35  3111.66
eigval :     3113.23  3124.50  3125.08

   temp. (K)  partition function   enthalpy   heat capacity  entropy
                                   cal/mol     cal/K/mol   cal/K/mol   J/K/mol
 298.15  VIB  0.537E+22            25962.793    161.985    163.911
         ROT  0.173E+09              888.752      2.981     40.676
         INT  0.929E+30            26851.546    164.966    204.587
         TR   0.185E+29             1481.254      4.968     45.564
         TOT                       28332.7997   169.9340   250.1512  1046.6328

       T/K    H(0)-H(T)+PV         H(T)/Eh          T*S/Eh         G(T)/Eh
   ------------------------------------------------------------------------
    298.15    0.451512E-01    0.720224E+00    0.118855E+00    0.601369E+00
   ------------------------------------------------------------------------

         :::::::::::::::::::::::::::::::::::::::::::::::::::::
         ::                  THERMODYNAMIC                  ::
         :::::::::::::::::::::::::::::::::::::::::::::::::::::
         :: total free energy        -140.031171786596 Eh   ::
         ::.................................................::
         :: total energy             -140.632540588984 Eh   ::
         :: zero point energy           0.675072542662 Eh   ::
         :: G(RRHO) w/o ZPVE           -0.073703740274 Eh   ::
         :: G(RRHO) contrib.            0.601368802388 Eh   ::
         :::::::::::::::::::::::::::::::::::::::::::::::::::::

           -------------------------------------------------
          | TOTAL ENERGY             -140.632540588984 Eh   |
          | TOTAL ENTHALPY           -139.912316856080 Eh   |
          | TOTAL FREE ENERGY        -140.031171786596 Eh   |
          | GRADIENT NORM               0.000088491917 Eh/α |
           -------------------------------------------------

 * finished run on 2025/07/16 at 14:22:37.619
