   * xtb version 6.7.1 (edcfbbe) compiled by 'albert@albert-system' on 2024-07-22

   ID    Z sym.   atoms
    1    6 C      1-5, 8-17, 19-32, 34-43, 45-56
    2    7 N      6, 7, 18, 33, 44
    3    1 H      57-89

          program call               : xtb data2507/gas/4NTAZ-PPI/4NTAZ-PPI_gas_S0_crest.xyz --gfn 2 --ohess vtight --parallel 40 --molden --ceasefiles --namespace data2507/gas/4NTAZ-PPI/4NTAZ-PPI_gas_S0_finalOpt
          :  Hamiltonian                  GFN2-xTB          :
 * total energy  :  -140.7140081 Eh     change       -0.4388113E-08 Eh
 * total energy  :  -140.7140097 Eh     change       -0.1616677E-05 Eh
 * total energy  :  -140.7140113 Eh     change       -0.1519669E-05 Eh
 * total energy  :  -140.7140140 Eh     change       -0.2760364E-05 Eh
 * total energy  :  -140.7140176 Eh     change       -0.3577281E-05 Eh
 * total energy  :  -140.7140213 Eh     change       -0.3705531E-05 Eh
 * total energy  :  -140.7140250 Eh     change       -0.3738268E-05 Eh
 * total energy  :  -140.7140290 Eh     change       -0.3968854E-05 Eh
 * total energy  :  -140.7140333 Eh     change       -0.4252490E-05 Eh
 * total energy  :  -140.7140373 Eh     change       -0.3999865E-05 Eh
 * total energy  :  -140.7140884 Eh     change       -0.1906528E-05 Eh
 * total energy  :  -140.7140901 Eh     change       -0.1633886E-05 Eh
 * total energy  :  -140.7140913 Eh     change       -0.1241552E-05 Eh
 * total energy  :  -140.7140924 Eh     change       -0.1073577E-05 Eh
 * total energy  :  -140.7140935 Eh     change       -0.1131479E-05 Eh
 * total energy  :  -140.7140948 Eh     change       -0.1313364E-05 Eh
 * total energy  :  -140.7140965 Eh     change       -0.1695747E-05 Eh
 * total energy  :  -140.7140983 Eh     change       -0.1791133E-05 Eh
 * total energy  :  -140.7140983 Eh     change       -0.5130659E-08 Eh
   *** GEOMETRY OPTIMIZATION CONVERGED AFTER 44 ITERATIONS ***

 final structure:
================
89
 xtb: 6.7.1 (edcfbbe)
C           11.60929928656357       -0.25634892807449        0.04515167269526
C           10.56510512732100       -0.86202715013340        0.72374466145823
C            9.27387631566085       -0.38720849634776        0.58686315871194
C            9.01739635103644        0.70232564903507       -0.24261681391764
C            7.68200466117187        1.24425001644773       -0.41720081123244
N            7.41124698951656        2.51105811225669       -0.60607153188510
N            6.09050764343954        2.65416605559296       -0.69493757520516
C            5.53199584861592        1.47685822562553       -0.56841358193878
C            4.10250476530760        1.23256826537268       -0.60294455964620
C            3.24861862364997        2.23945697149048       -0.15171429959839
C            1.88508132889137        2.04018456997709       -0.12842682604264
C            1.33408550510376        0.83014840855888       -0.54933523734267
C           -0.11374122449297        0.59683324800861       -0.49053867468739
C           -1.01783002417177        1.59232474407571       -0.85445384314199
C           -2.37952081787220        1.37167011024360       -0.80252658744094
C           -2.87786770959692        0.14537370808009       -0.36499491903874
C           -4.29297704148212       -0.17271125518093       -0.29346040425103
N           -4.75097046838518       -1.38424141334995       -0.49507082543510
C           -6.09871815062088       -1.30527329567594       -0.36052994081842
C           -7.05311876511422       -2.34785697741976       -0.52233270945245
C           -6.65759677137135       -3.64343461460698       -0.87069209034479
C           -7.59533295816313       -4.62905609311941       -1.05087760789043
C           -8.94565972476210       -4.32630978232363       -0.88736344962316
C           -9.34493870684312       -3.05683386431685       -0.54022789453230
C           -8.41641525313494       -2.02396479766958       -0.33871979481708
C           -8.80222896095350       -0.68126811185180        0.06041558827814
C          -10.13933620575363       -0.34934413089704        0.32047190062177
C          -10.51206392569867        0.90539995545523        0.74048614552586
C           -9.54907902282186        1.88974013338944        0.93720940529775
C           -8.22882963228891        1.60877351050364        0.68600312190131
C           -7.83059052717514        0.34404447681801        0.22949310521701
C           -6.47754607876752       -0.00021641147722       -0.04858379366723
N           -5.30538627717067        0.72182331704817       -0.01925648033845
C           -5.13030161462206        2.09588402003124        0.23916311191714
C           -5.62768778296341        3.04111040431973       -0.65344270458279
C           -5.42726982880774        4.38657856445649       -0.40675065656932
C           -4.72919948409514        4.79214921984863        0.71966913649067
C           -4.23178488809497        3.84963046772101        1.60407622244673
C           -4.42982896439684        2.50089835160005        1.36908807763915
C           -1.97326691106866       -0.85949631962880       -0.01447594412026
C           -0.61561385042305       -0.63744015673016       -0.07733575419642
C            2.18975452447961       -0.15858426797398       -1.03129935458646
C            3.55429756265192        0.03883181131723       -1.06759417147912
N            6.51012359009759        0.52560096823976       -0.38220555537442
C            6.35771588548880       -0.86600232474615       -0.24777780580994
C            6.92565352150460       -1.69491475255660       -1.18439197943613
C            6.76387028113961       -3.08242551821939       -1.08904740870666
C            6.02504072610922       -3.62244134555379       -0.07387333143095
C            5.43407440891791       -2.79958461303053        0.90806924013752
C            4.66718818280966       -3.33697163663909        1.96302734132653
C            4.11380681131622       -2.52452831851059        2.91204074396949
C            4.31803270859172       -1.13774085418237        2.86073593571503
C            5.05401419500542       -0.58252029973425        1.85166038185642
C            5.61340403854724       -1.39259167357463        0.84212367324469
C           10.07541518375222        1.32288473501391       -0.90580651367139
C           11.36219459669040        0.84235894770082       -0.76275162138131
H           12.61502745290628       -0.63474121075270        0.15304626195314
H           10.75610628992387       -1.70763849532244        1.36817734255096
H            8.47266726119031       -0.85342293967660        1.14154573375883
H            3.68057873078246        3.16969999661734        0.18313708723464
H            1.23638127554344        2.81843773418242        0.24596480314815
H           -0.64783934453863        2.54204868131877       -1.21217792543273
H           -3.05047209544877        2.15113369520413       -1.12954949093365
H           -5.60268235903507       -3.83157647933547       -0.99648773345304
H           -7.29527099531654       -5.63068340498615       -1.32151233246563
H           -9.68840981821119       -5.09718506360821       -1.03472294513751
H          -10.40117228265936       -2.87014955345195       -0.42788264271636
H          -10.90940119911562       -1.09402507302128        0.20001306686027
H          -11.55276987312864        1.12308292614308        0.93056949681341
H           -9.83642363373820        2.86928497684954        1.28984470168390
H           -7.48483611279566        2.37019401570200        0.85813520796056
H           -6.16908068307690        2.71218740452376       -1.52857571449626
H           -5.81409330399793        5.11978602032461       -1.09839218571238
H           -4.57290811862389        5.84365719066567        0.90681004382180
H           -3.68854520031085        4.16441680354560        2.48221751340444
H           -4.04402938139124        1.75705228031999        2.05023015020848
H           -2.36473907556723       -1.81230159882816        0.30566564496132
H            0.07031325806276       -1.41828940034892        0.21736666690788
H            1.77716630144891       -1.08480888693817       -1.40320606173878
H            4.18934466470423       -0.73369077878264       -1.47476183551288
H            7.49350528643528       -1.26988866602924       -1.99922320054342
H            7.21957605811205       -3.71563632434632       -1.83491173385758
H            5.88321000762194       -4.69101036834635       -0.00638673214448
H            4.52691717153752       -4.40749315236927        2.00440138313861
H            3.52367737965468       -2.94426946357673        3.71312188239132
H            3.89087560885220       -0.50825167571461        3.62679335222045
H            5.21437408358368        0.48521048417754        1.82862630161936
H            9.86447253773608        2.17993866789603       -1.52601091864196
H           12.17659799230530        1.32456199328772       -1.28278922518009

          :  Hamiltonian                  GFN2-xTB          :
         :: gradient norm              0.000057314399 Eh/a0 ::
         :: HOMO-LUMO gap              2.242235166355 eV    ::
         :: SCC energy              -143.325825060179 Eh    ::
         :: -> dispersion             -0.130824957025 Eh    ::
         :: repulsion energy           2.611726737207 Eh    ::

    * Orbital Energies and Occupations

         #    Occupation            Energy/Eh            Energy/eV
      -------------------------------------------------------------
         1        2.0000           -0.7000573             -19.0495
       ...           ...                  ...                  ...
       119        2.0000           -0.4116452             -11.2014
       120        2.0000           -0.4111644             -11.1884
       121        2.0000           -0.4103415             -11.1660
       122        2.0000           -0.4056014             -11.0370
       123        2.0000           -0.4008472             -10.9076
       124        2.0000           -0.4005417             -10.8993
       125        2.0000           -0.3951560             -10.7527
       126        2.0000           -0.3926792             -10.6853
       127        2.0000           -0.3809067             -10.3650
       128        2.0000           -0.3792523             -10.3200
       129        2.0000           -0.3750336             -10.2052
       130        2.0000           -0.3623428              -9.8599
       131        2.0000           -0.3611961              -9.8286 (HOMO)
       132                         -0.2787955              -7.5864 (LUMO)
       133                         -0.2696321              -7.3371
       134                         -0.2551937              -6.9442
       135                         -0.2489422              -6.7741
       136                         -0.2463297              -6.7030
       137                         -0.2455193              -6.6809
       138                         -0.2430807              -6.6146
       139                         -0.2404512              -6.5430
       140                         -0.2324872              -6.3263
       141                         -0.2288211              -6.2265
       142                         -0.2284985              -6.2178
       ...                                ...                  ...
       257                          0.7299723              19.8636
      -------------------------------------------------------------
                  HL-Gap            0.0824006 Eh            2.2422 eV

     #   Z          covCN         q      C6AA      α(0)
     1   6 C        2.920    -0.028    28.693     8.784
     2   6 C        2.919    -0.029    28.713     8.787
     3   6 C        2.922    -0.032    28.804     8.801
     4   6 C        2.975     0.001    27.998     8.679
     5   6 C        3.128     0.124    25.102     8.203
     6   7 N        2.067    -0.200    26.036     7.569
     7   7 N        2.068    -0.201    26.057     7.572
     8   6 C        3.126     0.125    25.088     8.202
     9   6 C        2.974    -0.000    28.033     8.685
    10   6 C        2.926    -0.029    28.724     8.789
    11   6 C        2.923    -0.032    28.795     8.800
    12   6 C        2.977     0.012    27.741     8.640
    13   6 C        2.977     0.011    27.775     8.645
    14   6 C        2.924    -0.034    28.841     8.807
    15   6 C        2.920    -0.035    28.877     8.812
    16   6 C        2.974     0.001    27.995     8.679
    17   6 C        3.190     0.127    24.781     8.120
    18   7 N        1.896    -0.291    28.405     7.901
    19   6 C        3.206     0.057    26.139     8.327
    20   6 C        2.986     0.003    27.959     8.674
    21   6 C        2.922    -0.031    28.778     8.797
    22   6 C        2.917    -0.030    28.757     8.794
    23   6 C        2.918    -0.033    28.820     8.803
    24   6 C        2.922    -0.035    28.867     8.811
    25   6 C        2.979    -0.001    28.057     8.689
    26   6 C        2.980     0.002    27.976     8.676
    27   6 C        2.922    -0.034    28.840     8.807
    28   6 C        2.916    -0.033    28.829     8.805
    29   6 C        2.917    -0.032    28.793     8.799
    30   6 C        2.919    -0.040    29.000     8.831
    31   6 C        2.978    -0.002    28.068     8.690
    32   6 C        3.073     0.020    27.486     8.596
    33   7 N        2.841    -0.046    22.120     6.985
    34   6 C        2.913     0.069    26.450     8.433
    35   6 C        2.921    -0.036    28.908     8.817
    36   6 C        2.920    -0.027    28.672     8.781
    37   6 C        2.920    -0.030    28.741     8.791
    38   6 C        2.920    -0.026    28.642     8.776
    39   6 C        2.921    -0.037    28.931     8.821
    40   6 C        2.928    -0.028    28.711     8.787
    41   6 C        2.923    -0.032    28.808     8.802
    42   6 C        2.925    -0.034    28.843     8.807
    43   6 C        2.920    -0.033    28.826     8.804
    44   7 N        2.832    -0.051    22.232     7.003
    45   6 C        2.908     0.058    26.699     8.473
    46   6 C        2.920    -0.041    29.013     8.833
    47   6 C        2.915    -0.029    28.732     8.790
    48   6 C        2.918    -0.037    28.918     8.818
    49   6 C        2.987     0.015    27.680     8.630
    50   6 C        2.919    -0.033    28.826     8.804
    51   6 C        2.915    -0.027    28.665     8.780
    52   6 C        2.917    -0.027    28.677     8.782
    53   6 C        2.916    -0.031    28.763     8.795
    54   6 C        2.987     0.004    27.926     8.668
    55   6 C        2.928    -0.028    28.691     8.784
    56   6 C        2.919    -0.026    28.656     8.778
    57   1 H        0.926     0.035     2.519     2.482
    58   1 H        0.926     0.032     2.552     2.498
    59   1 H        0.926     0.026     2.637     2.539
    60   1 H        0.926     0.055     2.259     2.351
    61   1 H        0.926     0.038     2.474     2.460
    62   1 H        0.926     0.035     2.513     2.479
    63   1 H        0.926     0.028     2.610     2.526
    64   1 H        0.926     0.050     2.322     2.383
    65   1 H        0.926     0.030     2.592     2.518
    66   1 H        0.926     0.028     2.620     2.531
    67   1 H        0.926     0.030     2.581     2.512
    68   1 H        0.926     0.034     2.527     2.486
    69   1 H        0.926     0.028     2.608     2.525
    70   1 H        0.926     0.027     2.633     2.538
    71   1 H        0.926     0.025     2.655     2.548
    72   1 H        0.926     0.043     2.411     2.428
    73   1 H        0.926     0.041     2.438     2.442
    74   1 H        0.926     0.040     2.448     2.447
    75   1 H        0.926     0.041     2.441     2.443
    76   1 H        0.926     0.040     2.452     2.449
    77   1 H        0.926     0.054     2.268     2.355
    78   1 H        0.926     0.036     2.502     2.474
    79   1 H        0.926     0.035     2.510     2.478
    80   1 H        0.926     0.028     2.617     2.530
    81   1 H        0.926     0.038     2.477     2.461
    82   1 H        0.926     0.040     2.455     2.450
    83   1 H        0.926     0.040     2.453     2.449
    84   1 H        0.926     0.038     2.481     2.463
    85   1 H        0.926     0.037     2.492     2.468
    86   1 H        0.926     0.036     2.499     2.472
    87   1 H        0.926     0.034     2.535     2.490
    88   1 H        0.926     0.054     2.266     2.354
    89   1 H        0.926     0.038     2.477     2.461

molecular dipole:
                 x           y           z       tot (Debye)
 q only:       -0.016      -0.549       0.537
   full:       -0.286      -0.829       0.702       2.855

 projected vibrational frequencies (cm⁻¹)
eigval :       -0.00    -0.00    -0.00     0.00     0.00     0.00
eigval :        6.68     7.56    10.15    19.83    25.11    26.75
eigval :       29.68    32.38    39.48    46.84    53.73    61.32
eigval :       65.30    75.21    80.26    87.34    90.11    93.18
eigval :      105.35   111.54   124.81   137.67   155.75   164.38
eigval :      172.34   184.24   202.20   214.66   228.30   234.58
eigval :      239.30   247.34   262.07   265.33   271.23   296.09
eigval :      323.85   335.78   351.71   355.00   371.30   372.58
eigval :      375.86   380.57   383.04   396.22   397.88   403.02
eigval :      420.18   433.25   436.24   437.34   439.89   446.80
eigval :      459.30   475.10   482.94   493.67   498.78   509.13
eigval :      515.23   522.54   535.10   539.20   541.18   546.56
eigval :      569.62   585.05   588.23   588.60   600.12   605.51
eigval :      624.86   633.36   638.95   645.06   651.68   659.96
eigval :      667.75   668.65   676.98   677.70   682.41   690.10
eigval :      696.32   698.29   706.58   714.70   720.47   728.50
eigval :      735.60   760.51   762.75   764.14   766.60   772.79
eigval :      776.83   782.56   804.92   809.41   814.58   833.73
eigval :      841.24   862.41   869.59   874.75   875.16   875.72
eigval :      875.99   876.76   891.66   900.94   903.73   907.50
eigval :      914.26   916.11   916.86   922.25   922.72   923.16
eigval :      923.95   926.26   927.27   928.48   929.18   930.27
eigval :      932.06   932.55   932.64   939.38   947.27   958.88
eigval :      972.49   989.09  1007.12  1016.27  1028.72  1064.68
eigval :     1069.28  1079.04  1081.59  1082.80  1084.90  1085.97
eigval :     1108.60  1113.74  1115.09  1120.70  1133.97  1137.27
eigval :     1141.29  1145.21  1152.76  1163.29  1172.45  1174.10
eigval :     1180.36  1181.28  1181.74  1183.06  1186.26  1189.01
eigval :     1194.22  1197.55  1198.75  1204.79  1205.54  1211.20
eigval :     1224.11  1253.70  1253.75  1258.02  1267.98  1273.24
eigval :     1274.81  1279.17  1284.11  1285.31  1299.15  1307.21
eigval :     1312.55  1314.79  1319.58  1321.65  1324.44  1333.54
eigval :     1338.60  1338.82  1349.07  1354.01  1374.35  1391.05
eigval :     1394.34  1402.92  1407.48  1413.36  1419.86  1420.08
eigval :     1431.19  1431.61  1433.65  1437.46  1449.87  1455.12
eigval :     1459.11  1475.39  1485.40  1508.18  1513.76  1514.58
eigval :     1530.06  1531.58  1541.21  1556.56  1562.40  1563.35
eigval :     1566.52  1571.19  1582.20  1582.47  1589.86  1593.94
eigval :     1594.96  1596.94  1597.84  1602.69  1604.91  1610.10
eigval :     3071.85  3075.14  3075.63  3075.85  3078.39  3080.43
eigval :     3080.65  3081.48  3082.61  3082.79  3083.12  3083.27
eigval :     3084.08  3084.75  3086.17  3086.38  3087.68  3089.62
eigval :     3090.83  3094.04  3094.59  3095.78  3097.03  3098.17
eigval :     3099.48  3100.09  3102.46  3104.86  3105.75  3107.02
eigval :     3108.01  3110.73  3114.55

   temp. (K)  partition function   enthalpy   heat capacity  entropy
                                   cal/mol     cal/K/mol   cal/K/mol   J/K/mol
 298.15  VIB  0.153E+22            25565.368    160.072    161.230
         ROT  0.163E+09              888.752      2.981     40.556
         INT  0.249E+30            26454.121    163.053    201.785
         TR   0.185E+29             1481.254      4.968     45.564
         TOT                       27935.3745   168.0213   247.3497  1034.9111

       T/K    H(0)-H(T)+PV         H(T)/Eh          T*S/Eh         G(T)/Eh
   ------------------------------------------------------------------------
    298.15    0.445179E-01    0.724193E+00    0.117524E+00    0.606669E+00
   ------------------------------------------------------------------------

         :::::::::::::::::::::::::::::::::::::::::::::::::::::
         ::                  THERMODYNAMIC                  ::
         :::::::::::::::::::::::::::::::::::::::::::::::::::::
         :: total free energy        -140.107429443165 Eh   ::
         ::.................................................::
         :: total energy             -140.714098322971 Eh   ::
         :: zero point energy           0.679674845968 Eh   ::
         :: G(RRHO) w/o ZPVE           -0.073005966163 Eh   ::
         :: G(RRHO) contrib.            0.606668879806 Eh   ::
         :::::::::::::::::::::::::::::::::::::::::::::::::::::

           -------------------------------------------------
          | TOTAL ENERGY             -140.714098322971 Eh   |
          | TOTAL ENTHALPY           -139.989905624055 Eh   |
          | TOTAL FREE ENERGY        -140.107429443165 Eh   |
          | GRADIENT NORM               0.000057314143 Eh/α |
          | HOMO-LUMO GAP               2.242235485914 eV   |
           -------------------------------------------------

 * finished run on 2025/07/16 at 14:15:09.225
