   * xtb version 6.7.1 (edcfbbe) compiled by 'albert@albert-system' on 2024-07-22

   ID    Z sym.   atoms
    1    6 C      1-5, 8-17, 19-32, 34-43, 45-56
    2    7 N      6, 7, 18, 33, 44
    3    1 H      57-89

          program call               : xtb data2507/gas/4NTAZ-PPI/4NTAZ-PPI.xyz --gfn 2 --ohess vtight --parallel 40 --molden --ceasefiles --namespace data2507/gas/4NTAZ-PPI/4NTAZ-PPI_gas_S0_preOpt
          :  Hamiltonian                  GFN2-xTB          :
 * total energy  :  -140.6863377 Eh     change       -0.1973490E-08 Eh
 * total energy  :  -140.7012386 Eh     change       -0.1490090E-01 Eh
 * total energy  :  -140.7055069 Eh     change       -0.4268367E-02 Eh
 * total energy  :  -140.7070400 Eh     change       -0.1533090E-02 Eh
 * total energy  :  -140.7081746 Eh     change       -0.1134582E-02 Eh
 * total energy  :  -140.7087482 Eh     change       -0.5736238E-03 Eh
 * total energy  :  -140.7091575 Eh     change       -0.4092630E-03 Eh
 * total energy  :  -140.7094701 Eh     change       -0.3126440E-03 Eh
 * total energy  :  -140.7096910 Eh     change       -0.2208976E-03 Eh
 * total energy  :  -140.7098589 Eh     change       -0.1678365E-03 Eh
 * total energy  :  -140.7135067 Eh     change       -0.7490872E-06 Eh
 * total energy  :  -140.7135076 Eh     change       -0.9105098E-06 Eh
 * total energy  :  -140.7135083 Eh     change       -0.7332778E-06 Eh
 * total energy  :  -140.7135089 Eh     change       -0.5673572E-06 Eh
 * total energy  :  -140.7135094 Eh     change       -0.5165278E-06 Eh
 * total energy  :  -140.7135100 Eh     change       -0.5479401E-06 Eh
 * total energy  :  -140.7135104 Eh     change       -0.4479153E-06 Eh
 * total energy  :  -140.7135107 Eh     change       -0.2479671E-06 Eh
 * total energy  :  -140.7135107 Eh     change       -0.7587511E-07 Eh
   *** GEOMETRY OPTIMIZATION CONVERGED AFTER 206 ITERATIONS ***

 final structure:
================
89
 xtb: 6.7.1 (edcfbbe)
C           11.59211337753045        0.44342588011778        0.18221878972213
C           11.28915835087570        1.66675289160201        0.75902496458298
C            9.98232308523944        1.97833509291252        1.07823608031868
C            8.95970492283133        1.06647167012580        0.81788680017216
C            7.60353134201392        1.43539360581388        1.18075417692866
N            7.29058265283586        2.20208512099443        2.19476960921611
N            5.96562381306223        2.30802176132267        2.25357973657714
C            5.44452618087054        1.61269544888873        1.27342662571808
C            4.02057756864479        1.49683688137659        1.02438573900371
C            3.15462407790160        1.62371124579698        2.11169842258858
C            1.79304961562481        1.50641818719105        1.93849095484708
C            1.25172283112265        1.26955937652496        0.67465466960988
C           -0.19854546917265        1.13701358282958        0.49113095966202
C           -0.97330503467789        0.44116079356751        1.41707049377763
C           -2.33607137346880        0.30429471601115        1.24757358495424
C           -2.96690186518497        0.86303571639786        0.13713204970291
C           -4.39638209915816        0.77061126297730       -0.10369445230983
N           -5.08003993897258        1.72673604450641       -0.68262426464725
C           -6.36697316232906        1.29748230469703       -0.72525190717962
C           -7.50292822385810        1.99456714212012       -1.22319889576884
C           -7.38776164028445        3.28704459091920       -1.74533914449928
C           -8.50006461407508        3.95539235021939       -2.19192038228982
C           -9.74619211480458        3.33625592273745       -2.11670760745968
C           -9.86987944348918        2.06379100463838       -1.60980632392651
C           -8.75565055247510        1.34403425694868       -1.15156442953369
C           -8.84753818636063       -0.01367218343979       -0.64264037810994
C          -10.06338070522980       -0.71176576529026       -0.62971265962100
C          -10.15455001449774       -2.01188086754650       -0.19254648977294
C           -9.01580559227441       -2.68400403665248        0.23932778135973
C           -7.80648628227002       -2.03404585020629        0.25100935082885
C           -7.69688422940992       -0.69849154949154       -0.16238433188992
C           -6.47026777242365        0.02387600003912       -0.16754559030706
N           -5.19519057708123       -0.29968915377278        0.23948482425442
C           -4.75087985398606       -1.47440015444409        0.87734589037756
C           -5.19160753936892       -1.77881664083716        2.16220997831272
C           -4.72783287694316       -2.91858255649165        2.79226309710497
C           -3.82337944420887       -3.75023397807638        2.15122953410597
C           -3.38298382305467       -3.44293763273297        0.87473155759559
C           -3.84380624590162       -2.30736241223420        0.23326822677389
C           -2.19827926027518        1.58688580724421       -0.77675719561853
C           -0.83736510906555        1.71539083420002       -0.60582170186712
C            2.11958248562853        1.17258477405036       -0.41128166532755
C            3.48476192743506        1.28440538147393       -0.24402617557633
N            6.45457027164637        1.02272757906021        0.54697866779158
C            6.35312122010227        0.22449106005690       -0.60643373365256
C            6.91376061617298        0.66845074464192       -1.77919502945414
C            6.81381977635420       -0.10147677746414       -2.94445310468948
C            6.14691418816478       -1.29440324730459       -2.92791879774407
C            5.56554770861331       -1.78218314536777       -1.73848277728768
C            4.87617542417028       -3.01217269859222       -1.69917700901005
C            4.33232944472629       -3.47398754748652       -0.53387953118803
C            4.46566982159422       -2.73389491798496        0.65015661921135
C            5.12522408840388       -1.53671536844960        0.64849462924169
C            5.67728666344561       -1.02388556015666       -0.54324560030970
C            9.27206518715223       -0.17096571302160        0.25935043731912
C           10.58319178381743       -0.47411035523762       -0.05806935042758
H           12.61364233064013        0.20168854155323       -0.07144248615624
H           12.07560044692331        2.37913974329925        0.95949294232653
H            9.72782016945291        2.92289193613849        1.53284523561533
H            3.57708148232801        1.81709393776498        3.08536650988465
H            1.13432315433914        1.61996933217945        2.78666665710843
H           -0.49859218063567       -0.01254075705690        2.27479878829319
H           -2.90850674572336       -0.22145230859503        1.99641745366717
H           -6.40567786109775        3.73272825787747       -1.77567298878141
H           -8.41667155797226        4.95418711842546       -2.59430987241910
H          -10.62606907423510        3.86110660613190       -2.46017492495684
H          -10.85528586009818        1.62739648668774       -1.56886293395264
H          -10.96188538407911       -0.22952950546396       -0.97925958400215
H          -11.10949101586624       -2.51650572106213       -0.19752806138030
H           -9.08019086614333       -3.71336747595444        0.55985084724093
H           -6.92399588347211       -2.56629718426290        0.56861020469629
H           -5.89545939569471       -1.12168576482559        2.65197887674665
H           -5.07097836989086       -3.15547214963962        3.78812058386660
H           -3.46202393823604       -4.63775275713348        2.64816523343982
H           -2.67877157526905       -4.09006634110595        0.37405251756980
H           -3.50513612777444       -2.05656852573946       -0.76095699585945
H           -2.69658883100327        2.04388516515345       -1.61735765296031
H           -0.26040753331099        2.28944387319640       -1.31581253500153
H            1.72033321389049        0.98921248893390       -1.39807799710950
H            4.12910469906859        1.22235400680006       -1.10827447376926
H            7.42988525058660        1.61724254599571       -1.79848751545213
H            7.26211103937838        0.26546070435398       -3.85512481963450
H            6.05662217099165       -1.88539977895270       -3.82743502357353
H            4.78846311533245       -3.58289877201080       -2.61242581501109
H            3.80359016369442       -4.41541460432350       -0.51401105687810
H            4.04499255780246       -3.11729755027236        1.56756904369837
H            5.23069008581794       -0.97960453431674        1.56767931355497
H            8.49935770368277       -0.90664816891924        0.09056045852523
H           10.81748723483462       -1.43556276457217       -0.49116465166068

          :  Hamiltonian                  GFN2-xTB          :
         :: gradient norm              0.000091944998 Eh/a0 ::
         :: HOMO-LUMO gap              2.215409691945 eV    ::
         :: SCC energy              -143.325000215735 Eh    ::
         :: -> dispersion             -0.130261103926 Eh    ::
         :: repulsion energy           2.611489474825 Eh    ::

    * Orbital Energies and Occupations

         #    Occupation            Energy/Eh            Energy/eV
      -------------------------------------------------------------
         1        2.0000           -0.7003328             -19.0570
       ...           ...                  ...                  ...
       119        2.0000           -0.4116531             -11.2017
       120        2.0000           -0.4112882             -11.1917
       121        2.0000           -0.4102791             -11.1643
       122        2.0000           -0.4054593             -11.0331
       123        2.0000           -0.4013905             -10.9224
       124        2.0000           -0.4004551             -10.8969
       125        2.0000           -0.3950738             -10.7505
       126        2.0000           -0.3938781             -10.7180
       127        2.0000           -0.3807619             -10.3611
       128        2.0000           -0.3790076             -10.3133
       129        2.0000           -0.3749090             -10.2018
       130        2.0000           -0.3625023              -9.8642
       131        2.0000           -0.3611023              -9.8261 (HOMO)
       132                         -0.2796875              -7.6107 (LUMO)
       133                         -0.2699090              -7.3446
       134                         -0.2555583              -6.9541
       135                         -0.2492024              -6.7811
       136                         -0.2473172              -6.7298
       137                         -0.2456495              -6.6845
       138                         -0.2436725              -6.6307
       139                         -0.2406105              -6.5473
       140                         -0.2323844              -6.3235
       141                         -0.2289747              -6.2307
       142                         -0.2285516              -6.2192
       ...                                ...                  ...
       257                          0.7299963              19.8642
      -------------------------------------------------------------
                  HL-Gap            0.0814147 Eh            2.2154 eV

     #   Z          covCN         q      C6AA      α(0)
     1   6 C        2.920    -0.028    28.693     8.784
     2   6 C        2.919    -0.026    28.654     8.778
     3   6 C        2.928    -0.028    28.691     8.784
     4   6 C        2.975     0.001    28.000     8.680
     5   6 C        3.128     0.124    25.104     8.203
     6   7 N        2.066    -0.199    26.023     7.567
     7   7 N        2.069    -0.200    26.045     7.571
     8   6 C        3.125     0.124    25.097     8.203
     9   6 C        2.974    -0.001    28.038     8.686
    10   6 C        2.927    -0.029    28.724     8.789
    11   6 C        2.923    -0.032    28.787     8.799
    12   6 C        2.976     0.012    27.738     8.639
    13   6 C        2.976     0.011    27.771     8.644
    14   6 C        2.924    -0.034    28.849     8.808
    15   6 C        2.920    -0.035    28.875     8.812
    16   6 C        2.974     0.001    27.992     8.679
    17   6 C        3.190     0.127    24.778     8.119
    18   7 N        1.896    -0.291    28.381     7.898
    19   6 C        3.206     0.057    26.137     8.326
    20   6 C        2.986     0.003    27.956     8.673
    21   6 C        2.922    -0.031    28.775     8.797
    22   6 C        2.917    -0.030    28.753     8.793
    23   6 C        2.917    -0.033    28.818     8.803
    24   6 C        2.922    -0.035    28.867     8.811
    25   6 C        2.979    -0.001    28.058     8.689
    26   6 C        2.980     0.002    27.975     8.676
    27   6 C        2.922    -0.034    28.840     8.807
    28   6 C        2.916    -0.033    28.831     8.805
    29   6 C        2.917    -0.032    28.796     8.800
    30   6 C        2.919    -0.040    29.003     8.831
    31   6 C        2.978    -0.002    28.069     8.690
    32   6 C        3.073     0.020    27.489     8.596
    33   7 N        2.841    -0.046    22.125     6.986
    34   6 C        2.913     0.070    26.444     8.432
    35   6 C        2.921    -0.036    28.907     8.817
    36   6 C        2.920    -0.027    28.674     8.781
    37   6 C        2.920    -0.030    28.748     8.793
    38   6 C        2.920    -0.026    28.646     8.777
    39   6 C        2.922    -0.038    28.934     8.821
    40   6 C        2.927    -0.028    28.707     8.787
    41   6 C        2.923    -0.032    28.802     8.801
    42   6 C        2.924    -0.034    28.847     8.808
    43   6 C        2.920    -0.034    28.835     8.806
    44   7 N        2.832    -0.052    22.237     7.004
    45   6 C        2.908     0.058    26.693     8.472
    46   6 C        2.920    -0.041    29.011     8.833
    47   6 C        2.915    -0.029    28.730     8.789
    48   6 C        2.918    -0.037    28.920     8.819
    49   6 C        2.987     0.014    27.681     8.630
    50   6 C        2.919    -0.033    28.827     8.805
    51   6 C        2.916    -0.027    28.669     8.780
    52   6 C        2.917    -0.027    28.679     8.782
    53   6 C        2.916    -0.030    28.760     8.794
    54   6 C        2.987     0.004    27.923     8.668
    55   6 C        2.922    -0.032    28.810     8.802
    56   6 C        2.919    -0.029    28.715     8.787
    57   1 H        0.926     0.035     2.519     2.482
    58   1 H        0.926     0.038     2.475     2.460
    59   1 H        0.926     0.055     2.260     2.351
    60   1 H        0.926     0.057     2.240     2.340
    61   1 H        0.926     0.040     2.453     2.449
    62   1 H        0.926     0.034     2.533     2.489
    63   1 H        0.926     0.028     2.616     2.529
    64   1 H        0.926     0.050     2.315     2.379
    65   1 H        0.926     0.030     2.586     2.515
    66   1 H        0.926     0.028     2.617     2.530
    67   1 H        0.926     0.030     2.582     2.513
    68   1 H        0.926     0.034     2.526     2.486
    69   1 H        0.926     0.028     2.609     2.526
    70   1 H        0.926     0.026     2.638     2.540
    71   1 H        0.926     0.025     2.660     2.550
    72   1 H        0.926     0.043     2.405     2.425
    73   1 H        0.926     0.041     2.439     2.442
    74   1 H        0.926     0.039     2.459     2.452
    75   1 H        0.926     0.039     2.455     2.450
    76   1 H        0.926     0.039     2.456     2.451
    77   1 H        0.926     0.054     2.268     2.355
    78   1 H        0.926     0.038     2.475     2.460
    79   1 H        0.926     0.034     2.531     2.488
    80   1 H        0.926     0.027     2.624     2.533
    81   1 H        0.926     0.038     2.471     2.458
    82   1 H        0.926     0.040     2.453     2.449
    83   1 H        0.926     0.039     2.457     2.451
    84   1 H        0.926     0.037     2.488     2.467
    85   1 H        0.926     0.036     2.505     2.475
    86   1 H        0.926     0.036     2.503     2.474
    87   1 H        0.926     0.034     2.529     2.487
    88   1 H        0.926     0.026     2.642     2.542
    89   1 H        0.926     0.032     2.555     2.500

molecular dipole:
                 x           y           z       tot (Debye)
 q only:        0.238      -1.741      -0.729
   full:        0.077      -2.549      -1.113       7.072

 projected vibrational frequencies (cm⁻¹)
eigval :       -0.00    -0.00     0.00     0.00     0.00     0.00
eigval :        5.52     7.92    12.74    15.72    23.18    28.73
eigval :       30.87    34.00    40.75    50.35    55.14    60.08
eigval :       65.03    68.74    80.26    87.38    89.88    94.99
eigval :      103.39   114.81   126.33   141.96   147.17   166.51
eigval :      168.66   183.28   208.32   217.36   219.46   234.58
eigval :      240.61   253.45   254.44   268.33   272.75   294.75
eigval :      324.70   327.23   351.74   358.80   371.39   372.51
eigval :      375.96   378.83   387.34   395.30   398.01   402.54
eigval :      419.19   433.42   434.24   437.12   440.61   446.13
eigval :      462.37   474.61   479.12   495.28   495.77   513.96
eigval :      516.08   521.70   535.12   538.79   541.83   545.88
eigval :      569.12   585.00   588.20   588.70   599.83   606.11
eigval :      626.01   633.44   639.56   644.98   650.82   659.69
eigval :      667.74   667.92   673.79   678.41   682.70   690.78
eigval :      696.68   699.09   706.17   713.23   720.40   728.65
eigval :      735.57   760.37   762.65   763.93   766.62   772.84
eigval :      776.89   782.59   804.93   808.33   814.45   834.25
eigval :      841.03   862.47   868.75   874.79   875.23   875.48
eigval :      876.14   876.63   891.52   900.72   903.65   907.51
eigval :      914.36   915.63   916.45   921.74   922.17   922.71
eigval :      923.87   926.77   927.42   928.25   929.14   929.95
eigval :      931.53   932.39   932.55   939.27   947.28   958.89
eigval :      972.48   988.97  1006.84  1016.12  1028.68  1064.55
eigval :     1069.11  1079.11  1081.12  1082.92  1084.86  1086.00
eigval :     1108.60  1113.51  1115.24  1120.87  1133.83  1137.10
eigval :     1141.41  1145.66  1152.74  1162.17  1172.62  1174.11
eigval :     1180.43  1181.19  1181.71  1183.04  1186.27  1189.11
eigval :     1195.35  1197.68  1198.92  1206.25  1206.39  1211.14
eigval :     1224.23  1253.70  1253.89  1258.10  1267.59  1273.63
eigval :     1274.94  1279.23  1284.11  1285.43  1299.24  1307.22
eigval :     1312.85  1315.29  1319.05  1321.80  1323.82  1332.77
eigval :     1338.69  1338.94  1348.61  1354.06  1374.16  1390.85
eigval :     1394.28  1402.71  1407.63  1413.56  1419.73  1419.98
eigval :     1431.10  1431.59  1433.79  1437.49  1449.24  1454.81
eigval :     1459.17  1475.29  1485.23  1508.11  1514.03  1514.70
eigval :     1528.01  1530.03  1542.12  1556.45  1562.44  1563.39
eigval :     1566.41  1570.93  1582.21  1582.56  1589.61  1594.15
eigval :     1594.92  1596.88  1597.76  1602.52  1604.89  1610.17
eigval :     3072.15  3075.27  3075.31  3075.47  3078.55  3080.11
eigval :     3080.77  3081.22  3082.62  3082.75  3083.65  3084.02
eigval :     3084.42  3086.01  3086.05  3086.64  3088.17  3089.13
eigval :     3090.62  3093.85  3094.23  3095.60  3096.83  3097.88
eigval :     3098.91  3099.45  3101.99  3105.12  3106.32  3107.12
eigval :     3108.53  3110.84  3114.20

   temp. (K)  partition function   enthalpy   heat capacity  entropy
                                   cal/mol     cal/K/mol   cal/K/mol   J/K/mol
 298.15  VIB  0.160E+22            25569.984    160.185    161.452
         ROT  0.159E+09              888.752      2.981     40.507
         INT  0.254E+30            26458.736    163.166    201.959
         TR   0.185E+29             1481.254      4.968     45.564
         TOT                       27939.9904   168.1343   247.5230  1035.6360

       T/K    H(0)-H(T)+PV         H(T)/Eh          T*S/Eh         G(T)/Eh
   ------------------------------------------------------------------------
    298.15    0.445252E-01    0.724166E+00    0.117606E+00    0.606560E+00
   ------------------------------------------------------------------------

         :::::::::::::::::::::::::::::::::::::::::::::::::::::
         ::                  THERMODYNAMIC                  ::
         :::::::::::::::::::::::::::::::::::::::::::::::::::::
         :: total free energy        -140.106951141999 Eh   ::
         ::.................................................::
         :: total energy             -140.713510740902 Eh   ::
         :: zero point energy           0.679640533664 Eh   ::
         :: G(RRHO) w/o ZPVE           -0.073080934762 Eh   ::
         :: G(RRHO) contrib.            0.606559598902 Eh   ::
         :::::::::::::::::::::::::::::::::::::::::::::::::::::

           -------------------------------------------------
          | TOTAL ENERGY             -140.713510740902 Eh   |
          | TOTAL ENTHALPY           -139.989344998387 Eh   |
          | TOTAL FREE ENERGY        -140.106951141999 Eh   |
          | GRADIENT NORM               0.000091969551 Eh/α |
          | HOMO-LUMO GAP               2.215407271686 eV   |
           -------------------------------------------------

 * finished run on 2025/07/16 at 14:09:45.331
