   * xtb version 6.7.1 (edcfbbe) compiled by 'albert@albert-system' on 2024-07-22

   ID    Z sym.   atoms
    1    6 C      1-20, 22-25, 27-30, 32-34, 36-56
    2    7 N      21, 31, 35
    3    8 O      26
    4    1 H      57-111

          program call               : xtb data2507/gas/3BPy-mDTC/3BPy-mDTC_gas_T1_crest.xyz --gfn 2 --spinpol --tblite --uhf 2 --ohess vtight --parallel 40 --molden --ceasefiles --namespace data2507/gas/3BPy-mDTC/3BPy-mDTC_gas_T1_finalOpt
 * total energy  :  -152.2918134 Eh     change       -0.2727413E-07 Eh
 * total energy  :  -152.2918407 Eh     change       -0.2727493E-04 Eh
 * total energy  :  -152.2918510 Eh     change       -0.1028293E-04 Eh
 * total energy  :  -152.2918528 Eh     change       -0.1812993E-05 Eh
 * total energy  :  -152.2918563 Eh     change       -0.3459540E-05 Eh
 * total energy  :  -152.2918601 Eh     change       -0.3822117E-05 Eh
 * total energy  :  -152.2918637 Eh     change       -0.3550655E-05 Eh
 * total energy  :  -152.2918675 Eh     change       -0.3827679E-05 Eh
 * total energy  :  -152.2918713 Eh     change       -0.3841983E-05 Eh
 * total energy  :  -152.2918750 Eh     change       -0.3711922E-05 Eh
 * total energy  :  -152.2919368 Eh     change       -0.2882318E-06 Eh
 * total energy  :  -152.2919372 Eh     change       -0.4188496E-06 Eh
 * total energy  :  -152.2919375 Eh     change       -0.3027497E-06 Eh
 * total energy  :  -152.2919377 Eh     change       -0.2094493E-06 Eh
 * total energy  :  -152.2919377 Eh     change        0.2468008E-07 Eh
 * total energy  :  -152.2919379 Eh     change       -0.1812707E-06 Eh
 * total energy  :  -152.2919381 Eh     change       -0.2426863E-06 Eh
 * total energy  :  -152.2919383 Eh     change       -0.1802558E-06 Eh
 * total energy  :  -152.2919384 Eh     change       -0.7546791E-07 Eh
   *** GEOMETRY OPTIMIZATION CONVERGED AFTER 63 ITERATIONS ***

 final structure:
================
111
 xtb: 6.7.1 (edcfbbe)
C            6.68594434003143        1.41761824659248        4.16875509733328
C            7.01616274429989        0.95022773812090        2.74395488173948
C            7.95634534229426       -0.25401734998845        2.84489530026226
C            7.75171074989720        2.06573579364142        1.98745530725371
C            5.72293732770555        0.62303001597156        2.01309379030036
C            4.76982398539008        1.63582161733358        1.83958215684470
C            3.57451668091491        1.43320608033640        1.18171306359361
C            3.31980250486272        0.17251568443648        0.66426594176799
C            4.24924616591783       -0.87318902088112        0.85157768845529
C            5.44311150034399       -0.64282540031841        1.51920656732735
C            3.66690581291138       -2.04419279814721        0.25213233587348
C            4.10091412746976       -3.35428010731926        0.11263028435674
C            3.30304522151269       -4.27744350704794       -0.54756393516696
C            3.71070713243629       -5.73165777666560       -0.72855819505515
C            3.80324330341841       -6.04631731657217       -2.22852474736561
C            2.65641372679737       -6.63396063499340       -0.07125983506309
C            5.06744600329893       -6.04650240940958       -0.09260739485967
C            2.07814149601347       -3.84810109607630       -1.07604471273255
C            1.62396025230224       -2.55139886338845       -0.95321125262537
C            2.41628450170760       -1.64496293418363       -0.26623493242981
N            2.21624616858623       -0.30520785832123       -0.00946952526073
C            1.09784092061653        0.44914563766775       -0.39581817744637
C            1.28109938646575        1.61568971359418       -1.12281104420514
C            0.17569574152809        2.37656416506086       -1.52421708628567
C            0.27698362551528        3.57185251712919       -2.36252741825770
O           -0.67650386406920        3.87195006261954       -3.12891340039544
C            1.46306033273280        4.39121809826346       -2.29497894504293
C            2.39102684454084        4.44030804454790       -1.23501343227419
C            3.46918565820555        5.29336846401763       -1.30168126981131
C            3.60857166575766        6.11401814600959       -2.41960762081609
N            2.70121498941307        6.10692969189054       -3.38538396441984
C            1.67397811285368        5.31576345792425       -3.34787244567841
C           -1.11036742746760        1.90931826376278       -1.21259710568279
C           -1.28330660935773        0.75205108880396       -0.47431524344707
N           -2.57756900592467        0.33289757051324       -0.13815696342892
C           -3.09949253845139       -0.92925363120691       -0.32428059046405
C           -2.53337617217659       -2.05803882161600       -0.89698358534877
C           -3.30120799891727       -3.20135996759583       -0.97717977406719
C           -4.62263730607074       -3.26334612601634       -0.51539498444448
C           -5.38577337393811       -4.57230307989282       -0.64696157567454
C           -4.64019036693910       -5.66948496925563        0.12639176802970
C           -6.80909081352209       -4.48292133102661       -0.08980396402751
C           -5.47818368499004       -4.95288202634162       -2.13167066733261
C           -5.18762782107070       -2.12037280941275        0.03317777635159
C           -4.43713813021340       -0.95830313929690        0.12652641001600
C           -4.73019201742388        0.36488703919645        0.61051651306949
C           -5.85850790131922        0.93640352656106        1.17883487085507
C           -5.83205754553169        2.26760458232128        1.57053803113259
C           -7.03383858811398        2.96232128631695        2.19172741355826
C           -7.43464480895112        4.15381712570238        1.31018449140777
C           -8.24735988779968        2.03749888006048        2.32097349913647
C           -6.65993616554495        3.45649634326713        3.59664507718758
C           -4.64772983945684        2.99535569019133        1.39140856343067
C           -3.51061105559345        2.45169077837168        0.83019366906926
C           -3.55738275637752        1.12702246715021        0.42078009659261
C           -0.17943921506148        0.01238215854337       -0.04925093717708
H            6.14389699721096        0.63998666474914        4.70298296158940
H            6.07380745968284        2.31506732226944        4.16155102792532
H            7.60252633283589        1.63578120882919        4.71273843925465
H            8.86513595518095        0.03909084608657        3.36666361833021
H            8.23767759082795       -0.61459000441130        1.85816291946013
H            7.49587839201353       -1.06475969538429        3.40476722727088
H            7.96746238586734        1.74970752119054        0.96888264634562
H            7.15851644374304        2.97475030230702        1.94326092655878
H            8.69177992666774        2.29754889287910        2.48360581146088
H            4.96530412571862        2.61984130715978        2.23726389501701
H            2.85405549323124        2.23118333011274        1.08863086642583
H            6.13174286884625       -1.46161192570576        1.64371160094345
H            5.05922670755591       -3.62734033205072        0.52152145869780
H            4.11629038820813       -7.07780165686523       -2.37584580972405
H            2.84651653076264       -5.90786516612998       -2.72411831233096
H            4.53115589496772       -5.39296202350701       -2.70506011946182
H            2.94188325026535       -7.67881243438166       -0.17335414039561
H            2.57077698496549       -6.40125221100717        0.98822441041669
H            1.67964495690060       -6.50282478295449       -0.52828099446496
H            5.30360403216783       -7.09765776403506       -0.24549272248966
H            5.05067406151099       -5.85904714163308        0.97859423471579
H            5.85956076754858       -5.45610680149038       -0.54726436292260
H            1.45617772766228       -4.55102101157726       -1.60862130808064
H            0.68629075826360       -2.25092116634603       -1.39418327002611
H            2.27920277758788        1.88629665732564       -1.43022915541995
H            2.23173072526898        3.84605728720231       -0.34871219802425
H            4.18913368122443        5.34409186365943       -0.49873913651007
H            4.43635884881065        6.79659934443444       -2.53526749069639
H            0.95314883349427        5.35912061046391       -4.15346667334047
H           -1.96335193918331        2.46223700676550       -1.57315590982606
H           -1.52722097700274       -2.04405078316948       -1.28511921592319
H           -2.85453267626800       -4.07707595984933       -1.42233103013544
H           -3.64033883060557       -5.82587287603127       -0.26850792926098
H           -5.18321065703859       -6.60977042644385        0.05842178119796
H           -4.55301576048742       -5.39613485105459        1.17598143081287
H           -6.80026700339492       -4.23162942107530        0.96834402601272
H           -7.39502677851352       -3.74231225048918       -0.62908608649056
H           -7.30265203478113       -5.44622680461991       -0.20169940916015
H           -5.98366512377094       -4.16754976622590       -2.68977646452020
H           -6.04188654274171       -5.87626178788459       -2.24687757769180
H           -4.49368481694295       -5.09935781550117       -2.56690325983441
H           -6.20478690317868       -2.10854342359362        0.38715637609273
H           -6.73778841440542        0.32773269868479        1.30743226180333
H           -6.63049415675717        4.87993982014173        1.23298797001375
H           -8.30530438246161        4.65347805554622        1.72968310714641
H           -7.68202349601216        3.81227288974113        0.30726241069896
H           -8.56914392695628        1.67569299517877        1.34718503205549
H           -8.02645901685872        1.18840900266054        2.96378628665112
H           -9.07521653674895        2.58693762697587        2.76461573707823
H           -7.51682287453262        3.93683320428342        4.06424003350986
H           -6.35056425563448        2.61958859894137        4.21949477916871
H           -5.84548184494850        4.17444612306604        3.56222013266473
H           -4.60936779260856        4.02752998753981        1.70344306238863
H           -2.61413041500946        3.04226274806069        0.71991078287862
H           -0.30838891409673       -0.86942091196737        0.55825143934537

 projected vibrational frequencies (cm⁻¹)
eigval :       -0.00    -0.00     0.00     0.00     0.00     0.00
eigval :        8.00    10.83    12.42    17.21    21.15    29.98
eigval :       30.37    32.49    33.19    34.27    41.49    45.45
eigval :       59.23    60.88    66.73    74.23    78.28    80.59
eigval :       89.60   106.77   112.41   132.32   144.83   153.33
eigval :      157.34   158.54   170.39   176.42   182.77   187.31
eigval :      197.33   200.41   202.17   205.75   216.73   218.71
eigval :      219.78   222.57   226.93   229.77   231.46   242.48
eigval :      251.77   257.56   257.92   271.87   282.54   287.90
eigval :      293.90   315.49   318.04   318.60   322.65   322.75
eigval :      332.78   337.00   339.28   344.19   349.41   357.74
eigval :      358.35   358.66   366.71   371.26   381.51   387.27
eigval :      393.48   397.26   405.90   407.07   408.31   427.61
eigval :      439.66   440.57   440.99   442.48   457.64   460.42
eigval :      462.84   465.51   466.00   470.74   480.50   513.08
eigval :      517.45   531.85   555.24   562.80   576.46   580.44
eigval :      584.20   585.58   591.69   597.26   607.10   622.95
eigval :      629.69   640.72   641.15   641.39   649.12   655.66
eigval :      669.84   689.14   690.12   703.73   707.90   709.23
eigval :      717.13   720.09   749.17   766.09   778.91   810.95
eigval :      813.39   819.02   822.60   825.94   831.43   833.03
eigval :      835.48   858.86   864.65   865.99   868.03   871.77
eigval :      872.91   873.52   874.50   882.87   886.44   906.59
eigval :      906.61   914.36   916.64   920.50   924.61   928.73
eigval :      930.98   932.99   956.51   960.28   960.32   960.37
eigval :      960.42   962.92   962.93   963.16   963.26   963.29
eigval :      963.32   963.35   963.42   984.15  1026.39  1029.07
eigval :     1032.49  1033.99  1035.15  1035.21  1035.24  1035.36
eigval :     1036.72  1038.89  1042.21  1044.62  1079.50  1111.62
eigval :     1114.67  1123.54  1126.53  1129.37  1131.27  1136.10
eigval :     1158.02  1162.15  1165.08  1169.92  1186.28  1199.79
eigval :     1215.59  1225.38  1226.80  1226.85  1227.11  1227.20
eigval :     1227.71  1230.52  1230.86  1231.27  1233.70  1234.65
eigval :     1235.46  1235.83  1246.09  1253.95  1260.81  1282.48
eigval :     1282.92  1294.92  1298.52  1300.33  1303.10  1304.83
eigval :     1331.52  1339.61  1344.55  1348.63  1349.41  1351.91
eigval :     1362.62  1380.33  1401.96  1402.41  1404.80  1404.88
eigval :     1405.85  1406.00  1406.07  1406.08  1409.99  1411.08
eigval :     1413.32  1418.85  1423.36  1429.24  1429.32  1429.37
eigval :     1429.41  1443.42  1450.69  1456.65  1464.25  1468.39
eigval :     1471.91  1480.81  1482.27  1491.56  1491.82  1491.91
eigval :     1491.94  1494.10  1494.13  1494.39  1494.53  1500.57
eigval :     1500.65  1500.87  1501.00  1504.87  1505.10  1505.24
eigval :     1505.28  1512.63  1514.87  1514.90  1515.09  1515.10
eigval :     1516.05  1519.67  1519.82  1520.41  1520.62  1562.24
eigval :     1564.57  1567.97  1577.77  1580.61  1585.97  1590.77
eigval :     1603.70  1611.14  3022.69  3022.72  3022.84  3022.88
eigval :     3024.50  3024.54  3024.55  3024.61  3027.50  3027.53
eigval :     3027.56  3027.80  3030.84  3030.94  3030.98  3031.33
eigval :     3031.75  3031.88  3032.12  3032.22  3035.96  3036.10
eigval :     3036.15  3036.38  3039.02  3039.10  3039.19  3039.41
eigval :     3047.80  3048.09  3048.26  3049.25  3050.99  3051.26
eigval :     3051.48  3052.65  3058.80  3077.78  3083.73  3085.18
eigval :     3086.20  3087.29  3089.02  3093.32  3096.09  3097.51
eigval :     3098.92  3099.92  3101.17  3105.14  3111.38  3117.41
eigval :     3117.53  3120.69  3120.88

   temp. (K)  partition function   enthalpy   heat capacity  entropy
                                   cal/mol     cal/K/mol   cal/K/mol   J/K/mol
 298.15  VIB  0.222E+26            32375.748    197.328    201.134
         ROT  0.160E+09              888.752      2.981     40.524
         INT  0.355E+34            33264.500    200.309    241.658
         TR   0.194E+29             1481.254      4.968     45.655
         TOT                       34745.7542   205.2775   287.3130  1202.1177

       T/K    H(0)-H(T)+PV         H(T)/Eh          T*S/Eh         G(T)/Eh
   ------------------------------------------------------------------------
    298.15    0.553709E-01    0.973789E+00    0.136512E+00    0.837278E+00
   ------------------------------------------------------------------------

         :::::::::::::::::::::::::::::::::::::::::::::::::::::
         ::                  THERMODYNAMIC                  ::
         :::::::::::::::::::::::::::::::::::::::::::::::::::::
         :: total free energy        -151.454660871161 Eh   ::
         ::.................................................::
         :: total energy             -152.291938414214 Eh   ::
         :: zero point energy           0.918418347818 Eh   ::
         :: G(RRHO) w/o ZPVE           -0.081140804764 Eh   ::
         :: G(RRHO) contrib.            0.837277543053 Eh   ::
         :::::::::::::::::::::::::::::::::::::::::::::::::::::

           -------------------------------------------------
          | TOTAL ENERGY             -152.291938414214 Eh   |
          | TOTAL ENTHALPY           -151.318149182495 Eh   |
          | TOTAL FREE ENERGY        -151.454660871161 Eh   |
          | GRADIENT NORM               0.000067127040 Eh/α |
           -------------------------------------------------

 * finished run on 2025/09/08 at 01:39:06.140
