   * xtb version 6.7.1 (edcfbbe) compiled by 'albert@albert-system' on 2024-07-22

   ID    Z sym.   atoms
    1    6 C      1-20, 22-25, 27-30, 32-34, 36-56
    2    7 N      21, 31, 35
    3    8 O      26
    4    1 H      57-111

          program call               : xtb data2507/gas/3BPy-mDTC/3BPy-mDTC.xyz --gfn 2 --ohess vtight --parallel 40 --molden --ceasefiles --namespace data2507/gas/3BPy-mDTC/3BPy-mDTC_gas_S0_preOpt
          :  Hamiltonian                  GFN2-xTB          :
 * total energy  :  -152.3365072 Eh     change       -0.8950906E-08 Eh
 * total energy  :  -152.3538305 Eh     change       -0.1732332E-01 Eh
 * total energy  :  -152.3589511 Eh     change       -0.5120635E-02 Eh
 * total energy  :  -152.3605007 Eh     change       -0.1549571E-02 Eh
 * total energy  :  -152.3614066 Eh     change       -0.9058945E-03 Eh
 * total energy  :  -152.3616840 Eh     change       -0.2773998E-03 Eh
 * total energy  :  -152.3618270 Eh     change       -0.1430370E-03 Eh
 * total energy  :  -152.3619487 Eh     change       -0.1216782E-03 Eh
 * total energy  :  -152.3620527 Eh     change       -0.1040253E-03 Eh
 * total energy  :  -152.3621244 Eh     change       -0.7165857E-04 Eh
 * total energy  :  -152.3624325 Eh     change       -0.3817131E-06 Eh
 * total energy  :  -152.3624330 Eh     change       -0.4588988E-06 Eh
 * total energy  :  -152.3624335 Eh     change       -0.4824109E-06 Eh
 * total energy  :  -152.3624339 Eh     change       -0.4485476E-06 Eh
 * total energy  :  -152.3624344 Eh     change       -0.4814170E-06 Eh
 * total energy  :  -152.3624349 Eh     change       -0.5012340E-06 Eh
 * total energy  :  -152.3624354 Eh     change       -0.5300925E-06 Eh
 * total energy  :  -152.3624359 Eh     change       -0.5041981E-06 Eh
 * total energy  :  -152.3624359 Eh     change       -0.3240331E-08 Eh
   *** GEOMETRY OPTIMIZATION CONVERGED AFTER 68 ITERATIONS ***

 final structure:
================
111
 xtb: 6.7.1 (edcfbbe)
C            8.74116722947568       -0.72104193721938       -1.13776482149036
C            7.70887727725752       -1.78313604764028       -1.52621239842220
C            8.18204144075699       -3.13266735461594       -0.96779021602673
C            7.64532562332586       -1.84723775062037       -3.05878491114052
C            6.32210174092717       -1.47752867507311       -0.97948281223117
C            5.27573809704405       -2.36778571673612       -1.25423327440592
C            3.98924870887218       -2.18076719799187       -0.79073139893472
C            3.73439112502558       -1.06444610577651       -0.01000983287284
C            4.76170433506109       -0.13618267180052        0.25375133011951
C            6.04735724474524       -0.34824997770424       -0.22617806928139
C            4.16944498577938        0.92139195608894        1.02627582625141
C            4.68530160223476        2.08286441850841        1.58548004447304
C            3.85920967433265        2.91880188681288        2.31833409006622
C            4.35165116359263        4.21285786828277        2.94961219314766
C            4.16382018096920        4.13642905244506        4.47131669792952
C            3.54154041341670        5.38772171937471        2.38338071695444
C            5.83286931343157        4.47845234069566        2.66679557089630
C            2.51932122483669        2.54835948244302        2.49157815994990
C            1.98083610943877        1.39983885448616        1.94721632715182
C            2.80910396883488        0.58817639120962        1.18819929158283
N            2.55256521190041       -0.61686774102691        0.55637948389759
C            1.32502836275686       -1.27514937730951        0.50282078187359
C            1.24904118906378       -2.63946394250781        0.76375266187011
C            0.02823715222888       -3.30065611049456        0.67964124432902
C            0.00154217031490       -4.75573123061480        0.97337647601689
O            0.81571662065874       -5.27977321917507        1.70537860776348
C           -1.06765204766921       -5.55329535770285        0.31903832460128
C           -1.61933477037410       -6.64530021567762        0.98764694335279
C           -2.59134041135765       -7.39911630294131        0.35581130160596
C           -2.97161939185917       -7.03448971006889       -0.92855437804971
N           -2.42861238960816       -6.02408466213348       -1.58647466246629
C           -1.50024152743497       -5.30701159123679       -0.98514240302278
C           -1.13065773660546       -2.59397673560298        0.37532409980799
C           -1.06414135624140       -1.22146667206786        0.15094307144946
N           -2.22650844632345       -0.50398761591907       -0.13377863054310
C           -3.42285168668086       -0.59549774408024        0.55706451905410
C           -3.75429102899828       -1.32847280939559        1.68339183833598
C           -5.03502584752053       -1.20638260784893        2.19231343630099
C           -5.99635951818910       -0.36834090965349        1.62216288095595
C           -7.40697808613456       -0.24321753146200        2.18056031287818
C           -7.64754245163945        1.21046571103090        2.61200193073051
C           -8.41344012016022       -0.63464889966402        1.08911942338946
C           -7.65044137984778       -1.14478387250044        3.39389736668644
C           -5.64083997933070        0.38614150790120        0.51149985534077
C           -4.36570316775411        0.28214279527644       -0.01932890518629
C           -3.70260749311405        0.93075605717311       -1.11831171693264
C           -4.11489764257949        1.86621536384435       -2.05298493569282
C           -3.23607360882705        2.30144372168046       -3.03650566821269
C           -3.70882371255342        3.34035019905553       -4.04363536483478
C           -2.62704643966916        3.72405083170710       -5.05691665916452
C           -4.90884652714868        2.77804519396240       -4.81870495685124
C           -4.12600803356756        4.61165766197205       -3.29038724125509
C           -1.94991404507785        1.75714364424332       -3.06725678588438
C           -1.51247226585076        0.82137123049938       -2.14685094410997
C           -2.38729130161833        0.42055267457233       -1.15204676768311
C            0.16416475023915       -0.56847771917333        0.19972513079201
H            9.71242628327009       -0.99320187321713       -1.54628290849269
H            8.83999485587805       -0.64884377132259       -0.05712447364390
H            8.47028201761935        0.25318446688909       -1.53820384576003
H            7.51967438630387       -3.94041936858600       -1.26601366010891
H            8.21023798291168       -3.09964417718312        0.11941089104905
H            9.18161392176330       -3.36007714624709       -1.33262530701746
H            8.63468407468889       -2.04291027947722       -3.46717687149677
H            6.97710824548189       -2.63452641735436       -3.39621659482945
H            7.28690198180276       -0.90123253384826       -3.45960115646239
H            5.46922402116013       -3.24234549753030       -1.85631577285634
H            3.21061404553811       -2.88465189479844       -1.04347110727952
H            6.80779405214098        0.38077406759042       -0.00152182714660
H            5.72889213918711        2.30541342682692        1.43873979776020
H            3.11714486273632        4.01795426440923        4.73710929455198
H            4.71561605876186        3.29022306781435        4.87547890634255
H            4.53309013961061        5.04588773746792        4.94085930811642
H            3.65581378611915        5.43583552261654        1.30232081158729
H            2.48370953430949        5.28643115963471        2.60918950491316
H            3.89216430495790        6.32533133558219        2.80983221529197
H            6.12810535226084        5.41684231804715        3.13216985710520
H            6.01838285114576        4.56079682686285        1.59831019400607
H            6.45753247287513        3.68920825262329        3.07861424012698
H            1.86770510456534        3.17767225588613        3.07836940340694
H            0.94776581355440        1.14394566219740        2.12868092550284
H            2.12879409463361       -3.19707443914243        1.04475704504996
H           -1.28309361742700       -6.87571805484309        1.98827716551390
H           -3.04526259534897       -8.24645036973875        0.84533161865260
H           -3.74004765446805       -7.57787545737605       -1.46236942016013
H           -1.06687721783200       -4.51036610943348       -1.57634687778400
H           -2.08381030950266       -3.09593963324985        0.31755566636683
H           -3.03638733842948       -1.97145356499433        2.17068014229557
H           -5.27767295846622       -1.78666859415566        3.06702155365130
H           -8.64667921955886        1.31799786620030        3.02917306702142
H           -7.55412338228174        1.89368557552219        1.77252648311251
H           -6.92334997746842        1.50183010098786        3.37002550654509
H           -8.33285588890945        0.01609570664800        0.22301780119686
H           -8.23542081528760       -1.65756366873642        0.76365819308033
H           -9.42924764012202       -0.56603264626988        1.47296444539393
H           -8.67503746321149       -1.01823106848383        3.73822756220315
H           -6.98715405177390       -0.88485189071293        4.21564144478378
H           -7.50984956856166       -2.19250642246313        3.13807707571824
H           -6.34357156087112        1.06326231748962        0.05104887155319
H           -5.12512171472007        2.24215980728045       -2.00360225667859
H           -2.31904591605875        2.86382306927037       -5.64675095009712
H           -1.75710060782943        4.14747919081216       -4.56017808077000
H           -3.02137994154920        4.47412522637735       -5.73973994859480
H           -5.25133497242467        3.50079498502291       -5.55642751703604
H           -4.62641802931197        1.86345617674381       -5.33604407132127
H           -5.73837550553374        2.55058245608236       -4.15510463434416
H           -3.28487121608730        5.00479602087438       -2.72302120576749
H           -4.45487616887442        5.37408968909756       -3.99353367245794
H           -4.93979231596101        4.41384626352228       -2.59840092040842
H           -1.25500821715154        2.06121537755489       -3.83225279856802
H           -0.51633681827353        0.41194720391111       -2.22310215544026
H            0.21505179723277        0.49190093150935        0.00863685780661

          :  Hamiltonian                  GFN2-xTB          :
         :: gradient norm              0.000042752719 Eh/a0 ::
         :: HOMO-LUMO gap              1.640883125848 eV    ::
         :: SCC energy              -154.964829309486 Eh    ::
         :: -> dispersion             -0.138454719637 Eh    ::
         :: repulsion energy           2.602393370114 Eh    ::

    * Orbital Energies and Occupations

         #    Occupation            Energy/Eh            Energy/eV
      -------------------------------------------------------------
         1        2.0000           -0.7134069             -19.4128
       ...           ...                  ...                  ...
       130        2.0000           -0.4131199             -11.2416
       131        2.0000           -0.4084511             -11.1145
       132        2.0000           -0.4081159             -11.1054
       133        2.0000           -0.4076943             -11.0939
       134        2.0000           -0.4053720             -11.0307
       135        2.0000           -0.4024778             -10.9520
       136        2.0000           -0.3954047             -10.7595
       137        2.0000           -0.3949696             -10.7477
       138        2.0000           -0.3791017             -10.3159
       139        2.0000           -0.3751038             -10.2071
       140        2.0000           -0.3718141             -10.1176
       141        2.0000           -0.3586593              -9.7596
       142        2.0000           -0.3577368              -9.7345 (HOMO)
       143                         -0.2974355              -8.0936 (LUMO)
       144                         -0.2603412              -7.0842
       145                         -0.2512159              -6.8359
       146                         -0.2479043              -6.7458
       147                         -0.2402271              -6.5369
       148                         -0.2365074              -6.4357
       149                         -0.2189411              -5.9577
       150                         -0.2159801              -5.8771
       151                         -0.2071618              -5.6372
       152                         -0.1872429              -5.0951
       153                         -0.1849827              -5.0336
       ...                                ...                  ...
       279                          0.7473391              20.3361
      -------------------------------------------------------------
                  HL-Gap            0.0603014 Eh            1.6409 eV

     #   Z          covCN         q      C6AA      α(0)
     1   6 C        3.761    -0.107    22.590     6.775
     2   6 C        3.903     0.026    20.086     6.371
     3   6 C        3.762    -0.105    22.560     6.771
     4   6 C        3.761    -0.105    22.556     6.770
     5   6 C        2.973    -0.001    28.039     8.686
     6   6 C        2.931    -0.038    28.952     8.824
     7   6 C        2.909    -0.052    29.303     8.876
     8   6 C        3.076     0.042    26.969     8.514
     9   6 C        3.067    -0.019    28.402     8.739
    10   6 C        2.918    -0.043    29.076     8.842
    11   6 C        3.067    -0.018    28.400     8.738
    12   6 C        2.918    -0.043    29.077     8.843
    13   6 C        2.973    -0.001    28.047     8.687
    14   6 C        3.903     0.026    20.086     6.371
    15   6 C        3.761    -0.105    22.557     6.770
    16   6 C        3.762    -0.105    22.556     6.770
    17   6 C        3.761    -0.107    22.591     6.776
    18   6 C        2.931    -0.039    28.967     8.827
    19   6 C        2.909    -0.053    29.324     8.879
    20   6 C        3.074     0.042    26.975     8.516
    21   7 N        2.802    -0.043    22.066     6.977
    22   6 C        2.909     0.070    26.434     8.431
    23   6 C        2.928    -0.041    29.020     8.834
    24   6 C        2.971    -0.014    28.351     8.734
    25   6 C        2.828     0.227    23.246     7.900
    26   8 O        0.858    -0.362    20.927     6.133
    27   6 C        2.967    -0.020    28.498     8.756
    28   6 C        2.933    -0.001    28.042     8.685
    29   6 C        2.912    -0.036    28.888     8.813
    30   6 C        2.913     0.064    26.569     8.452
    31   7 N        1.835    -0.209    26.382     7.612
    32   6 C        2.913     0.063    26.592     8.456
    33   6 C        2.923    -0.051    29.265     8.871
    34   6 C        2.910     0.070    26.442     8.432
    35   7 N        2.802    -0.046    22.119     6.985
    36   6 C        3.073     0.043    26.966     8.514
    37   6 C        2.909    -0.054    29.349     8.883
    38   6 C        2.929    -0.043    29.076     8.843
    39   6 C        2.972    -0.001    28.049     8.687
    40   6 C        3.903     0.026    20.086     6.371
    41   6 C        3.762    -0.105    22.555     6.770
    42   6 C        3.762    -0.105    22.556     6.770
    43   6 C        3.761    -0.107    22.588     6.775
    44   6 C        2.920    -0.039    28.963     8.825
    45   6 C        3.064    -0.018    28.390     8.737
    46   6 C        3.065    -0.018    28.391     8.737
    47   6 C        2.920    -0.039    28.961     8.825
    48   6 C        2.972    -0.001    28.042     8.686
    49   6 C        3.903     0.026    20.086     6.370
    50   6 C        3.761    -0.107    22.593     6.776
    51   6 C        3.762    -0.105    22.556     6.770
    52   6 C        3.762    -0.105    22.556     6.770
    53   6 C        2.929    -0.043    29.066     8.841
    54   6 C        2.909    -0.054    29.342     8.882
    55   6 C        3.072     0.043    26.964     8.514
    56   6 C        2.926    -0.057    29.427     8.896
    57   1 H        0.925     0.035     2.516     2.481
    58   1 H        0.925     0.036     2.506     2.476
    59   1 H        0.925     0.035     2.515     2.480
    60   1 H        0.925     0.036     2.500     2.473
    61   1 H        0.925     0.034     2.531     2.488
    62   1 H        0.925     0.036     2.505     2.475
    63   1 H        0.925     0.036     2.502     2.474
    64   1 H        0.925     0.036     2.508     2.477
    65   1 H        0.925     0.033     2.546     2.495
    66   1 H        0.926     0.031     2.579     2.511
    67   1 H        0.926     0.025     2.659     2.550
    68   1 H        0.926     0.038     2.474     2.460
    69   1 H        0.926     0.038     2.472     2.459
    70   1 H        0.925     0.036     2.509     2.477
    71   1 H        0.925     0.034     2.536     2.490
    72   1 H        0.925     0.036     2.504     2.474
    73   1 H        0.925     0.033     2.543     2.494
    74   1 H        0.925     0.036     2.509     2.477
    75   1 H        0.925     0.036     2.505     2.475
    76   1 H        0.925     0.035     2.516     2.481
    77   1 H        0.925     0.035     2.510     2.478
    78   1 H        0.925     0.036     2.507     2.476
    79   1 H        0.926     0.030     2.592     2.518
    80   1 H        0.926     0.025     2.663     2.552
    81   1 H        0.926     0.067     2.118     2.276
    82   1 H        0.926     0.057     2.229     2.335
    83   1 H        0.926     0.046     2.377     2.411
    84   1 H        0.925     0.048     2.350     2.397
    85   1 H        0.925     0.045     2.381     2.413
    86   1 H        0.926     0.046     2.367     2.406
    87   1 H        0.926     0.023     2.693     2.566
    88   1 H        0.926     0.036     2.501     2.473
    89   1 H        0.925     0.036     2.500     2.473
    90   1 H        0.925     0.036     2.503     2.474
    91   1 H        0.925     0.033     2.542     2.493
    92   1 H        0.925     0.036     2.500     2.473
    93   1 H        0.925     0.033     2.544     2.494
    94   1 H        0.925     0.036     2.502     2.474
    95   1 H        0.925     0.036     2.509     2.477
    96   1 H        0.925     0.035     2.515     2.480
    97   1 H        0.925     0.035     2.521     2.483
    98   1 H        0.926     0.031     2.572     2.508
    99   1 H        0.926     0.031     2.575     2.509
   100   1 H        0.925     0.035     2.512     2.479
   101   1 H        0.925     0.035     2.513     2.479
   102   1 H        0.925     0.035     2.510     2.477
   103   1 H        0.925     0.036     2.502     2.473
   104   1 H        0.925     0.034     2.537     2.491
   105   1 H        0.925     0.036     2.505     2.475
   106   1 H        0.925     0.033     2.542     2.493
   107   1 H        0.925     0.036     2.503     2.474
   108   1 H        0.925     0.036     2.505     2.475
   109   1 H        0.926     0.037     2.486     2.465
   110   1 H        0.926     0.025     2.660     2.551
   111   1 H        0.926     0.057     2.229     2.335

molecular dipole:
                 x           y           z       tot (Debye)
 q only:       -0.561       0.667      -0.355
   full:       -0.604       0.488      -0.065       1.981

 projected vibrational frequencies (cm⁻¹)
eigval :       -0.00    -0.00     0.00     0.00     0.00     0.00
eigval :        9.42     9.84    12.51    12.87    20.32    30.27
eigval :       30.66    30.91    32.71    34.14    42.73    44.61
eigval :       57.23    62.77    65.35    70.76    73.74    85.53
eigval :       86.92   105.70   111.75   124.68   144.83   154.11
eigval :      155.16   159.89   172.22   176.88   179.41   184.99
eigval :      186.85   196.33   199.54   203.04   216.94   217.42
eigval :      220.79   221.47   226.56   231.70   237.74   250.66
eigval :      259.37   261.86   269.10   274.28   283.73   292.17
eigval :      308.05   309.67   314.77   317.98   321.24   322.33
eigval :      328.52   329.96   336.89   338.21   344.51   355.81
eigval :      358.08   360.28   367.04   368.69   373.41   381.35
eigval :      397.32   399.49   404.42   411.71   412.20   432.04
eigval :      440.96   441.99   443.72   444.67   459.18   460.98
eigval :      462.03   463.85   466.91   471.42   479.50   512.46
eigval :      521.55   540.01   570.71   573.55   577.81   582.33
eigval :      584.66   589.66   597.95   601.77   622.73   639.49
eigval :      640.48   640.96   650.81   668.14   672.68   687.03
eigval :      687.90   688.43   703.74   707.67   709.49   715.36
eigval :      719.58   724.02   767.53   786.00   798.91   815.97
eigval :      819.05   820.91   823.32   832.53   835.02   850.48
eigval :      870.36   872.57   874.20   874.98   878.72   882.70
eigval :      891.36   896.99   901.23   907.83   911.36   914.04
eigval :      917.51   922.02   923.73   925.08   927.18   929.56
eigval :      933.54   936.26   960.13   960.19   960.40   960.47
eigval :      962.60   962.69   962.71   962.78   962.99   963.06
eigval :      963.11   963.45   991.10  1000.91  1029.26  1033.19
eigval :     1034.85  1035.68  1035.89  1035.90  1035.93  1035.96
eigval :     1036.17  1038.79  1045.36  1052.11  1091.88  1115.19
eigval :     1120.05  1131.48  1132.32  1133.09  1141.39  1145.40
eigval :     1167.18  1178.21  1182.12  1194.60  1195.54  1218.57
eigval :     1227.70  1227.98  1228.01  1228.19  1228.30  1228.45
eigval :     1231.81  1232.30  1233.27  1236.90  1237.73  1241.53
eigval :     1245.78  1254.20  1256.60  1261.92  1271.27  1282.52
eigval :     1285.16  1286.30  1296.56  1305.29  1307.48  1309.33
eigval :     1325.33  1341.01  1347.77  1352.75  1358.21  1365.70
eigval :     1394.12  1399.06  1402.24  1402.60  1404.81  1404.89
eigval :     1406.04  1406.16  1406.25  1406.30  1412.53  1413.24
eigval :     1429.43  1429.60  1429.65  1429.69  1432.39  1434.13
eigval :     1437.69  1457.73  1466.04  1475.32  1475.70  1483.37
eigval :     1485.14  1492.31  1492.40  1492.42  1492.48  1494.79
eigval :     1495.08  1495.18  1495.30  1501.63  1502.01  1502.21
eigval :     1502.99  1505.75  1505.76  1505.89  1506.10  1515.02
eigval :     1515.22  1515.59  1515.68  1520.27  1520.63  1520.81
eigval :     1521.12  1559.94  1561.36  1566.22  1567.60  1572.61
eigval :     1574.40  1582.82  1586.81  1605.32  1606.28  1617.27
eigval :     1620.49  1697.60  3021.07  3021.13  3021.21  3021.33
eigval :     3022.71  3022.78  3022.83  3022.94  3026.84  3026.92
eigval :     3026.96  3027.08  3029.62  3029.71  3029.99  3030.32
eigval :     3031.00  3031.07  3031.12  3031.23  3035.47  3035.53
eigval :     3035.77  3035.88  3037.82  3037.96  3038.18  3038.55
eigval :     3047.02  3047.20  3047.48  3047.51  3050.37  3050.84
eigval :     3051.17  3051.20  3055.19  3062.67  3079.20  3079.52
eigval :     3080.03  3082.10  3082.16  3088.40  3092.13  3093.41
eigval :     3094.30  3098.41  3103.09  3108.97  3110.09  3116.32
eigval :     3119.21  3119.75  3120.22

   temp. (K)  partition function   enthalpy   heat capacity  entropy
                                   cal/mol     cal/K/mol   cal/K/mol   J/K/mol
 298.15  VIB  0.309E+26            32245.614    195.769    200.916
         ROT  0.159E+09              888.752      2.981     40.508
         INT  0.491E+34            33134.366    198.750    241.424
         TR   0.194E+29             1481.254      4.968     45.655
         TOT                       34615.6198   203.7181   287.0788  1201.1379

       T/K    H(0)-H(T)+PV         H(T)/Eh          T*S/Eh         G(T)/Eh
   ------------------------------------------------------------------------
    298.15    0.551635E-01    0.977074E+00    0.136400E+00    0.840674E+00
   ------------------------------------------------------------------------

         :::::::::::::::::::::::::::::::::::::::::::::::::::::
         ::                  THERMODYNAMIC                  ::
         :::::::::::::::::::::::::::::::::::::::::::::::::::::
         :: total free energy        -151.521762201408 Eh   ::
         ::.................................................::
         :: total energy             -152.362435939371 Eh   ::
         :: zero point energy           0.921910657244 Eh   ::
         :: G(RRHO) w/o ZPVE           -0.081236919281 Eh   ::
         :: G(RRHO) contrib.            0.840673737963 Eh   ::
         :::::::::::::::::::::::::::::::::::::::::::::::::::::

           -------------------------------------------------
          | TOTAL ENERGY             -152.362435939371 Eh   |
          | TOTAL ENTHALPY           -151.385361780606 Eh   |
          | TOTAL FREE ENERGY        -151.521762201408 Eh   |
          | GRADIENT NORM               0.000042748763 Eh/α |
          | HOMO-LUMO GAP               1.640883592094 eV   |
           -------------------------------------------------

 * finished run on 2025/09/08 at 00:48:26.303
