   * xtb version 6.7.1 (edcfbbe) compiled by 'albert@albert-system' on 2024-07-22

   ID    Z sym.   atoms
    1    6 C      1-20, 22-25, 27-30, 32-34, 36-56
    2    7 N      21, 31, 35
    3    8 O      26
    4    1 H      57-111

          program call               : xtb data2507/gas/3BPy-mDTC/3BPy-mDTC_gas_S0_crest.xyz --gfn 2 --ohess vtight --parallel 40 --molden --ceasefiles --namespace data2507/gas/3BPy-mDTC/3BPy-mDTC_gas_S0_finalOpt
          :  Hamiltonian                  GFN2-xTB          :
 * total energy  :  -152.3644400 Eh     change       -0.5690623E-08 Eh
 * total energy  :  -152.3644419 Eh     change       -0.1975169E-05 Eh
 * total energy  :  -152.3644448 Eh     change       -0.2817660E-05 Eh
 * total energy  :  -152.3644492 Eh     change       -0.4406278E-05 Eh
 * total energy  :  -152.3644524 Eh     change       -0.3191195E-05 Eh
 * total energy  :  -152.3644554 Eh     change       -0.2999791E-05 Eh
 * total energy  :  -152.3644600 Eh     change       -0.4680202E-05 Eh
 * total energy  :  -152.3644679 Eh     change       -0.7825962E-05 Eh
 * total energy  :  -152.3644770 Eh     change       -0.9166087E-05 Eh
 * total energy  :  -152.3644859 Eh     change       -0.8840002E-05 Eh
 * total energy  :  -152.3646240 Eh     change       -0.6067959E-06 Eh
 * total energy  :  -152.3646246 Eh     change       -0.5679132E-06 Eh
 * total energy  :  -152.3646251 Eh     change       -0.4810910E-06 Eh
 * total energy  :  -152.3646255 Eh     change       -0.4122518E-06 Eh
 * total energy  :  -152.3646258 Eh     change       -0.3762960E-06 Eh
 * total energy  :  -152.3646262 Eh     change       -0.3977609E-06 Eh
 * total energy  :  -152.3646267 Eh     change       -0.4534863E-06 Eh
 * total energy  :  -152.3646272 Eh     change       -0.5109311E-06 Eh
 * total energy  :  -152.3646272 Eh     change       -0.1678870E-08 Eh
   *** GEOMETRY OPTIMIZATION CONVERGED AFTER 68 ITERATIONS ***

 final structure:
================
111
 xtb: 6.7.1 (edcfbbe)
C            8.26569902649897       -1.28280451623283        1.29396960918004
C            7.44459365915554       -0.05002052275898        1.68198009645827
C            8.15485986253153        1.19063014066681        1.12230911793202
C            7.39442101360686        0.02651251931624        3.21437368808241
C            6.02471964018503       -0.09807052364427        1.13712434656111
C            5.15946647165539        0.96921840017275        1.41048067238489
C            3.85892637354473        1.01775986145989        0.95142378997807
C            3.40115286007052       -0.03493122984249        0.17486353380275
C            4.24244064429910       -1.13469552252607       -0.08992130124577
C            5.54625882963038       -1.15995291053049        0.38747549729430
C            3.46827996113447       -2.06606456005058       -0.86405473877320
C            3.76635132705755       -3.29908841985757       -1.42876800888865
C            2.80456938080176       -3.96734508331216       -2.16810819939650
C            3.05699032413897       -5.32376142073841       -2.80989886586249
C            2.04367008855606       -6.33717670019485       -2.25931963818085
C            4.46363207597229       -5.85674436006654       -2.52397443606983
C            2.89483659843421       -5.19977370981344       -4.33150474848444
C            1.55429316772492       -3.35951695092085       -2.34073117392439
C            1.23148033563268       -2.13549090668882       -1.79042253620653
C            2.19136566800437       -1.49105027098975       -1.02609756713572
N            2.15664168160628       -0.26072059144276       -0.39060061601354
C            1.07078324711174        0.61352347644992       -0.35850236278716
C            1.25684529307483        1.96841688829713       -0.61952966298808
C            0.16724768349454        2.83283763143245       -0.60123372450517
C            0.33480301174787        4.28031759622616       -0.88696750605063
O           -0.52057699855600        4.93936440724362       -1.43899675939181
C            1.61997699457313        4.87820670203422       -0.44163669832241
C            2.24130805727179        5.86619201714176       -1.20257966811758
C            3.43477220393088        6.40438117102333       -0.75557479166747
C            3.96054551740512        5.93462273522549        0.44009444539811
N            3.35727381957437        5.02898556679193        1.19186998032811
C            2.21711698853513        4.52147453846557        0.76859245818080
C           -1.11017114464322        2.34624145694636       -0.34939480767161
C           -1.29960208979592        0.99372652865139       -0.08179883629268
N           -2.57705522932156        0.50171552678700        0.18174584710818
C           -3.71728092305994        0.77917351885672       -0.55388192303849
C           -3.87830973231452        1.52694513712003       -1.70947710751722
C           -5.14243787323777        1.60597185928777       -2.25764588357540
C           -6.25572896757632        0.95975630109987       -1.70413997086025
C           -7.60845897517110        1.11751892639927       -2.38299794759392
C           -7.98680592218930        2.60507876432710       -2.41048732904467
C           -7.51914354688734        0.57649011020407       -3.81700712344150
C           -8.72274170497845        0.35804566951079       -1.65757986913837
C           -6.07604345880295        0.19352626669353       -0.56449477744202
C           -4.81476360766588        0.09683849437499        0.00859231345490
C           -4.31138636076278       -0.61924069090373        1.14890673390531
C           -4.91906567749938       -1.43198415066807        2.09656876047560
C           -4.16407693825522       -1.97373074439089        3.12373108036601
C           -4.76117245537726       -2.87517056940719        4.19453591662411
C           -4.04474421323985       -4.23273894307870        4.16757703128278
C           -4.57573452267549       -2.21595181519441        5.56858732108444
C           -6.25735621713360       -3.12481072968995        3.98563791455840
C           -2.79875412751879       -1.66560579502641        3.18331600431297
C           -2.16922788961767       -0.86104451553988        2.25500568995706
C           -2.92955471621875       -0.34738278716600        1.21640473186061
C           -0.20538438305504        0.13279848213933       -0.07776271133736
H            9.27089813071441       -1.19164051409064        1.70085524560268
H            8.34806993815961       -1.37369260345045        0.21329320639777
H            7.82247104501841       -2.19075541818974        1.69638909764587
H            7.64857642882797        2.10496789078931        1.41864538530640
H            8.17831227951927        1.15107511255798        0.03508465075918
H            9.17860057923962        1.23386133967250        1.48844069391684
H            8.40302059863020        0.03994482449597        3.62239275410428
H            6.87976776846496        0.92229228900618        3.55013037681064
H            6.87062698513187       -0.83837107663263        3.61633868395114
H            5.50738428769672        1.79804809013791        2.00732079016541
H            3.22845130344284        1.85488558702542        1.20673072104573
H            6.15999204618700       -2.01632507845777        0.16319052936140
H            4.75206203823918       -3.70770812351265       -1.28187810701474
H            2.14030973957094       -6.41498735811247       -1.17830266420554
H            1.02321311034201       -6.04385622290852       -2.48913393492170
H            2.22130138952544       -7.31887684116187       -2.69358531595245
H            5.22376010579677       -5.19115919300829       -2.92642398736415
H            4.62530785094180       -5.97996023298958       -1.45556321712946
H            4.58562775660927       -6.82938833607281       -2.99657143071785
H            3.09422170194580       -6.15684924882126       -4.80914685683773
H            3.59427428530091       -4.46488412916996       -4.72485502128415
H            1.88894012055842       -4.88929232710300       -4.59982722705280
H            0.80090342870763       -3.85682162547899       -2.93229261636477
H            0.26229875696804       -1.69598816571420       -1.97225965625612
H            2.23974494529696        2.33094415907511       -0.87747222086592
H            1.78760087268868        6.18372317850162       -2.13022040738429
H            3.94883405862571        7.16543151374431       -1.32137263442407
H            4.90307085727971        6.30355893874977        0.82234704559596
H            1.74032970372114        3.81167417998489        1.43309856837405
H           -1.94230204521494        3.03253900569392       -0.33396448600739
H           -3.04648113326085        2.02867934097251       -2.17999364939513
H           -5.26323178485482        2.19331169246872       -3.15488089644060
H           -8.03334377961381        2.99909150345805       -1.39731203837999
H           -8.96101080017775        2.73591678711245       -2.87719347541513
H           -7.26126168441890        3.18940133561025       -2.96921496719713
H           -6.78823010506909        1.12563099988907       -4.40383364456658
H           -7.22813504221865       -0.47197167083573       -3.80523489602158
H           -8.48500903623972        0.66149130411130       -4.31080323917296
H           -8.52061978531440       -0.71045027687707       -1.63921908370797
H           -9.66531480484389        0.51201406671846       -2.17928561707770
H           -8.84101788064826        0.71731908460115       -0.63789840425813
H           -6.89221631373689       -0.33980472214119       -0.10654575798980
H           -5.97663635056758       -1.61826797094785        2.01289815662066
H           -2.98364383667562       -4.12660701163145        4.37495095417100
H           -4.15582093772871       -4.69632333369897        3.18943538914808
H           -4.47243123620210       -4.89738385038554        4.91540905047759
H           -5.01776720249453       -2.83669388443397        6.34526231693259
H           -3.52427178731331       -2.07566821497878        5.80313021902113
H           -5.06128650421223       -1.24235289989976        5.58624905508699
H           -6.62846611751600       -3.78057711936732        4.77085392029313
H           -6.81963851413457       -2.19508789102472        4.03227091743827
H           -6.44331314714564       -3.60781009218010        3.02909280992016
H           -2.20064792533620       -2.06417577077072        3.98852388815744
H           -1.11854430283774       -0.63267885716619        2.35441490589109
H           -0.34877792847366       -0.91495672427446        0.13516370418117

          :  Hamiltonian                  GFN2-xTB          :
         :: gradient norm              0.000030129139 Eh/a0 ::
         :: HOMO-LUMO gap              1.641731841362 eV    ::
         :: SCC energy              -154.967655795175 Eh    ::
         :: -> dispersion             -0.140114684876 Eh    ::
         :: repulsion energy           2.603028590099 Eh    ::

    * Orbital Energies and Occupations

         #    Occupation            Energy/Eh            Energy/eV
      -------------------------------------------------------------
         1        2.0000           -0.7144019             -19.4399
       ...           ...                  ...                  ...
       130        2.0000           -0.4125399             -11.2258
       131        2.0000           -0.4084979             -11.1158
       132        2.0000           -0.4072174             -11.0810
       133        2.0000           -0.4062694             -11.0552
       134        2.0000           -0.4045819             -11.0092
       135        2.0000           -0.4026918             -10.9578
       136        2.0000           -0.3958876             -10.7726
       137        2.0000           -0.3943165             -10.7299
       138        2.0000           -0.3807436             -10.3606
       139        2.0000           -0.3726556             -10.1405
       140        2.0000           -0.3711122             -10.0985
       141        2.0000           -0.3587761              -9.7628
       142        2.0000           -0.3571756              -9.7192 (HOMO)
       143                         -0.2968430              -8.0775 (LUMO)
       144                         -0.2616144              -7.1189
       145                         -0.2520289              -6.8581
       146                         -0.2479144              -6.7461
       147                         -0.2391206              -6.5068
       148                         -0.2355772              -6.4104
       149                         -0.2168827              -5.9017
       150                         -0.2152666              -5.8577
       151                         -0.2087268              -5.6797
       152                         -0.1858970              -5.0585
       153                         -0.1844449              -5.0190
       ...                                ...                  ...
       279                          0.7450655              20.2743
      -------------------------------------------------------------
                  HL-Gap            0.0603325 Eh            1.6417 eV

     #   Z          covCN         q      C6AA      α(0)
     1   6 C        3.761    -0.107    22.589     6.775
     2   6 C        3.903     0.026    20.087     6.371
     3   6 C        3.762    -0.106    22.563     6.771
     4   6 C        3.762    -0.106    22.567     6.772
     5   6 C        2.973    -0.001    28.044     8.687
     6   6 C        2.931    -0.039    28.965     8.826
     7   6 C        2.909    -0.054    29.351     8.884
     8   6 C        3.074     0.041    26.998     8.519
     9   6 C        3.067    -0.019    28.417     8.741
    10   6 C        2.918    -0.044    29.086     8.844
    11   6 C        3.067    -0.019    28.408     8.740
    12   6 C        2.918    -0.044    29.081     8.843
    13   6 C        2.973    -0.001    28.047     8.687
    14   6 C        3.903     0.026    20.087     6.371
    15   6 C        3.762    -0.105    22.558     6.771
    16   6 C        3.761    -0.107    22.591     6.775
    17   6 C        3.761    -0.105    22.557     6.770
    18   6 C        2.931    -0.039    28.968     8.827
    19   6 C        2.909    -0.054    29.332     8.881
    20   6 C        3.074     0.042    26.982     8.517
    21   7 N        2.802    -0.045    22.112     6.984
    22   6 C        2.909     0.070    26.436     8.431
    23   6 C        2.924    -0.051    29.261     8.871
    24   6 C        2.972    -0.014    28.350     8.734
    25   6 C        2.828     0.228    23.224     7.897
    26   8 O        0.858    -0.360    20.889     6.128
    27   6 C        2.968    -0.020    28.497     8.756
    28   6 C        2.932    -0.001    28.043     8.685
    29   6 C        2.913    -0.035    28.883     8.813
    30   6 C        2.914     0.064    26.570     8.453
    31   7 N        1.835    -0.209    26.379     7.611
    32   6 C        2.915     0.065    26.554     8.450
    33   6 C        2.926    -0.042    29.031     8.836
    34   6 C        2.909     0.070    26.434     8.431
    35   7 N        2.803    -0.044    22.091     6.981
    36   6 C        3.076     0.042    26.975     8.515
    37   6 C        2.908    -0.053    29.313     8.878
    38   6 C        2.931    -0.038    28.947     8.823
    39   6 C        2.973    -0.001    28.045     8.687
    40   6 C        3.903     0.026    20.086     6.371
    41   6 C        3.762    -0.105    22.561     6.771
    42   6 C        3.761    -0.105    22.556     6.770
    43   6 C        3.761    -0.107    22.587     6.775
    44   6 C        2.918    -0.044    29.083     8.843
    45   6 C        3.067    -0.019    28.415     8.741
    46   6 C        3.067    -0.019    28.406     8.739
    47   6 C        2.918    -0.043    29.080     8.843
    48   6 C        2.973    -0.001    28.053     8.688
    49   6 C        3.903     0.026    20.087     6.371
    50   6 C        3.762    -0.105    22.556     6.770
    51   6 C        3.762    -0.105    22.555     6.770
    52   6 C        3.761    -0.107    22.590     6.775
    53   6 C        2.931    -0.039    28.971     8.827
    54   6 C        2.909    -0.054    29.335     8.881
    55   6 C        3.074     0.042    26.986     8.517
    56   6 C        2.926    -0.057    29.419     8.895
    57   1 H        0.925     0.035     2.515     2.480
    58   1 H        0.925     0.035     2.515     2.480
    59   1 H        0.925     0.035     2.511     2.478
    60   1 H        0.925     0.037     2.493     2.469
    61   1 H        0.925     0.032     2.554     2.499
    62   1 H        0.925     0.036     2.502     2.474
    63   1 H        0.925     0.036     2.502     2.473
    64   1 H        0.925     0.037     2.487     2.466
    65   1 H        0.925     0.033     2.541     2.493
    66   1 H        0.926     0.034     2.530     2.487
    67   1 H        0.926     0.027     2.631     2.536
    68   1 H        0.926     0.038     2.478     2.462
    69   1 H        0.926     0.038     2.474     2.460
    70   1 H        0.925     0.033     2.539     2.492
    71   1 H        0.925     0.036     2.506     2.476
    72   1 H        0.925     0.036     2.503     2.474
    73   1 H        0.925     0.035     2.512     2.479
    74   1 H        0.925     0.036     2.508     2.477
    75   1 H        0.925     0.035     2.514     2.480
    76   1 H        0.925     0.036     2.501     2.473
    77   1 H        0.925     0.033     2.543     2.494
    78   1 H        0.925     0.036     2.508     2.476
    79   1 H        0.926     0.030     2.587     2.515
    80   1 H        0.926     0.025     2.655     2.548
    81   1 H        0.926     0.044     2.395     2.420
    82   1 H        0.926     0.056     2.242     2.341
    83   1 H        0.926     0.046     2.374     2.409
    84   1 H        0.925     0.048     2.350     2.397
    85   1 H        0.925     0.042     2.419     2.432
    86   1 H        0.926     0.064     2.151     2.294
    87   1 H        0.926     0.031     2.574     2.509
    88   1 H        0.926     0.032     2.562     2.503
    89   1 H        0.925     0.034     2.537     2.491
    90   1 H        0.925     0.036     2.508     2.477
    91   1 H        0.925     0.037     2.492     2.469
    92   1 H        0.925     0.036     2.503     2.474
    93   1 H        0.925     0.033     2.548     2.496
    94   1 H        0.925     0.036     2.505     2.475
    95   1 H        0.925     0.035     2.517     2.481
    96   1 H        0.925     0.035     2.519     2.482
    97   1 H        0.925     0.035     2.511     2.478
    98   1 H        0.926     0.037     2.483     2.464
    99   1 H        0.926     0.038     2.475     2.460
   100   1 H        0.925     0.036     2.509     2.477
   101   1 H        0.925     0.033     2.542     2.493
   102   1 H        0.925     0.036     2.506     2.476
   103   1 H        0.925     0.036     2.504     2.475
   104   1 H        0.925     0.035     2.510     2.478
   105   1 H        0.925     0.033     2.540     2.492
   106   1 H        0.925     0.035     2.518     2.481
   107   1 H        0.925     0.036     2.509     2.477
   108   1 H        0.925     0.035     2.510     2.477
   109   1 H        0.926     0.029     2.595     2.519
   110   1 H        0.926     0.024     2.678     2.559
   111   1 H        0.926     0.058     2.225     2.333

molecular dipole:
                 x           y           z       tot (Debye)
 q only:        0.601      -0.701       0.164
   full:        0.593      -0.499      -0.122       1.994

 projected vibrational frequencies (cm⁻¹)
eigval :       -0.00    -0.00    -0.00    -0.00     0.00     0.00
eigval :        9.64    10.36    12.45    14.26    22.16    30.37
eigval :       30.82    31.56    33.80    34.00    44.83    46.71
eigval :       60.49    62.20    66.22    68.18    75.12    85.50
eigval :       87.51   106.14   109.36   128.62   141.69   154.49
eigval :      159.44   160.45   173.63   176.51   181.84   185.46
eigval :      194.67   201.31   202.73   203.25   217.02   219.38
eigval :      221.54   223.05   226.13   230.44   237.21   240.78
eigval :      245.96   258.98   259.60   272.85   283.32   286.15
eigval :      292.49   314.32   317.58   317.88   321.63   322.37
eigval :      327.78   335.94   338.78   343.44   349.47   355.11
eigval :      360.13   360.35   364.99   367.38   374.88   381.76
eigval :      397.08   398.56   403.02   411.59   412.01   432.09
eigval :      440.51   441.10   442.55   442.89   456.33   461.80
eigval :      462.73   463.74   466.17   466.59   488.36   512.62
eigval :      520.01   540.60   554.13   575.95   580.05   584.71
eigval :      585.38   593.91   598.72   601.98   626.60   640.50
eigval :      640.59   641.89   655.46   666.62   670.02   687.56
eigval :      687.93   688.84   704.21   707.59   709.47   718.42
eigval :      719.98   723.06   767.93   786.51   797.90   817.73
eigval :      821.53   822.90   824.01   832.05   833.74   848.24
eigval :      869.46   869.97   872.59   874.09   874.47   877.27
eigval :      890.58   898.27   902.11   908.82   914.89   917.88
eigval :      918.74   921.12   923.85   925.09   927.54   929.17
eigval :      935.31   936.08   960.38   960.40   960.47   960.49
eigval :      962.98   963.02   963.07   963.10   963.11   963.38
eigval :      963.41   963.58   990.68  1001.15  1029.10  1030.33
eigval :     1033.80  1035.46  1035.89  1035.94  1035.97  1036.08
eigval :     1038.13  1039.82  1045.01  1051.54  1091.59  1114.89
eigval :     1119.16  1131.23  1131.81  1132.21  1141.92  1145.69
eigval :     1166.86  1177.47  1178.53  1193.00  1195.04  1217.98
eigval :     1228.04  1228.28  1228.35  1228.42  1228.54  1231.57
eigval :     1231.94  1232.56  1234.37  1237.17  1237.74  1240.58
eigval :     1240.78  1251.92  1256.83  1261.40  1269.48  1283.25
eigval :     1284.64  1285.63  1297.88  1308.51  1309.88  1310.74
eigval :     1324.63  1344.87  1347.32  1347.79  1356.77  1360.17
eigval :     1394.66  1397.85  1402.39  1402.74  1404.82  1404.86
eigval :     1406.07  1406.22  1406.27  1406.30  1412.32  1412.86
eigval :     1429.54  1429.62  1429.66  1429.74  1433.18  1433.53
eigval :     1438.87  1458.04  1465.55  1482.96  1483.35  1484.86
eigval :     1484.98  1492.24  1492.40  1492.43  1492.52  1494.98
eigval :     1495.05  1495.10  1495.26  1501.56  1501.68  1501.94
eigval :     1502.03  1505.60  1505.75  1505.83  1505.94  1514.93
eigval :     1515.07  1515.13  1515.27  1520.27  1520.34  1521.11
eigval :     1521.19  1560.20  1561.09  1565.18  1567.70  1571.81
eigval :     1572.92  1582.38  1583.12  1605.18  1605.32  1616.81
eigval :     1617.47  1705.38  3021.00  3021.20  3021.29  3021.50
eigval :     3022.44  3022.58  3022.62  3022.97  3026.59  3026.68
eigval :     3026.89  3026.92  3029.44  3029.61  3029.94  3030.21
eigval :     3030.66  3030.82  3030.96  3030.99  3035.28  3035.29
eigval :     3035.66  3035.73  3037.59  3037.91  3038.05  3038.20
eigval :     3046.98  3047.19  3047.89  3048.01  3050.04  3050.41
eigval :     3050.59  3051.66  3051.76  3063.44  3078.07  3080.19
eigval :     3082.93  3084.14  3091.07  3092.95  3094.07  3096.52
eigval :     3099.04  3101.28  3104.60  3108.99  3109.38  3115.80
eigval :     3115.92  3119.38  3119.57

   temp. (K)  partition function   enthalpy   heat capacity  entropy
                                   cal/mol     cal/K/mol   cal/K/mol   J/K/mol
 298.15  VIB  0.200E+26            32236.228    195.964    200.645
         ROT  0.157E+09              888.752      2.981     40.489
         INT  0.315E+34            33124.981    198.945    241.134
         TR   0.194E+29             1481.254      4.968     45.655
         TOT                       34606.2347   203.9135   286.7894  1199.9270

       T/K    H(0)-H(T)+PV         H(T)/Eh          T*S/Eh         G(T)/Eh
   ------------------------------------------------------------------------
    298.15    0.551485E-01    0.977105E+00    0.136263E+00    0.840842E+00
   ------------------------------------------------------------------------

         :::::::::::::::::::::::::::::::::::::::::::::::::::::
         ::                  THERMODYNAMIC                  ::
         :::::::::::::::::::::::::::::::::::::::::::::::::::::
         :: total free energy        -151.523784977308 Eh   ::
         ::.................................................::
         :: total energy             -152.364627205076 Eh   ::
         :: zero point energy           0.921956602001 Eh   ::
         :: G(RRHO) w/o ZPVE           -0.081114374233 Eh   ::
         :: G(RRHO) contrib.            0.840842227768 Eh   ::
         :::::::::::::::::::::::::::::::::::::::::::::::::::::

           -------------------------------------------------
          | TOTAL ENERGY             -152.364627205076 Eh   |
          | TOTAL ENTHALPY           -151.387522057650 Eh   |
          | TOTAL FREE ENERGY        -151.523784977308 Eh   |
          | GRADIENT NORM               0.000030119913 Eh/α |
          | HOMO-LUMO GAP               1.641732243620 eV   |
           -------------------------------------------------

 * finished run on 2025/09/08 at 01:10:16.025
