   * xtb version 6.7.1 (edcfbbe) compiled by 'albert@albert-system' on 2024-07-22

   ID    Z sym.   atoms
    1    6 C      1-20, 22-25, 27-30, 32-34, 36-56
    2    7 N      21, 31, 35
    3    8 O      26
    4    1 H      57-111

          program call               : xtb data2507/gas/3BPy-mDTC/3BPy-mDTC_gas_S0_finalOpt.xtbopt.xyz --gfn 2 --spinpol --tblite --uhf 2 --ohess vtight --parallel 40 --molden --ceasefiles --namespace data2507/gas/3BPy-mDTC/3BPy-mDTC_gas_T1_preOpt
 * total energy  :  -152.2841090 Eh     change        0.3621369E-07 Eh
 * total energy  :  -152.2879105 Eh     change       -0.3801484E-02 Eh
 * total energy  :  -152.2889236 Eh     change       -0.1013086E-02 Eh
 * total energy  :  -152.2891469 Eh     change       -0.2233320E-03 Eh
 * total energy  :  -152.2893395 Eh     change       -0.1925513E-03 Eh
 * total energy  :  -152.2895037 Eh     change       -0.1642290E-03 Eh
 * total energy  :  -152.2896801 Eh     change       -0.1764622E-03 Eh
 * total energy  :  -152.2898278 Eh     change       -0.1476901E-03 Eh
 * total energy  :  -152.2899382 Eh     change       -0.1103992E-03 Eh
 * total energy  :  -152.2900289 Eh     change       -0.9064440E-04 Eh
 * total energy  :  -152.2906472 Eh     change       -0.9499517E-06 Eh
 * total energy  :  -152.2906479 Eh     change       -0.7312652E-06 Eh
 * total energy  :  -152.2906481 Eh     change       -0.2059265E-06 Eh
 * total energy  :  -152.2906492 Eh     change       -0.1068363E-05 Eh
 * total energy  :  -152.2906494 Eh     change       -0.2016077E-06 Eh
 * total energy  :  -152.2906497 Eh     change       -0.3418250E-06 Eh
 * total energy  :  -152.2906499 Eh     change       -0.1473720E-06 Eh
 * total energy  :  -152.2906502 Eh     change       -0.2969964E-06 Eh
 * total energy  :  -152.2906503 Eh     change       -0.9614632E-07 Eh
   *** GEOMETRY OPTIMIZATION CONVERGED AFTER 74 ITERATIONS ***

 final structure:
================
111
 xtb: 6.7.1 (edcfbbe)
C            8.26938037155517       -1.36682950093799        1.38951811390124
C            7.42269284705293       -0.17944725719461        1.85627022207328
C            8.11310137035978        1.11076496102090        1.39121714381172
C            7.35996271229265       -0.21239286038139        3.39006512789586
C            6.00889355844627       -0.21269013156798        1.29723383797308
C            5.12179083507865        0.81582383366484        1.64227673711715
C            3.82552799005097        0.87411400987804        1.17448139197889
C            3.39736481357373       -0.12437468668468        0.31229435234529
C            4.26123436301004       -1.18806705467728       -0.02683661428741
C            5.55792808477562       -1.22647660196412        0.46303806298828
C            3.50624197566596       -2.06560723407024       -0.88192671978662
C            3.81610496586836       -3.25147886821059       -1.53008838263809
C            2.86234068835894       -3.87068741675256       -2.32580203353020
C            3.12976210308458       -5.17601688454703       -3.05917961149481
C            2.12069879767545       -6.23276269175942       -2.58708199844379
C            4.53882617585450       -5.71771121729212       -2.80307141813621
C            2.97466357094055       -4.94647746143945       -4.56938409858828
C            1.60851110175082       -3.26080731393654       -2.46467539184618
C            1.27322155746976       -2.08158057577958       -1.83100324577468
C            2.22519081178022       -1.48694556936140       -1.01572275286174
N            2.16975266972866       -0.31808585394583       -0.28495098636299
C            1.07723121855757        0.55826751701411       -0.22107548148054
C            1.26835286576568        1.90478532429732       -0.48668991192678
C            0.18161805588760        2.79543821095461       -0.46017831457983
C            0.29508576600812        4.20327687947393       -0.78278176554398
O           -0.69630428223276        4.86382214270918       -1.19907991330359
C            1.57615256144213        4.88319145025891       -0.64105851708076
C            1.87239538786433        6.01918736765506       -1.42033390297765
C            3.07635768474877        6.66798914221235       -1.25955732272471
C            3.96478730907139        6.18855407013460       -0.30152786648469
N            3.66378182526158        5.15434095057182        0.46888494870119
C            2.52785028007823        4.52206091082143        0.33138632742932
C           -1.10226567272222        2.27326023543891       -0.21713934653459
C           -1.28438503442845        0.92528607640536        0.02921455820719
N           -2.57326426096311        0.43674656548846        0.27989802184600
C           -3.69497807770966        0.70987101445989       -0.47515396180184
C           -3.82972545708741        1.44178341053675       -1.64649053670449
C           -5.08517613042753        1.52872698116483       -2.21217839881918
C           -6.21416244240536        0.90572532621039       -1.66297420253099
C           -7.55571709979872        1.07113547718582       -2.35959496313121
C           -7.91415977041050        2.56336118413075       -2.40716850526015
C           -7.45459911178185        0.51430060787611       -3.78701365467405
C           -8.68837959418147        0.33286908474512       -1.64070782595375
C           -6.06093400994016        0.15510753851596       -0.50513824309503
C           -4.81122005383614        0.05305291197514        0.08639128784286
C           -4.32944208269156       -0.64257682974065        1.25092734798688
C           -4.95060347740108       -1.43401589306996        2.20434554675736
C           -4.20738029129898       -1.96149644138784        3.25166796205392
C           -4.82167844998898       -2.84138649189427        4.32930416894566
C           -4.11318826638742       -4.20369986934071        4.32994641012949
C           -4.64477121699678       -2.16201161763500        5.69485147105067
C           -6.31737554355291       -3.08461067205335        4.10965835496187
C           -2.84085553622252       -1.65967481120936        3.32141887190237
C           -2.19710576930564       -0.87490423270321        2.38638006897451
C           -2.94486177702223       -0.37550696588448        1.32961435043498
C           -0.19454516536516        0.05309423718089        0.04967411217542
H            9.26873542869203       -1.28704329314434        1.81257030687820
H            8.36421196964069       -1.37812568810240        0.30613650085406
H            7.83977368843253       -2.30931736099529        1.72135237306337
H            7.58745856602933        1.99300149010697        1.74496326250976
H            8.14634678109842        1.14780683481353        0.30429533653367
H            9.13259890084854        1.14668187146757        1.76943598951904
H            8.36553352391875       -0.21147778873842        3.80533147824341
H            6.82898844142965        0.64906498384914        3.78476623625399
H            6.84834879523876       -1.11204483623703        3.72613585487921
H            5.45175746230158        1.60210344057988        2.30296325846126
H            3.16763330538154        1.67143912733151        1.48123817661507
H            6.19235331882035       -2.05080944031619        0.18325914559823
H            4.80158530043840       -3.66737151716802       -1.40372378114112
H            2.21244078018502       -6.38658031421314       -1.51381229671811
H            1.09927794204609       -5.93138572150990       -2.80148298180987
H            2.30830413147144       -7.17964052680975       -3.08891462922337
H            5.29627032199576       -5.01966960185950       -3.15196691810527
H            4.69536446579220       -5.91716269636060       -1.74544355260201
H            4.67080814918941       -6.65273079518849       -3.34378378531206
H            3.18513678690366       -5.86622324389969       -5.11105463012206
H            3.66996335976450       -4.18032303604365       -4.90613220235302
H            1.96769895049857       -4.62654050879278       -4.82183059618564
H            0.86367862020354       -3.72077651864198       -3.09570376005136
H            0.30268177229830       -1.63403527067967       -1.98141287663706
H            2.24848115667257        2.24739523640533       -0.77997462200677
H            1.14871287226996        6.35976947379564       -2.14461892879609
H            3.32899787063015        7.53136679471122       -1.85600231866168
H            4.92641371063451        6.64856124625090       -0.12711243254783
H            2.33211040526048        3.73007037573233        1.03928675394492
H           -1.93887755454530        2.95377798142248       -0.19768404563228
H           -2.98401981832685        1.92846392307602       -2.10680685491312
H           -5.18754387385221        2.10446996852313       -3.11880792099271
H           -7.96908555096657        2.96856227079879       -1.39892312146587
H           -8.88039033219366        2.70088635193151       -2.88799169979548
H           -7.17412083008113        3.13269737519633       -2.96209630021029
H           -6.71123063845494        1.04941821632143       -4.37090173548500
H           -7.17590871414457       -0.53725643016217       -3.76148058865118
H           -8.41373609343963        0.60524605735826       -4.29239889213732
H           -8.49899115079215       -0.73762683060351       -1.60642593114724
H           -9.62131498791078        0.49081863687896       -2.17804117169874
H           -8.81808761250167        0.70648080309744       -0.62761010920257
H           -6.89226351200321       -0.35720086856556       -0.05052802919453
H           -6.00757338831420       -1.61995636486548        2.11329093320183
H           -3.05384360227370       -4.10139485190077        4.54768142703628
H           -4.21675005856706       -4.68137898612339        3.35779090001005
H           -4.55370459354089       -4.85388365347733        5.08280339611196
H           -5.09906446481337       -2.76812509919198        6.47578700461150
H           -3.59491237730426       -2.02554823982834        5.93826842049348
H           -5.12377330943883       -1.18510179573556        5.69303225316045
H           -6.70022661100127       -3.72384872226877        4.90265140979964
H           -6.87403491904324       -2.15071046461166        4.13484044390601
H           -6.49763135569362       -3.58378168345705        3.16033100547499
H           -2.25488195230402       -2.04752280052998        4.14041554474739
H           -1.14685596378279       -0.64828347677126        2.48870932075430
H           -0.33452252348287       -0.99692726820744        0.24875910827463

 projected vibrational frequencies (cm⁻¹)
eigval :       -0.00    -0.00     0.00     0.00     0.00     0.00
eigval :        9.06     9.57    12.48    15.81    23.42    30.53
eigval :       30.57    32.49    33.58    34.68    42.73    47.69
eigval :       60.66    61.36    67.34    71.60    79.84    85.35
eigval :       87.78   106.56   113.68   130.37   145.88   152.90
eigval :      158.09   159.09   171.13   176.40   182.08   185.58
eigval :      194.40   201.04   201.45   210.07   216.72   219.03
eigval :      220.62   222.62   227.47   230.45   233.12   243.91
eigval :      253.39   257.70   258.02   273.45   283.32   286.92
eigval :      295.81   314.93   318.21   318.66   322.48   323.00
eigval :      328.05   336.76   338.11   344.07   349.35   357.58
eigval :      358.29   358.73   365.86   371.93   382.12   383.31
eigval :      393.90   396.90   402.86   407.01   407.56   426.45
eigval :      440.36   441.10   441.80   442.24   455.09   461.37
eigval :      462.35   463.31   465.93   466.02   498.30   509.93
eigval :      515.56   533.71   538.86   566.74   571.63   576.45
eigval :      583.13   585.88   591.00   596.91   606.01   617.36
eigval :      630.97   636.99   641.15   641.41   653.34   659.81
eigval :      670.37   690.21   690.69   701.45   708.39   709.19
eigval :      717.52   720.27   760.91   765.77   779.23   808.65
eigval :      819.04   823.18   824.48   830.51   832.09   833.20
eigval :      848.57   855.93   865.41   867.46   870.07   872.62
eigval :      872.85   873.92   875.24   887.36   900.10   911.17
eigval :      914.91   916.78   917.72   918.88   924.73   927.36
eigval :      931.74   933.70   960.39   960.39   960.49   960.51
eigval :      962.77   962.92   963.05   963.33   963.40   963.42
eigval :      963.45   963.53   963.71   979.39  1025.52  1029.28
eigval :     1032.81  1034.49  1035.19  1035.21  1035.33  1035.40
eigval :     1036.86  1038.86  1042.95  1046.07  1082.57  1111.58
eigval :     1115.78  1126.18  1128.58  1129.24  1136.84  1138.68
eigval :     1161.73  1166.87  1167.88  1176.41  1188.52  1205.61
eigval :     1217.57  1226.52  1226.69  1226.78  1226.91  1227.00
eigval :     1229.08  1230.75  1231.17  1232.25  1233.85  1233.91
eigval :     1235.63  1246.15  1251.42  1254.32  1261.15  1282.18
eigval :     1283.30  1294.94  1297.14  1299.18  1303.40  1306.50
eigval :     1334.65  1340.86  1341.97  1346.43  1349.24  1352.69
eigval :     1372.06  1386.88  1401.38  1401.81  1404.71  1404.81
eigval :     1405.98  1406.01  1406.11  1406.18  1406.48  1409.70
eigval :     1411.08  1416.10  1421.60  1429.58  1429.61  1429.66
eigval :     1429.72  1441.01  1446.92  1451.79  1465.74  1466.80
eigval :     1468.45  1479.87  1480.52  1491.49  1491.51  1491.82
eigval :     1491.83  1494.04  1494.06  1494.24  1494.43  1500.60
eigval :     1500.61  1500.67  1500.77  1501.84  1504.78  1504.83
eigval :     1505.13  1505.15  1511.01  1514.97  1515.04  1515.17
eigval :     1515.24  1519.69  1519.73  1520.39  1520.52  1552.24
eigval :     1562.45  1564.06  1575.80  1578.02  1583.46  1586.07
eigval :     1601.74  1608.94  3022.76  3022.77  3022.94  3023.00
eigval :     3024.51  3024.53  3024.62  3024.74  3027.47  3027.53
eigval :     3027.74  3027.81  3030.83  3030.94  3031.05  3031.30
eigval :     3032.00  3032.05  3032.14  3032.27  3035.90  3036.02
eigval :     3036.28  3036.38  3039.11  3039.20  3039.35  3039.54
eigval :     3048.61  3048.65  3050.07  3050.22  3051.78  3051.83
eigval :     3053.52  3053.65  3070.73  3073.33  3085.09  3085.23
eigval :     3086.49  3091.63  3094.32  3096.76  3097.05  3098.79
eigval :     3101.55  3102.25  3105.61  3109.85  3110.73  3116.98
eigval :     3117.26  3120.39  3120.77

   temp. (K)  partition function   enthalpy   heat capacity  entropy
                                   cal/mol     cal/K/mol   cal/K/mol   J/K/mol
 298.15  VIB  0.182E+26            32354.021    197.368    200.989
         ROT  0.160E+09              888.752      2.981     40.519
         INT  0.291E+34            33242.773    200.349    241.508
         TR   0.194E+29             1481.254      4.968     45.655
         TOT                       34724.0272   205.3168   287.1633  1201.4914

       T/K    H(0)-H(T)+PV         H(T)/Eh          T*S/Eh         G(T)/Eh
   ------------------------------------------------------------------------
    298.15    0.553363E-01    0.974030E+00    0.136441E+00    0.837589E+00
   ------------------------------------------------------------------------

         :::::::::::::::::::::::::::::::::::::::::::::::::::::
         ::                  THERMODYNAMIC                  ::
         :::::::::::::::::::::::::::::::::::::::::::::::::::::
         :: total free energy        -151.453060884106 Eh   ::
         ::.................................................::
         :: total energy             -152.290650316280 Eh   ::
         :: zero point energy           0.918693739011 Eh   ::
         :: G(RRHO) w/o ZPVE           -0.081104306837 Eh   ::
         :: G(RRHO) contrib.            0.837589432174 Eh   ::
         :::::::::::::::::::::::::::::::::::::::::::::::::::::

           -------------------------------------------------
          | TOTAL ENERGY             -152.290650316280 Eh   |
          | TOTAL ENTHALPY           -151.316620317574 Eh   |
          | TOTAL FREE ENERGY        -151.453060884106 Eh   |
          | GRADIENT NORM               0.000101946528 Eh/α |
           -------------------------------------------------

 * finished run on 2025/09/08 at 01:10:41.040
