   * xtb version 6.7.1 (edcfbbe) compiled by 'albert@albert-system' on 2024-07-22

   ID    Z sym.   atoms
    1    6 C      1-5, 7-13, 15-22, 24-34, 36-42, 44, 45
    2    7 N      6, 14, 43
    3    8 O      23
    4   16 S      35
    5    1 H      46-68

          program call               : xtb data2507/toluene/BTPBFCz/BTPBFCz_toluene_S0_finalOpt.xtbopt.xyz --gfn 2 --uhf 2 --gbsa toluene --ohess vtight --parallel 40 --molden --ceasefiles --namespace data2507/toluene/BTPBFCz/BTPBFCz_toluene_T1_preOpt
      * Solvation model:               GBSA
        Solvent                        toluene
        Solvent mass                       9.2140E+01 g/mol
          :  Hamiltonian                  GFN2-xTB          :
 * total energy  :  -113.5251806 Eh     change       -0.3605138E-08 Eh
 * total energy  :  -113.5288908 Eh     change       -0.3710162E-02 Eh
 * total energy  :  -113.5304935 Eh     change       -0.1602724E-02 Eh
 * total energy  :  -113.5308260 Eh     change       -0.3325123E-03 Eh
 * total energy  :  -113.5315823 Eh     change       -0.7562599E-03 Eh
 * total energy  :  -113.5319473 Eh     change       -0.3650074E-03 Eh
 * total energy  :  -113.5322665 Eh     change       -0.3192209E-03 Eh
 * total energy  :  -113.5325520 Eh     change       -0.2855137E-03 Eh
 * total energy  :  -113.5327446 Eh     change       -0.1925983E-03 Eh
 * total energy  :  -113.5328901 Eh     change       -0.1454178E-03 Eh
 * total energy  :  -113.5361976 Eh     change       -0.2745842E-06 Eh
 * total energy  :  -113.5361977 Eh     change       -0.1328881E-06 Eh
 * total energy  :  -113.5361979 Eh     change       -0.1914299E-06 Eh
 * total energy  :  -113.5361981 Eh     change       -0.1779870E-06 Eh
 * total energy  :  -113.5361982 Eh     change       -0.1642653E-06 Eh
 * total energy  :  -113.5361984 Eh     change       -0.1653877E-06 Eh
 * total energy  :  -113.5361985 Eh     change       -0.1598007E-06 Eh
 * total energy  :  -113.5361987 Eh     change       -0.1539016E-06 Eh
 * total energy  :  -113.5361987 Eh     change       -0.3675797E-07 Eh
   *** GEOMETRY OPTIMIZATION CONVERGED AFTER 380 ITERATIONS ***

 final structure:
================
68
 xtb: 6.7.1 (edcfbbe)
C            3.00989822635967        2.84348357327917       -1.18699758786892
C            2.86520827693836        1.49326203005748       -1.46296323771576
C            1.61276870245748        0.90993327236639       -1.43481966486825
C            0.48952905645787        1.67849955041620       -1.14195250107909
C           -0.83872500887930        1.06226930090341       -1.11105711134126
N           -0.93053336129549       -0.21052456646803       -0.81396322948316
C           -2.11765597891814       -0.87916236488977       -0.73631053297550
C           -2.08276503541116       -2.20739100663915       -0.20968003828048
C           -3.07405181544114       -3.17664710442684       -0.44779862381113
C           -2.91822950928675       -4.47454345918620       -0.02166826616469
C           -1.77081200618015       -4.86684814666059        0.66481352523133
C           -0.79430298594924       -3.92724429228231        0.94932878699044
C           -0.94524946757933       -2.61129951702347        0.54611701473749
N            0.00402547481559       -1.65477004990700        0.93576295741870
C           -0.26308213885592       -0.57284233309059        1.75721184361430
C           -1.46826468477964       -0.15986137349634        2.30438907008720
C           -1.45962205338060        0.98169721370966        3.08751676606977
C           -0.28400015179192        1.68630741492723        3.33071163496359
C            0.92687786312175        1.26150279298669        2.80933035182840
C            0.93792659564581        0.12247824639796        2.02090299188050
C            1.97388834492875       -0.60368463485845        1.34008592250393
C            3.33737266327467       -0.45538987735623        1.16660512000091
O            4.13632588340126        0.52046579494717        1.66487071904502
C            5.39260099671952        0.25753526941821        1.19771383378958
C            6.53282186383882        0.99849737603632        1.44480675794764
C            7.71198202424995        0.55719878580001        0.86716780406254
C            7.74915805388747       -0.58484789697574        0.06943499952220
C            6.60958866581185       -1.32480366787084       -0.17635308786187
C            5.41312876920010       -0.90205266821208        0.39411873513469
C            4.05801856911417       -1.37587232129784        0.37210113755258
C            3.41659980202259       -2.44989740702419       -0.25189176399382
C            2.05857015333425       -2.61592196312121       -0.09482927977831
C            1.35235865941011       -1.70330109565361        0.69552048772540
C           -3.26329023263382       -0.14772036817725       -1.10826365509988
S           -4.93235208674793       -0.64784259168265       -1.18093586033706
C           -5.43809985810313        0.97492665351673       -1.61515390964528
C           -6.73114761639806        1.39224522769662       -1.85878983284963
C           -6.94014868212889        2.71839959932457       -2.20067224058575
C           -5.86807317658726        3.60693806220799       -2.29571939211168
C           -4.57806680344984        3.19303085514117       -2.05399121761342
C           -4.34071296652278        1.85606587399929       -1.71080577751383
C           -3.10960111306560        1.21335197771022       -1.41353176305345
N           -1.89340385115498        1.80926168403280       -1.40457365323594
C            0.63782828456502        3.03824093443909       -0.88377395415066
C            1.89445669315964        3.61383461206499       -0.89744171955188
H            3.99099296612252        3.29519461810240       -1.20135179254809
H            3.73156512318477        0.89378066246509       -1.70249842271377
H            1.48772969753539       -0.14070037656385       -1.64962856288177
H           -3.95401977754967       -2.90353285619451       -1.00799556832781
H           -3.68978151742657       -5.19944621997844       -0.23405441399129
H           -1.65161873795264       -5.88749388381651        0.99197411825622
H            0.07843741691969       -4.20000281384663        1.52530071795709
H           -2.38190639590874       -0.70606400574658        2.12329952508326
H           -2.38586950288961        1.33117729606433        3.51888417567421
H           -0.31952356109154        2.57475983990842        3.94300874015565
H            1.84204462622032        1.79898972026413        3.00378353899022
H            6.49649990909169        1.88205316132069        2.06179968675731
H            8.62195649627265        1.11189487153845        1.03881416097400
H            8.68908295916396       -0.89403969434843       -0.36248335780787
H            6.63959915839022       -2.20848005904246       -0.79451297151185
H            3.98548936889952       -3.13463191478337       -0.86038241890252
H            1.53688409628155       -3.42486031901235       -0.58189124240272
H           -7.55461569596006        0.69865176053956       -1.78122786734883
H           -7.94331038212616        3.06585972612258       -2.39489569514060
H           -6.05735808008120        4.63553320748585       -2.56579204867652
H           -3.74072362914665        3.86987985617590       -2.12729903379069
H           -0.24146249033923        3.62568198158883       -0.66488834395699
H            2.00548803685802        4.66707393445600       -0.68517143512621

          :  Hamiltonian                  GFN2-xTB          :
         :: gradient norm              0.000074165306 Eh/a0 ::
         :: HOMO-LUMO gap              0.549396024221 eV    ::
         :: SCC energy              -115.541817126928 Eh    ::
         :: -> dispersion             -0.112146981087 Eh    ::
         :: -> Gsolv                  -0.046379096252 Eh    ::
         :: repulsion energy           2.005618388236 Eh    ::

    * Orbital Energies and Occupations

         #    Occupation            Energy/Eh            Energy/eV
      -------------------------------------------------------------
         1        2.0000           -0.7457403             -20.2926
       ...           ...                  ...                  ...
        94        2.0000           -0.4152547             -11.2997
        95        2.0000           -0.4130413             -11.2394
        96        2.0000           -0.4117573             -11.2045
        97        2.0000           -0.4097503             -11.1499
        98        2.0000           -0.4086198             -11.1191
        99        2.0000           -0.4060252             -11.0485
       100        2.0000           -0.4031565             -10.9704
       101        2.0000           -0.3993169             -10.8660
       102        2.0000           -0.3878506             -10.5540
       103        1.9999           -0.3801917             -10.3455
       104        1.9981           -0.3771994             -10.2641
       105        1.0020           -0.3653190              -9.9408
       106        1.0000           -0.2885010              -7.8505 (HOMO)
       107        0.0000           -0.2683112              -7.3011 (LUMO)
       108        0.0000           -0.2640189              -7.1843
       109                         -0.2530148              -6.8849
       110                         -0.2433835              -6.6228
       111                         -0.2337207              -6.3599
       112                         -0.2295828              -6.2473
       113                         -0.2295331              -6.2459
       114                         -0.2266682              -6.1680
       115                         -0.2237914              -6.0897
       116                         -0.2116658              -5.7597
       117                         -0.2021193              -5.4999
       ...                                ...                  ...
       208                          0.7518417              20.4587
      -------------------------------------------------------------
                  HL-Gap            0.0201898 Eh            0.5494 eV

     #   Z          covCN         q      C6AA      α(0)
     1   6 C        2.920    -0.026    28.647     8.777
     2   6 C        2.919    -0.028    28.690     8.784
     3   6 C        2.924    -0.029    28.721     8.789
     4   6 C        2.984    -0.000    28.032     8.685
     5   6 C        2.897     0.190    23.950     8.024
     6   7 N        1.858    -0.254    27.463     7.767
     7   6 C        2.937     0.065    26.541     8.449
     8   6 C        2.974    -0.009    28.245     8.718
     9   6 C        2.918    -0.044    29.086     8.844
    10   6 C        2.915    -0.030    28.741     8.791
    11   6 C        2.917    -0.043    29.061     8.840
    12   6 C        2.918    -0.040    28.997     8.830
    13   6 C        2.918     0.046    26.975     8.517
    14   7 N        2.807     0.016    20.969     6.801
    15   6 C        3.083     0.053    26.714     8.473
    16   6 C        2.910    -0.040    28.983     8.828
    17   6 C        2.923    -0.031    28.784     8.798
    18   6 C        2.921    -0.034    28.835     8.806
    19   6 C        2.912    -0.029    28.724     8.788
    20   6 C        3.061    -0.007    28.137     8.699
    21   6 C        3.065    -0.030    28.678     8.781
    22   6 C        3.097     0.132    25.017     8.197
    23   8 O        1.714    -0.227    17.764     5.691
    24   6 C        3.103     0.129    25.062     8.203
    25   6 C        2.908    -0.050    29.245     8.867
    26   6 C        2.926    -0.029    28.715     8.788
    27   6 C        2.920    -0.036    28.893     8.815
    28   6 C        2.912    -0.032    28.787     8.798
    29   6 C        3.058    -0.016    28.341     8.730
    30   6 C        3.051    -0.020    28.461     8.749
    31   6 C        2.914    -0.035    28.861     8.809
    32   6 C        2.911    -0.047    29.177     8.857
    33   6 C        3.071     0.049    26.823     8.492
    34   6 C        2.988     0.014    27.690     8.632
    35  16 S        2.217    -0.124   146.269    20.355
    36   6 C        3.005     0.029    27.335     8.576
    37   6 C        2.932    -0.041    29.009     8.833
    38   6 C        2.923    -0.039    28.976     8.827
    39   6 C        2.917    -0.035    28.872     8.811
    40   6 C        2.915    -0.036    28.889     8.814
    41   6 C        3.112    -0.019    28.316     8.717
    42   6 C        3.097     0.080    26.095     8.372
    43   7 N        1.843    -0.294    28.465     7.907
    44   6 C        2.924    -0.027    28.680     8.782
    45   6 C        2.919    -0.028    28.690     8.784
    46   1 H        0.926     0.043     2.404     2.424
    47   1 H        0.926     0.037     2.492     2.469
    48   1 H        0.926     0.037     2.486     2.466
    49   1 H        0.926     0.044     2.401     2.423
    50   1 H        0.926     0.041     2.441     2.443
    51   1 H        0.926     0.042     2.417     2.431
    52   1 H        0.926     0.043     2.415     2.430
    53   1 H        0.926     0.033     2.548     2.496
    54   1 H        0.926     0.042     2.420     2.433
    55   1 H        0.926     0.046     2.373     2.409
    56   1 H        0.926     0.049     2.328     2.386
    57   1 H        0.926     0.052     2.296     2.370
    58   1 H        0.926     0.050     2.314     2.379
    59   1 H        0.926     0.048     2.348     2.396
    60   1 H        0.926     0.049     2.329     2.386
    61   1 H        0.926     0.058     2.221     2.331
    62   1 H        0.926     0.053     2.277     2.360
    63   1 H        0.926     0.038     2.479     2.462
    64   1 H        0.926     0.037     2.483     2.464
    65   1 H        0.926     0.037     2.495     2.470
    66   1 H        0.926     0.037     2.484     2.464
    67   1 H        0.926     0.042     2.422     2.434
    68   1 H        0.926     0.044     2.401     2.423

molecular dipole:
                 x           y           z       tot (Debye)
 q only:        2.583      -0.753       0.793
   full:        2.231      -0.601       0.754       6.178

 projected vibrational frequencies (cm⁻¹)
eigval :       -0.00    -0.00    -0.00    -0.00     0.00     0.00
eigval :       13.39    17.56    29.28    41.06    45.73    53.17
eigval :       59.06    64.87    69.98    85.62    87.91   103.83
eigval :      109.32   128.18   130.08   144.74   154.09   172.29
eigval :      181.60   198.77   206.79   231.19   236.33   248.21
eigval :      260.99   265.87   281.13   296.15   312.04   333.30
eigval :      342.40   375.33   377.28   386.44   397.47   401.91
eigval :      406.08   409.78   418.06   432.53   441.36   453.15
eigval :      466.37   471.27   476.91   502.29   509.53   526.83
eigval :      538.35   540.28   542.17   558.88   562.65   580.01
eigval :      586.41   587.25   596.22   596.92   603.54   625.99
eigval :      636.20   640.54   648.20   656.97   666.07   672.95
eigval :      679.92   680.65   687.70   697.62   703.29   712.32
eigval :      719.30   757.14   761.08   766.99   773.05   777.63
eigval :      821.30   823.50   830.11   839.57   843.14   849.41
eigval :      859.21   859.95   870.07   873.39   879.12   892.91
eigval :      894.10   902.58   903.77   905.86   907.20   910.22
eigval :      911.35   912.50   921.60   925.00   929.51   935.22
eigval :      955.97   990.81   998.98  1029.38  1038.09  1059.85
eigval :     1065.07  1066.54  1073.04  1077.45  1087.59  1093.83
eigval :     1110.76  1121.09  1131.23  1135.65  1138.54  1161.63
eigval :     1168.49  1170.83  1173.92  1176.30  1180.38  1180.69
eigval :     1182.31  1195.94  1196.93  1202.86  1210.48  1230.43
eigval :     1235.72  1242.16  1254.45  1270.14  1272.34  1277.46
eigval :     1295.77  1300.72  1321.61  1326.30  1336.71  1339.55
eigval :     1344.99  1347.98  1350.81  1358.02  1378.05  1383.92
eigval :     1395.12  1401.88  1409.07  1416.66  1422.56  1425.42
eigval :     1431.03  1448.07  1454.08  1470.91  1473.52  1479.52
eigval :     1489.62  1507.32  1540.54  1550.97  1557.51  1574.91
eigval :     1575.89  1582.05  1583.01  1587.37  1595.00  1598.33
eigval :     1617.01  3072.14  3076.67  3076.89  3077.29  3080.49
eigval :     3083.18  3084.67  3085.38  3085.57  3086.16  3091.20
eigval :     3092.36  3093.52  3094.05  3094.99  3098.17  3099.08
eigval :     3099.69  3100.27  3101.60  3106.94  3108.22  3108.92

   temp. (K)  partition function   enthalpy   heat capacity  entropy
                                   cal/mol     cal/K/mol   cal/K/mol   J/K/mol
 298.15  VIB  0.998E+14            19630.223    128.635    120.053
         ROT  0.489E+08              888.752      2.981     38.165
         INT  0.488E+22            20518.975    131.615    158.217
         TR   0.140E+29             1481.254      4.968     45.007
         TOT                       22000.2290   136.5836   203.2244   850.2908

       T/K    H(0)-H(T)+PV         H(T)/Eh          T*S/Eh         G(T)/Eh
   ------------------------------------------------------------------------
    298.15    0.350596E-01    0.534072E+00    0.965585E-01    0.437513E+00
   ------------------------------------------------------------------------

         :::::::::::::::::::::::::::::::::::::::::::::::::::::
         ::                  THERMODYNAMIC                  ::
         :::::::::::::::::::::::::::::::::::::::::::::::::::::
         :: total free energy        -113.098685474330 Eh   ::
         ::.................................................::
         :: total energy             -113.536198740296 Eh   ::
         :: zero point energy           0.499012129076 Eh   ::
         :: G(RRHO) w/o ZPVE           -0.061498863110 Eh   ::
         :: G(RRHO) contrib.            0.437513265966 Eh   ::
         :::::::::::::::::::::::::::::::::::::::::::::::::::::

           -------------------------------------------------
          | TOTAL ENERGY             -113.536198740296 Eh   |
          | TOTAL ENTHALPY           -113.002127014621 Eh   |
          | TOTAL FREE ENERGY        -113.098685474330 Eh   |
          | GRADIENT NORM               0.000070642703 Eh/α |
          | HOMO-LUMO GAP               0.549392762429 eV   |
           -------------------------------------------------

 * finished run on 2025/09/13 at 05:30:27.702
