   * xtb version 6.7.1 (edcfbbe) compiled by 'albert@albert-system' on 2024-07-22

   ID    Z sym.   atoms
    1    6 C      1-5, 7-13, 15-22, 24-34, 36-42, 44, 45
    2    7 N      6, 14, 43
    3    8 O      23
    4   16 S      35
    5    1 H      46-68

          program call               : xtb data2507/toluene/BTPBFCz/BTPBFCz.xyz --gfn 2 --gbsa toluene --ohess vtight --parallel 40 --molden --ceasefiles --namespace data2507/toluene/BTPBFCz/BTPBFCz_toluene_S0_preOpt
      * Solvation model:               GBSA
        Solvent                        toluene
        Solvent mass                       9.2140E+01 g/mol
          :  Hamiltonian                  GFN2-xTB          :
 * total energy  :  -113.5831934 Eh     change       -0.4420414E-08 Eh
 * total energy  :  -113.6004419 Eh     change       -0.1724856E-01 Eh
 * total energy  :  -113.6059737 Eh     change       -0.5531788E-02 Eh
 * total energy  :  -113.6081825 Eh     change       -0.2208777E-02 Eh
 * total energy  :  -113.6099533 Eh     change       -0.1770832E-02 Eh
 * total energy  :  -113.6108981 Eh     change       -0.9447900E-03 Eh
 * total energy  :  -113.6114076 Eh     change       -0.5094534E-03 Eh
 * total energy  :  -113.6116944 Eh     change       -0.2868136E-03 Eh
 * total energy  :  -113.6118037 Eh     change       -0.1093512E-03 Eh
 * total energy  :  -113.6118496 Eh     change       -0.4582254E-04 Eh
 * total energy  :  -113.6138335 Eh     change       -0.5869154E-06 Eh
 * total energy  :  -113.6138339 Eh     change       -0.4304330E-06 Eh
 * total energy  :  -113.6138342 Eh     change       -0.3077193E-06 Eh
 * total energy  :  -113.6138345 Eh     change       -0.3124341E-06 Eh
 * total energy  :  -113.6138349 Eh     change       -0.3467826E-06 Eh
 * total energy  :  -113.6138353 Eh     change       -0.4391854E-06 Eh
 * total energy  :  -113.6138358 Eh     change       -0.4734537E-06 Eh
 * total energy  :  -113.6138362 Eh     change       -0.3703831E-06 Eh
 * total energy  :  -113.6138362 Eh     change       -0.2378627E-08 Eh
   *** GEOMETRY OPTIMIZATION CONVERGED AFTER 94 ITERATIONS ***

 final structure:
================
68
 xtb: 6.7.1 (edcfbbe)
C            2.54279784918882        3.10218267822801       -1.65307789140139
C            2.46372097750467        1.76902296591997       -2.02359642477217
C            1.29362946874553        1.06164002077996       -1.82583527339394
C            0.18358428622221        1.68812803918395       -1.26195193089402
C           -1.04886523848268        0.93470303934041       -1.02881257316727
N           -0.96882993102675       -0.39234454897690       -1.11504295632172
C           -2.03289058493077       -1.13480469500366       -0.84841411562284
C           -1.84099115338518       -2.59414440145051       -0.81764771878648
C           -2.69175493417611       -3.45975154029234       -1.49291180287703
C           -2.45292367797382       -4.82320553892022       -1.48370232641874
C           -1.36396851599908       -5.33370138162095       -0.79628772244212
C           -0.52172336690453       -4.48508951239763       -0.09718359812398
C           -0.75670856171291       -3.11803780284969       -0.09961629644645
N            0.06393924703499       -2.24359839097427        0.63971647133264
C           -0.41755997048104       -1.33220831530568        1.55626256337650
C           -1.65395481819058       -1.29076478827778        2.18452522575856
C           -1.88863635266257       -0.26092586923469        3.07599452008904
C           -0.91638232928985        0.70032764805786        3.34816479726704
C            0.32442291227664        0.65067211103170        2.74367087774520
C            0.57970980798979       -0.37253039380493        1.84024461697587
C            1.70648789450532       -0.72237973462585        1.02790574937684
C            2.96149805022651       -0.18363632638822        0.78579774533648
O            3.50704972704593        0.93057043496061        1.34441652751650
C            4.74298280865260        1.06847227160789        0.77926729826725
C            5.65951656912365        2.06939723341498        1.04328873682420
C            6.86206506513982        2.02465527269787        0.35851130391517
C            7.13803556277422        1.01264063658000       -0.55729510362408
C            6.22100956819613        0.01299590286093       -0.81908735404733
C            5.00646394710731        0.03771291750478       -0.14486112589796
C            3.82805023747913       -0.78803707721559       -0.14224519746511
C            3.44570058493701       -1.93308844103426       -0.84461825122658
C            2.19938817352436       -2.48029059461611       -0.63026943735878
C            1.34836591780305       -1.87729387344002        0.29474962157579
C           -3.24425130245534       -0.51034696788195       -0.55981460859260
S           -4.79130623077075       -1.20464227582593       -0.17163101396874
C           -5.47058699701281        0.39703277372495        0.07081125965556
C           -6.78038141142982        0.68001568956677        0.42293606523156
C           -7.14662898871401        2.00480343917133        0.56972476273113
C           -6.22613627644298        3.03170171333055        0.36965308548310
C           -4.92238204000874        2.75028866258536        0.01855473654561
C           -4.53366421189989        1.42188779739363       -0.13487829332237
C           -3.24331924547202        0.89909448700194       -0.49438616522448
N           -2.14866856752223        1.61173335428699       -0.71308845368789
C            0.26716003738095        3.03046828258470       -0.89661211116357
C            1.44323065150026        3.72998149875102       -1.08840955729220
H            3.46205258634288        3.64948562450158       -1.80195778174868
H            3.32024400841022        1.27900289492078       -2.46235336470783
H            1.22199620132896        0.02073380050767       -2.10039807534363
H           -3.52782356414651       -3.05768571903661       -2.04626819118204
H           -3.11589245392914       -5.48552938071469       -2.01869680777885
H           -1.17472571788398       -6.39625670909446       -0.79392905476863
H            0.31637758555209       -4.87452925970228        0.46118804644578
H           -2.40917180137818       -2.03726413508035        1.98183769039572
H           -2.84756968516133       -0.19800622835302        3.57025303710642
H           -1.14135738278262        1.49256917316332        4.04684865513757
H            1.08291398832426        1.38952085283410        2.95440360788868
H            5.43707890852244        2.84985994997166        1.75379322488296
H            7.60098538874507        2.79065535375787        0.53991582543623
H            8.08825021981268        1.01206975319342       -1.07047482356943
H            6.43781102011354       -0.77040978299044       -1.52912904564968
H            4.12281110834523       -2.37649870804888       -1.55791324314184
H            1.87607206664404       -3.35171019478409       -1.17839871362864
H           -7.48964934629209       -0.11815191303694        0.57659577459452
H           -8.16265552607329        2.24517744579720        0.84371704838418
H           -6.53939248641864        4.05733254888921        0.49099248038992
H           -4.19352032444278        3.52900898479918       -0.14240551251472
H           -0.59632078761167        3.50335502365526       -0.45482137309444
H            1.50519135659526        4.76796322448314       -0.79571506500583

          :  Hamiltonian                  GFN2-xTB          :
         :: gradient norm              0.000034304209 Eh/a0 ::
         :: HOMO-LUMO gap              2.010967837177 eV    ::
         :: SCC energy              -115.629144568843 Eh    ::
         :: -> dispersion             -0.114816824791 Eh    ::
         :: -> Gsolv                  -0.046236211153 Eh    ::
         :: repulsion energy           2.015308404556 Eh    ::

    * Orbital Energies and Occupations

         #    Occupation            Energy/Eh            Energy/eV
      -------------------------------------------------------------
         1        2.0000           -0.7440111             -20.2456
       ...           ...                  ...                  ...
        93        2.0000           -0.4227464             -11.5035
        94        2.0000           -0.4211769             -11.4608
        95        2.0000           -0.4191309             -11.4051
        96        2.0000           -0.4176682             -11.3653
        97        2.0000           -0.4131360             -11.2420
        98        2.0000           -0.4105784             -11.1724
        99        2.0000           -0.4092740             -11.1369
       100        2.0000           -0.4029783             -10.9656
       101        2.0000           -0.3959704             -10.7749
       102        2.0000           -0.3872845             -10.5385
       103        2.0000           -0.3775995             -10.2750
       104        2.0000           -0.3753480             -10.2137
       105        2.0000           -0.3658333              -9.9548 (HOMO)
       106                         -0.2919316              -7.9439 (LUMO)
       107                         -0.2788299              -7.5873
       108                         -0.2553940              -6.9496
       109                         -0.2492623              -6.7828
       110                         -0.2447547              -6.6601
       111                         -0.2442452              -6.6463
       112                         -0.2429636              -6.6114
       113                         -0.2280155              -6.2046
       114                         -0.2235798              -6.0839
       115                         -0.2185911              -5.9482
       116                         -0.2172021              -5.9104
       ...                                ...                  ...
       208                          0.7629447              20.7608
      -------------------------------------------------------------
                  HL-Gap            0.0739017 Eh            2.0110 eV

     #   Z          covCN         q      C6AA      α(0)
     1   6 C        2.920    -0.024    28.611     8.771
     2   6 C        2.918    -0.027    28.686     8.783
     3   6 C        2.924    -0.027    28.681     8.782
     4   6 C        2.984    -0.002    28.072     8.691
     5   6 C        2.949     0.192    23.903     8.019
     6   7 N        1.854    -0.293    28.452     7.906
     7   6 C        2.967     0.121    25.343     8.258
     8   6 C        2.982    -0.008    28.221     8.714
     9   6 C        2.922    -0.029    28.725     8.789
    10   6 C        2.918    -0.028    28.709     8.786
    11   6 C        2.919    -0.024    28.609     8.771
    12   6 C        2.920    -0.040    28.992     8.830
    13   6 C        2.920     0.070    26.426     8.430
    14   7 N        2.804    -0.048    22.168     6.993
    15   6 C        3.088     0.054    26.700     8.470
    16   6 C        2.910    -0.055    29.377     8.888
    17   6 C        2.924    -0.038    28.936     8.821
    18   6 C        2.920    -0.043    29.075     8.842
    19   6 C        2.912    -0.036    28.899     8.815
    20   6 C        3.063    -0.014    28.299     8.723
    21   6 C        3.067    -0.038    28.874     8.811
    22   6 C        3.097     0.124    25.168     8.222
    23   8 O        1.714    -0.243    18.022     5.732
    24   6 C        3.101     0.125    25.150     8.218
    25   6 C        2.908    -0.053    29.328     8.880
    26   6 C        2.926    -0.035    28.863     8.810
    27   6 C        2.920    -0.039    28.976     8.827
    28   6 C        2.913    -0.036    28.903     8.816
    29   6 C        3.059    -0.019    28.418     8.742
    30   6 C        3.051    -0.033    28.768     8.796
    31   6 C        2.916    -0.038    28.943     8.822
    32   6 C        2.911    -0.059    29.462     8.901
    33   6 C        3.077     0.054    26.703     8.472
    34   6 C        2.989    -0.001    28.043     8.687
    35  16 S        2.195    -0.100   145.222    20.282
    36   6 C        3.005     0.039    27.105     8.540
    37   6 C        2.933    -0.036    28.902     8.817
    38   6 C        2.924    -0.024    28.592     8.769
    39   6 C        2.919    -0.030    28.751     8.793
    40   6 C        2.916    -0.024    28.591     8.768
    41   6 C        3.101    -0.015    28.260     8.711
    42   6 C        3.111     0.108    25.480     8.269
    43   7 N        1.840    -0.297    28.545     7.918
    44   6 C        2.924    -0.028    28.698     8.785
    45   6 C        2.918    -0.028    28.689     8.783
    46   1 H        0.926     0.043     2.403     2.424
    47   1 H        0.926     0.040     2.451     2.448
    48   1 H        0.926     0.045     2.381     2.413
    49   1 H        0.926     0.045     2.388     2.417
    50   1 H        0.926     0.055     2.256     2.349
    51   1 H        0.926     0.058     2.228     2.334
    52   1 H        0.926     0.056     2.252     2.347
    53   1 H        0.926     0.020     2.736     2.587
    54   1 H        0.926     0.030     2.591     2.517
    55   1 H        0.926     0.032     2.552     2.498
    56   1 H        0.926     0.035     2.514     2.479
    57   1 H        0.926     0.044     2.402     2.424
    58   1 H        0.926     0.043     2.405     2.425
    59   1 H        0.926     0.041     2.430     2.438
    60   1 H        0.926     0.042     2.425     2.435
    61   1 H        0.926     0.047     2.358     2.401
    62   1 H        0.926     0.041     2.434     2.440
    63   1 H        0.926     0.053     2.279     2.361
    64   1 H        0.926     0.056     2.246     2.344
    65   1 H        0.926     0.053     2.280     2.361
    66   1 H        0.926     0.055     2.262     2.352
    67   1 H        0.926     0.048     2.342     2.393
    68   1 H        0.926     0.044     2.394     2.420

molecular dipole:
                 x           y           z       tot (Debye)
 q only:       -0.478      -0.631      -0.520
   full:       -0.820      -0.572      -0.428       2.763

 projected vibrational frequencies (cm⁻¹)
eigval :       -0.00    -0.00    -0.00    -0.00    -0.00     0.00
eigval :        9.03    16.82    24.57    35.49    38.95    50.01
eigval :       57.47    59.11    70.49    74.12    78.97   101.18
eigval :      106.42   124.16   134.65   145.89   149.77   175.95
eigval :      180.65   200.77   213.63   233.37   244.62   257.34
eigval :      264.77   275.91   288.22   291.45   311.23   320.76
eigval :      345.24   371.31   376.84   395.02   397.86   410.23
eigval :      413.54   415.01   425.78   435.23   440.37   449.51
eigval :      467.92   476.58   480.88   505.71   509.26   534.16
eigval :      540.16   543.40   557.90   564.48   584.21   588.08
eigval :      596.50   600.81   607.71   610.69   623.58   630.07
eigval :      644.15   652.48   664.80   675.25   680.59   687.15
eigval :      689.57   698.53   703.18   709.78   716.78   724.76
eigval :      732.59   773.79   775.60   776.33   776.87   782.07
eigval :      816.54   826.53   838.03   842.87   858.26   860.44
eigval :      867.71   873.90   876.72   878.96   883.52   892.06
eigval :      898.58   903.13   909.70   910.17   914.34   918.43
eigval :      918.90   920.73   922.87   928.90   932.02   936.01
eigval :      972.04   999.89  1008.08  1034.21  1060.38  1061.47
eigval :     1067.41  1069.79  1077.10  1086.63  1093.03  1101.01
eigval :     1112.77  1125.52  1138.36  1140.70  1143.19  1170.75
eigval :     1172.64  1174.34  1175.65  1178.30  1181.23  1183.03
eigval :     1193.93  1201.07  1202.30  1210.87  1226.93  1239.11
eigval :     1244.42  1245.70  1262.35  1272.52  1274.55  1301.02
eigval :     1307.45  1309.58  1326.25  1329.54  1334.53  1345.99
eigval :     1351.90  1359.09  1362.69  1395.08  1398.25  1401.37
eigval :     1412.46  1417.87  1430.22  1431.67  1443.58  1457.93
eigval :     1460.98  1467.64  1473.01  1473.54  1484.34  1508.78
eigval :     1517.23  1564.16  1566.81  1570.46  1580.15  1581.46
eigval :     1583.58  1587.34  1591.55  1594.77  1600.50  1607.89
eigval :     1626.74  3065.38  3074.99  3075.02  3078.94  3081.04
eigval :     3081.18  3083.40  3086.23  3087.48  3088.06  3089.75
eigval :     3090.49  3093.90  3094.45  3094.54  3095.15  3100.59
eigval :     3101.95  3102.06  3103.80  3103.85  3105.40  3107.20

   temp. (K)  partition function   enthalpy   heat capacity  entropy
                                   cal/mol     cal/K/mol   cal/K/mol   J/K/mol
 298.15  VIB  0.286E+15            19500.943    126.651    120.049
         ROT  0.452E+08              888.752      2.981     38.010
         INT  0.129E+23            20389.695    129.632    158.059
         TR   0.140E+29             1481.254      4.968     45.007
         TOT                       21870.9488   134.5997   203.0655   849.6259

       T/K    H(0)-H(T)+PV         H(T)/Eh          T*S/Eh         G(T)/Eh
   ------------------------------------------------------------------------
    298.15    0.348536E-01    0.536896E+00    0.964830E-01    0.440413E+00
   ------------------------------------------------------------------------

         :::::::::::::::::::::::::::::::::::::::::::::::::::::
         ::                  THERMODYNAMIC                  ::
         :::::::::::::::::::::::::::::::::::::::::::::::::::::
         :: total free energy        -113.173423575183 Eh   ::
         ::.................................................::
         :: total energy             -113.613836166717 Eh   ::
         :: zero point energy           0.502041970087 Eh   ::
         :: G(RRHO) w/o ZPVE           -0.061629378553 Eh   ::
         :: G(RRHO) contrib.            0.440412591534 Eh   ::
         :::::::::::::::::::::::::::::::::::::::::::::::::::::

           -------------------------------------------------
          | TOTAL ENERGY             -113.613836166717 Eh   |
          | TOTAL ENTHALPY           -113.076940621181 Eh   |
          | TOTAL FREE ENERGY        -113.173423575183 Eh   |
          | GRADIENT NORM               0.000034307950 Eh/α |
          | HOMO-LUMO GAP               2.010968319872 eV   |
           -------------------------------------------------

 * finished run on 2025/09/13 at 05:26:31.462
