   * xtb version 6.7.1 (edcfbbe) compiled by 'albert@albert-system' on 2024-07-22

   ID    Z sym.   atoms
    1    6 C      1-5, 7-13, 15-22, 24-34, 36-42, 44, 45
    2    7 N      6, 14, 43
    3    8 O      23
    4   16 S      35
    5    1 H      46-68

          program call               : xtb data2507/toluene/BTPBFCz/BTPBFCz_toluene_S0_crest.xyz --gfn 2 --gbsa toluene --ohess vtight --parallel 40 --molden --ceasefiles --namespace data2507/toluene/BTPBFCz/BTPBFCz_toluene_S0_finalOpt
      * Solvation model:               GBSA
        Solvent                        toluene
        Solvent mass                       9.2140E+01 g/mol
          :  Hamiltonian                  GFN2-xTB          :
 * total energy  :  -113.6125915 Eh     change       -0.7502422E-08 Eh
 * total energy  :  -113.6126780 Eh     change       -0.8641750E-04 Eh
 * total energy  :  -113.6127675 Eh     change       -0.8955148E-04 Eh
 * total energy  :  -113.6128195 Eh     change       -0.5198200E-04 Eh
 * total energy  :  -113.6129000 Eh     change       -0.8055909E-04 Eh
 * total energy  :  -113.6130007 Eh     change       -0.1006499E-03 Eh
 * total energy  :  -113.6130807 Eh     change       -0.7996052E-04 Eh
 * total energy  :  -113.6131653 Eh     change       -0.8468516E-04 Eh
 * total energy  :  -113.6131997 Eh     change       -0.3434783E-04 Eh
 * total energy  :  -113.6132449 Eh     change       -0.4520148E-04 Eh
 * total energy  :  -113.6137954 Eh     change       -0.8631394E-06 Eh
 * total energy  :  -113.6137963 Eh     change       -0.8391843E-06 Eh
 * total energy  :  -113.6137971 Eh     change       -0.8165860E-06 Eh
 * total energy  :  -113.6137979 Eh     change       -0.7899431E-06 Eh
 * total energy  :  -113.6137987 Eh     change       -0.7696132E-06 Eh
 * total energy  :  -113.6137994 Eh     change       -0.7498151E-06 Eh
 * total energy  :  -113.6138001 Eh     change       -0.7388465E-06 Eh
 * total energy  :  -113.6138009 Eh     change       -0.7285809E-06 Eh
 * total energy  :  -113.6138009 Eh     change       -0.6634224E-08 Eh
   *** GEOMETRY OPTIMIZATION CONVERGED AFTER 122 ITERATIONS ***

 final structure:
================
68
 xtb: 6.7.1 (edcfbbe)
C            3.44662552498361        2.25524466761776       -2.01863252888422
C            3.13373804635707        0.91670779449246       -2.19498816574575
C            1.84774755826734        0.46834391388071       -1.96368717224977
C            0.85612603186063        1.36188674562605       -1.56273984394160
C           -0.50135574393441        0.88369823137280       -1.29967281244795
N           -0.66209628071765       -0.43349294588764       -1.17861105674746
C           -1.85583496280680       -0.92617219897228       -0.88475045398487
C           -1.93065609510718       -2.37201255215090       -0.61280067626390
C           -2.84899540403409       -3.19751855415733       -1.24691782364545
C           -2.84766895956801       -4.55990477949258       -0.99980496786594
C           -1.93212939930297       -5.10622740731450       -0.11547309303344
C           -1.02783501576776       -4.29031138863537        0.54476519217388
C           -1.02635951193346       -2.92492367205985        0.30459488298698
N           -0.15315708742571       -2.06227690822105        0.99928293365278
C           -0.58952212172939       -0.95940017092879        1.70455372859125
C           -1.85817333704817       -0.67888882582059        2.19092550947203
C           -2.03551152027754        0.50623153127975        2.87965580404656
C           -0.97785981710208        1.38985132857093        3.08931207751635
C            0.29169696860270        1.10589593643908        2.62519643023563
C            0.49190161118597       -0.07846031819015        1.92818836219827
C            1.62774996479626       -0.68212791934706        1.29747445427285
C            2.95380127396334       -0.33010629523866        1.09541247166430
O            3.58240438467122        0.80188484511060        1.51309499737762
C            4.86579724068160        0.71041172590078        1.05445281155715
C            5.86974299195757        1.64364070078964        1.23493492854296
C            7.10757274192787        1.35750957960656        0.68466900853105
C            7.33295231354338        0.17681801887736       -0.01827553349075
C            6.32838145230820       -0.75494478967110       -0.19595490416533
C            5.07669887695100       -0.48869096676743        0.34495555429642
C            3.81202236903276       -1.17485246784378        0.36957822534528
C            3.35035321524245       -2.37809060485377       -0.16866648151293
C            2.03291240930353       -2.74288811199748        0.00527971997284
C            1.19002789030552       -1.90013387943399        0.72788980206299
C           -2.94444969999392       -0.06322671179115       -0.78690203180651
S           -4.60903721263417       -0.40771975184608       -0.41940545329641
C           -4.99031064251278        1.30673140924396       -0.45283292350239
C           -6.23784218145557        1.86681828628092       -0.23011252652506
C           -6.35775400120499        3.24249675512982       -0.29217943480047
C           -5.25597405562519        4.04862061239527       -0.57173217204355
C           -4.01430841657930        3.49130360542299       -0.79499621982550
C           -3.87234442000366        2.10729499213988       -0.73541797171014
C           -2.68645163606265        1.31698348675183       -0.92563476738100
N           -1.47046420559878        1.78371455385743       -1.16592634847232
C            1.17510468119962        2.70771024523620       -1.39225604229480
C            2.46560384159856        3.14822679904016       -1.61591838191101
H            4.45535935043326        2.60031658374649       -2.19162492081025
H            3.89766243623090        0.22079430798264       -2.50791855511753
H            1.59222306866000       -0.57273410806352       -2.08566935484441
H           -3.54845948121644       -2.77162543023618       -1.95135157219927
H           -3.56048684700062       -5.19470732390034       -1.50318877715444
H           -1.92838318203534       -6.16925759624475        0.07129810658293
H           -0.32564495153803       -4.70235920410953        1.25389694848636
H           -2.67996896699946       -1.36293746633263        2.03220322452006
H           -3.01562960074889        0.75438413036285        3.26108030870826
H           -1.15926988618174        2.30900024751447        3.62655532565048
H            1.11512116781862        1.78477876091536        2.78874398080579
H            5.68590413743033        2.55549034641638        1.78090023077280
H            7.91437276118151        2.06473654886382        0.80548641999497
H            8.31291901902551       -0.01032036408664       -0.43174110021371
H            6.50638871096009       -1.66903270677622       -0.74145921718774
H            4.02343210843543       -3.00910717899708       -0.72779189911341
H            1.65054132796440       -3.65705506708667       -0.42183432169430
H           -7.08803002303864        1.23909420273254       -0.01381327241202
H           -7.32130604307768        3.69757525210595       -0.12011283606210
H           -5.37838458290343        5.12009972358534       -0.61367283724077
H           -3.14793464143627        4.09558620966008       -1.01367527643304
H            0.40096513494604        3.38911948622815       -1.07456479620656
H            2.71003808142635        4.19082279022352       -1.47424687910382

          :  Hamiltonian                  GFN2-xTB          :
         :: gradient norm              0.000072319254 Eh/a0 ::
         :: HOMO-LUMO gap              2.033553829678 eV    ::
         :: SCC energy              -115.629372007225 Eh    ::
         :: -> dispersion             -0.115919238245 Eh    ::
         :: -> Gsolv                  -0.046082192771 Eh    ::
         :: repulsion energy           2.015571131369 Eh    ::

    * Orbital Energies and Occupations

         #    Occupation            Energy/Eh            Energy/eV
      -------------------------------------------------------------
         1        2.0000           -0.7440052             -20.2454
       ...           ...                  ...                  ...
        93        2.0000           -0.4229173             -11.5082
        94        2.0000           -0.4210463             -11.4573
        95        2.0000           -0.4195137             -11.4155
        96        2.0000           -0.4176835             -11.3657
        97        2.0000           -0.4133011             -11.2465
        98        2.0000           -0.4105679             -11.1721
        99        2.0000           -0.4096325             -11.1467
       100        2.0000           -0.4029521             -10.9649
       101        2.0000           -0.3961144             -10.7788
       102        2.0000           -0.3873477             -10.5403
       103        2.0000           -0.3780004             -10.2859
       104        2.0000           -0.3750803             -10.2065
       105        2.0000           -0.3662942              -9.9674 (HOMO)
       106                         -0.2915625              -7.9338 (LUMO)
       107                         -0.2787175              -7.5843
       108                         -0.2554143              -6.9502
       109                         -0.2490900              -6.7781
       110                         -0.2447631              -6.6603
       111                         -0.2444871              -6.6528
       112                         -0.2430582              -6.6139
       113                         -0.2280351              -6.2052
       114                         -0.2237855              -6.0895
       115                         -0.2199715              -5.9857
       116                         -0.2174494              -5.9171
       ...                                ...                  ...
       208                          0.7629686              20.7614
      -------------------------------------------------------------
                  HL-Gap            0.0747317 Eh            2.0336 eV

     #   Z          covCN         q      C6AA      α(0)
     1   6 C        2.920    -0.025    28.620     8.773
     2   6 C        2.918    -0.028    28.695     8.784
     3   6 C        2.924    -0.028    28.691     8.784
     4   6 C        2.985    -0.002    28.075     8.692
     5   6 C        2.949     0.193    23.892     8.017
     6   7 N        1.854    -0.294    28.475     7.909
     7   6 C        2.968     0.121    25.330     8.255
     8   6 C        2.983    -0.008    28.214     8.713
     9   6 C        2.921    -0.029    28.721     8.788
    10   6 C        2.918    -0.028    28.704     8.786
    11   6 C        2.920    -0.024    28.613     8.772
    12   6 C        2.919    -0.040    28.984     8.829
    13   6 C        2.921     0.070    26.423     8.430
    14   7 N        2.803    -0.052    22.241     7.004
    15   6 C        3.089     0.053    26.709     8.471
    16   6 C        2.910    -0.056    29.384     8.889
    17   6 C        2.924    -0.038    28.937     8.822
    18   6 C        2.920    -0.043    29.077     8.843
    19   6 C        2.912    -0.036    28.904     8.816
    20   6 C        3.062    -0.014    28.309     8.725
    21   6 C        3.067    -0.038    28.882     8.812
    22   6 C        3.098     0.124    25.175     8.223
    23   8 O        1.714    -0.244    18.033     5.734
    24   6 C        3.101     0.124    25.153     8.218
    25   6 C        2.908    -0.054    29.329     8.880
    26   6 C        2.926    -0.035    28.864     8.811
    27   6 C        2.920    -0.039    28.976     8.827
    28   6 C        2.913    -0.036    28.899     8.815
    29   6 C        3.059    -0.019    28.417     8.742
    30   6 C        3.051    -0.033    28.771     8.797
    31   6 C        2.916    -0.038    28.939     8.821
    32   6 C        2.911    -0.059    29.457     8.900
    33   6 C        3.076     0.055    26.679     8.468
    34   6 C        2.989    -0.001    28.042     8.687
    35  16 S        2.195    -0.099   145.197    20.281
    36   6 C        3.005     0.039    27.103     8.540
    37   6 C        2.933    -0.036    28.901     8.817
    38   6 C        2.924    -0.024    28.592     8.769
    39   6 C        2.919    -0.030    28.751     8.793
    40   6 C        2.916    -0.023    28.591     8.768
    41   6 C        3.101    -0.015    28.262     8.712
    42   6 C        3.112     0.108    25.475     8.269
    43   7 N        1.840    -0.297    28.557     7.920
    44   6 C        2.924    -0.028    28.693     8.784
    45   6 C        2.918    -0.027    28.688     8.783
    46   1 H        0.926     0.043     2.403     2.424
    47   1 H        0.926     0.042     2.429     2.437
    48   1 H        0.926     0.046     2.375     2.410
    49   1 H        0.926     0.044     2.395     2.420
    50   1 H        0.926     0.055     2.252     2.347
    51   1 H        0.926     0.058     2.226     2.333
    52   1 H        0.926     0.056     2.249     2.345
    53   1 H        0.926     0.021     2.712     2.575
    54   1 H        0.926     0.030     2.583     2.513
    55   1 H        0.926     0.032     2.554     2.499
    56   1 H        0.926     0.035     2.520     2.482
    57   1 H        0.926     0.044     2.402     2.424
    58   1 H        0.926     0.044     2.402     2.424
    59   1 H        0.926     0.042     2.425     2.435
    60   1 H        0.926     0.042     2.421     2.433
    61   1 H        0.926     0.047     2.353     2.399
    62   1 H        0.926     0.041     2.432     2.439
    63   1 H        0.926     0.054     2.276     2.359
    64   1 H        0.926     0.056     2.244     2.342
    65   1 H        0.926     0.053     2.279     2.361
    66   1 H        0.926     0.055     2.262     2.352
    67   1 H        0.926     0.048     2.349     2.397
    68   1 H        0.926     0.044     2.399     2.422

molecular dipole:
                 x           y           z       tot (Debye)
 q only:       -0.500      -0.638      -0.460
   full:       -0.827      -0.505      -0.407       2.671

 projected vibrational frequencies (cm⁻¹)
eigval :       -0.00    -0.00    -0.00     0.00     0.00     0.00
eigval :       14.12    19.65    32.09    32.38    46.02    51.35
eigval :       57.36    61.98    73.33    75.19    81.33   102.08
eigval :      105.73   124.33   136.49   146.34   151.64   175.02
eigval :      182.70   199.73   214.42   232.67   246.15   257.30
eigval :      265.87   277.05   288.39   290.99   312.02   320.31
eigval :      345.52   369.19   377.39   395.79   401.78   409.87
eigval :      413.43   414.23   424.72   436.67   440.24   449.31
eigval :      467.12   478.51   480.56   505.43   509.80   534.23
eigval :      542.04   543.54   559.12   564.63   583.98   588.12
eigval :      596.01   600.62   608.10   611.11   623.74   630.62
eigval :      643.79   652.25   664.83   675.21   680.93   689.30
eigval :      689.64   698.24   703.38   710.24   717.30   725.12
eigval :      731.47   776.24   776.70   777.15   778.46   782.39
eigval :      816.83   826.87   838.09   842.76   858.24   860.70
eigval :      869.42   873.43   878.30   878.85   884.40   892.24
eigval :      900.96   902.49   910.28   913.04   914.51   918.58
eigval :      922.63   923.55   926.08   927.88   930.31   935.46
eigval :      972.08  1000.16  1008.03  1033.59  1058.95  1061.33
eigval :     1066.23  1072.09  1077.03  1084.71  1093.54  1100.83
eigval :     1111.78  1124.44  1138.99  1141.60  1142.64  1171.08
eigval :     1171.80  1173.17  1176.80  1177.96  1180.23  1181.42
eigval :     1193.35  1200.54  1202.93  1212.13  1225.84  1239.45
eigval :     1244.65  1246.97  1261.93  1272.27  1275.16  1300.79
eigval :     1306.87  1309.35  1326.27  1329.84  1334.96  1345.32
eigval :     1352.24  1359.01  1362.42  1395.07  1398.03  1401.12
eigval :     1412.16  1417.76  1431.66  1431.72  1443.77  1457.85
eigval :     1460.51  1467.39  1473.00  1474.20  1484.00  1509.89
eigval :     1516.86  1564.36  1567.48  1570.76  1580.17  1581.88
eigval :     1583.66  1588.04  1591.86  1594.77  1600.89  1608.02
eigval :     1627.21  3068.19  3075.89  3076.36  3079.35  3081.91
eigval :     3082.39  3083.96  3086.52  3087.06  3087.43  3089.86
eigval :     3091.40  3094.25  3094.39  3094.45  3094.77  3100.96
eigval :     3101.43  3102.62  3102.80  3103.00  3106.08  3106.99

   temp. (K)  partition function   enthalpy   heat capacity  entropy
                                   cal/mol     cal/K/mol   cal/K/mol   J/K/mol
 298.15  VIB  0.985E+14            19445.719    126.896    119.096
         ROT  0.443E+08              888.752      2.981     37.968
         INT  0.436E+22            20334.472    129.877    157.064
         TR   0.140E+29             1481.254      4.968     45.007
         TOT                       21815.7256   134.8451   202.0709   845.4647

       T/K    H(0)-H(T)+PV         H(T)/Eh          T*S/Eh         G(T)/Eh
   ------------------------------------------------------------------------
    298.15    0.347656E-01    0.536981E+00    0.960104E-01    0.440970E+00
   ------------------------------------------------------------------------

         :::::::::::::::::::::::::::::::::::::::::::::::::::::
         ::                  THERMODYNAMIC                  ::
         :::::::::::::::::::::::::::::::::::::::::::::::::::::
         :: total free energy        -113.172830440175 Eh   ::
         ::.................................................::
         :: total energy             -113.613800874019 Eh   ::
         :: zero point energy           0.502215278476 Eh   ::
         :: G(RRHO) w/o ZPVE           -0.061244844632 Eh   ::
         :: G(RRHO) contrib.            0.440970433844 Eh   ::
         :::::::::::::::::::::::::::::::::::::::::::::::::::::

           -------------------------------------------------
          | TOTAL ENERGY             -113.613800874019 Eh   |
          | TOTAL ENTHALPY           -113.076820023881 Eh   |
          | TOTAL FREE ENERGY        -113.172830440175 Eh   |
          | GRADIENT NORM               0.000072320004 Eh/α |
          | HOMO-LUMO GAP               2.033554048086 eV   |
           -------------------------------------------------

 * finished run on 2025/09/13 at 05:30:02.987
