   * xtb version 6.7.1 (edcfbbe) compiled by 'albert@albert-system' on 2024-07-22

   ID    Z sym.   atoms
    1    6 C      1-5, 7-13, 15-22, 24-34, 36-42, 44, 45
    2    7 N      6, 14, 43
    3    8 O      23
    4   16 S      35
    5    1 H      46-68

          program call               : xtb data2507/toluene/BTPBFCz/BTPBFCz_toluene_T1_crest.xyz --gfn 2 --uhf 2 --gbsa toluene --ohess vtight --parallel 40 --molden --ceasefiles --namespace data2507/toluene/BTPBFCz/BTPBFCz_toluene_T1_finalOpt
      * Solvation model:               GBSA
        Solvent                        toluene
        Solvent mass                       9.2140E+01 g/mol
          :  Hamiltonian                  GFN2-xTB          :
 * total energy  :  -113.5352531 Eh     change       -0.2553236E-08 Eh
 * total energy  :  -113.5353346 Eh     change       -0.8142993E-04 Eh
 * total energy  :  -113.5354156 Eh     change       -0.8101852E-04 Eh
 * total energy  :  -113.5354589 Eh     change       -0.4328186E-04 Eh
 * total energy  :  -113.5355332 Eh     change       -0.7430967E-04 Eh
 * total energy  :  -113.5356377 Eh     change       -0.1045023E-03 Eh
 * total energy  :  -113.5357266 Eh     change       -0.8895332E-04 Eh
 * total energy  :  -113.5358026 Eh     change       -0.7597112E-04 Eh
 * total energy  :  -113.5358640 Eh     change       -0.6142195E-04 Eh
 * total energy  :  -113.5359083 Eh     change       -0.4430336E-04 Eh
 * total energy  :  -113.5361295 Eh     change       -0.1579303E-05 Eh
 * total energy  :  -113.5361313 Eh     change       -0.1776205E-05 Eh
 * total energy  :  -113.5361332 Eh     change       -0.1955602E-05 Eh
 * total energy  :  -113.5361353 Eh     change       -0.2040001E-05 Eh
 * total energy  :  -113.5361372 Eh     change       -0.1941007E-05 Eh
 * total energy  :  -113.5361390 Eh     change       -0.1806446E-05 Eh
 * total energy  :  -113.5361406 Eh     change       -0.1591705E-05 Eh
 * total energy  :  -113.5361420 Eh     change       -0.1381073E-05 Eh
 * total energy  :  -113.5361420 Eh     change       -0.7491010E-08 Eh
   *** GEOMETRY OPTIMIZATION CONVERGED AFTER 44 ITERATIONS ***

 final structure:
================
68
 xtb: 6.7.1 (edcfbbe)
C            2.60805009544261        3.27517798732545       -1.04149948887090
C            2.50782525953052        1.98964126053321       -1.54904447358319
C            1.31921152096869        1.29265539578451       -1.44318101336329
C            0.21347178009431        1.88376793070540       -0.83806964103953
C           -1.04770781784815        1.14820570721312       -0.72434712603908
N           -1.00611012428969       -0.16059897003845       -0.67806450648819
C           -2.11785211516412       -0.94150652851858       -0.55078825441193
C           -1.91097150146063       -2.33664677907136       -0.31631329110391
C           -2.85896056057046       -3.33278880738339       -0.61093844921773
C           -2.55038590668766       -4.66724597100293       -0.48985994237027
C           -1.28669533313902       -5.07080497448945       -0.06316356739848
C           -0.34442309703516       -4.11358770203534        0.27343699210757
C           -0.64508171706788       -2.76551215490811        0.17562909920688
N            0.28471675021158       -1.81189654032002        0.61509791049962
C            0.06633817769086       -0.92215835474863        1.65282513600955
C           -1.06541344705906       -0.74104496210972        2.43330598841174
C           -1.02551277600060        0.24783132813366        3.40129173623501
C            0.11220302509434        1.02532572143425        3.59843767643399
C            1.25599945094340        0.82591507826389        2.84311933361048
C            1.23437139801665       -0.15725712785497        1.86743094205569
C            2.20389415215136       -0.64189709679406        0.92455060542375
C            3.50580290185428       -0.31977844038115        0.58917708647692
O            4.29112224069351        0.63961858380691        1.13835843523616
C            5.47363290409164        0.59818055655169        0.45616276505168
C            6.57223025383103        1.40983516782431        0.66693296079602
C            7.67602594358610        1.20398672878991       -0.14424107862327
C            7.68087644351131        0.22016686808242       -1.13120976248838
C            6.58280892702318       -0.59031303262409       -1.34098712748822
C            5.46154182308488       -0.40180114640795       -0.53918832461073
C            4.16335644455275       -1.00920884209813       -0.45485324331881
C            3.51935714975047       -2.02354663271850       -1.16932956995821
C            2.22053014436592       -2.35763386912803       -0.85608339175867
C            1.57767538395518       -1.67467346232716        0.18144623991961
C           -3.35392768642222       -0.26658841318415       -0.57706123041366
S           -4.97405759835629       -0.90248854587413       -0.47012845199362
C           -5.64860252720134        0.71713664097723       -0.47244825823207
C           -6.98705225818655        1.04674251500542       -0.40046111073260
C           -7.33606251861867        2.38725990619419       -0.42614715372749
C           -6.35626453669097        3.37647249627888       -0.52325264590703
C           -5.02116335948050        3.05040583253255       -0.59457901247944
C           -4.64334197146909        1.70185976898755       -0.57294681953258
C           -3.34180228913835        1.13609172480163       -0.62221172183689
N           -2.18231083758752        1.83255146586308       -0.69150332147359
C            0.31412994092633        3.18161620112248       -0.34510317296557
C            1.50973746134777        3.86881712166080       -0.43914664378390
H            3.54070993176846        3.81459759193726       -1.11849547775053
H            3.35918115606611        1.52963786032919       -2.02968604238361
H            1.22912254099093        0.29090291087465       -1.83566010305134
H           -3.83089172758951       -3.04249933627035       -0.97707208736683
H           -3.29351866934531       -5.40928362080040       -0.74087320206630
H           -1.04915627499024       -6.11884988481357        0.02674160422705
H            0.62274906161773       -4.40673568614628        0.65602426734053
H           -1.94853312445451       -1.34520599272211        2.28859306333423
H           -1.89653797997176        0.41741513911210        4.01669389271402
H            0.10137825401758        1.79103148549648        4.35937820758636
H            2.14372731877436        1.41873738320483        3.00021959082695
H            6.56114718279228        2.16947792079048        1.43202420783344
H            8.55143026255990        1.82062742278697       -0.00812858295070
H            8.56185553892996        0.09290784812180       -1.74210636471612
H            6.58781269320703       -1.35081549240199       -2.10614916154947
H            4.03792604302073       -2.52966846447667       -1.96786131940156
H            1.69459969317775       -3.12158347254653       -1.40692065760547
H           -7.73796595882154        0.27500280711593       -0.32446211157549
H           -8.37695164378983        2.66708738304421       -0.37045149836595
H           -6.65434417838493        4.41454499522872       -0.54370407502140
H           -4.25478865754135        3.80628948676889       -0.67209999939659
H           -0.55216790745624        3.63132161692850        0.11683981986144
H            1.58568559457714        4.87180188424875       -0.04540682421604

          :  Hamiltonian                  GFN2-xTB          :
         :: gradient norm              0.000066033719 Eh/a0 ::
         :: HOMO-LUMO gap              0.543493371945 eV    ::
         :: SCC energy              -115.541797122644 Eh    ::
         :: -> dispersion             -0.112417398195 Eh    ::
         :: -> Gsolv                  -0.046252991158 Eh    ::
         :: repulsion energy           2.005655126552 Eh    ::

    * Orbital Energies and Occupations

         #    Occupation            Energy/Eh            Energy/eV
      -------------------------------------------------------------
         1        2.0000           -0.7457075             -20.2917
       ...           ...                  ...                  ...
        94        2.0000           -0.4154134             -11.3040
        95        2.0000           -0.4130992             -11.2410
        96        2.0000           -0.4117979             -11.2056
        97        2.0000           -0.4098021             -11.1513
        98        2.0000           -0.4085960             -11.1185
        99        2.0000           -0.4060500             -11.0492
       100        2.0000           -0.4031339             -10.9698
       101        2.0000           -0.3993005             -10.8655
       102        2.0000           -0.3878008             -10.5526
       103        1.9999           -0.3800342             -10.3413
       104        1.9979           -0.3772265             -10.2649
       105        1.0022           -0.3655952              -9.9484
       106        1.0000           -0.2883692              -7.8469 (HOMO)
       107        0.0000           -0.2683962              -7.3034 (LUMO)
       108        0.0000           -0.2640872              -7.1862
       109                         -0.2529651              -6.8835
       110                         -0.2434574              -6.6248
       111                         -0.2339034              -6.3648
       112                         -0.2295732              -6.2470
       113                         -0.2295246              -6.2457
       114                         -0.2266284              -6.1669
       115                         -0.2237364              -6.0882
       116                         -0.2116524              -5.7594
       117                         -0.2021469              -5.5007
       ...                                ...                  ...
       208                          0.7519155              20.4607
      -------------------------------------------------------------
                  HL-Gap            0.0199730 Eh            0.5435 eV

     #   Z          covCN         q      C6AA      α(0)
     1   6 C        2.920    -0.026    28.646     8.777
     2   6 C        2.919    -0.028    28.691     8.784
     3   6 C        2.924    -0.029    28.720     8.789
     4   6 C        2.984    -0.000    28.033     8.685
     5   6 C        2.897     0.190    23.948     8.024
     6   7 N        1.858    -0.255    27.485     7.770
     7   6 C        2.937     0.065    26.535     8.448
     8   6 C        2.974    -0.009    28.243     8.717
     9   6 C        2.918    -0.043    29.078     8.843
    10   6 C        2.915    -0.030    28.739     8.791
    11   6 C        2.917    -0.043    29.057     8.839
    12   6 C        2.918    -0.040    28.999     8.831
    13   6 C        2.918     0.046    26.970     8.516
    14   7 N        2.807     0.016    20.979     6.803
    15   6 C        3.083     0.054    26.710     8.472
    16   6 C        2.909    -0.040    28.988     8.828
    17   6 C        2.923    -0.031    28.785     8.798
    18   6 C        2.921    -0.034    28.836     8.806
    19   6 C        2.912    -0.029    28.725     8.789
    20   6 C        3.061    -0.007    28.137     8.699
    21   6 C        3.065    -0.030    28.679     8.782
    22   6 C        3.097     0.132    25.016     8.197
    23   8 O        1.714    -0.227    17.766     5.691
    24   6 C        3.103     0.129    25.061     8.203
    25   6 C        2.908    -0.050    29.245     8.867
    26   6 C        2.926    -0.029    28.715     8.788
    27   6 C        2.920    -0.036    28.893     8.815
    28   6 C        2.912    -0.032    28.787     8.798
    29   6 C        3.058    -0.015    28.340     8.730
    30   6 C        3.051    -0.020    28.461     8.749
    31   6 C        2.914    -0.035    28.860     8.809
    32   6 C        2.911    -0.048    29.181     8.858
    33   6 C        3.071     0.049    26.821     8.492
    34   6 C        2.988     0.014    27.687     8.631
    35  16 S        2.216    -0.124   146.264    20.355
    36   6 C        3.005     0.029    27.336     8.576
    37   6 C        2.932    -0.041    29.009     8.833
    38   6 C        2.923    -0.039    28.979     8.828
    39   6 C        2.917    -0.035    28.872     8.811
    40   6 C        2.915    -0.036    28.891     8.814
    41   6 C        3.111    -0.019    28.318     8.718
    42   6 C        3.096     0.080    26.099     8.373
    43   7 N        1.843    -0.294    28.458     7.906
    44   6 C        2.924    -0.027    28.679     8.782
    45   6 C        2.919    -0.028    28.689     8.783
    46   1 H        0.926     0.043     2.404     2.425
    47   1 H        0.926     0.037     2.491     2.468
    48   1 H        0.926     0.037     2.485     2.465
    49   1 H        0.926     0.043     2.406     2.426
    50   1 H        0.926     0.041     2.439     2.442
    51   1 H        0.926     0.043     2.415     2.430
    52   1 H        0.926     0.043     2.410     2.427
    53   1 H        0.926     0.033     2.548     2.496
    54   1 H        0.926     0.042     2.423     2.434
    55   1 H        0.926     0.046     2.375     2.410
    56   1 H        0.926     0.049     2.330     2.387
    57   1 H        0.926     0.052     2.297     2.370
    58   1 H        0.926     0.051     2.313     2.379
    59   1 H        0.926     0.048     2.347     2.396
    60   1 H        0.926     0.049     2.328     2.386
    61   1 H        0.926     0.058     2.220     2.330
    62   1 H        0.926     0.054     2.274     2.358
    63   1 H        0.926     0.038     2.479     2.462
    64   1 H        0.926     0.037     2.483     2.464
    65   1 H        0.926     0.037     2.495     2.470
    66   1 H        0.926     0.037     2.485     2.465
    67   1 H        0.926     0.042     2.421     2.433
    68   1 H        0.926     0.044     2.401     2.423

molecular dipole:
                 x           y           z       tot (Debye)
 q only:        2.722      -0.639       0.228
   full:        2.357      -0.516       0.275       6.172

 projected vibrational frequencies (cm⁻¹)
eigval :       -0.00    -0.00    -0.00     0.00     0.00     0.00
eigval :       14.31    16.64    26.30    39.11    44.10    53.52
eigval :       57.72    62.58    67.23    83.63    89.00   103.65
eigval :      108.41   125.49   130.37   143.51   152.38   172.94
eigval :      180.53   198.32   206.73   231.00   237.85   248.22
eigval :      260.31   264.74   280.37   295.64   311.01   333.42
eigval :      341.97   376.15   377.45   387.04   396.96   401.64
eigval :      406.33   410.11   417.24   431.58   440.84   453.13
eigval :      466.27   471.21   476.22   501.63   508.96   526.79
eigval :      536.16   539.91   541.46   557.29   562.17   579.38
eigval :      585.98   587.75   596.33   596.83   603.05   625.97
eigval :      635.84   641.21   647.72   656.45   666.44   673.07
eigval :      679.77   680.84   687.49   697.59   702.47   711.21
eigval :      719.08   755.32   762.83   767.97   770.06   771.90
eigval :      820.16   822.20   829.65   839.52   843.31   847.55
eigval :      859.12   861.12   864.69   868.88   879.84   894.62
eigval :      894.74   899.23   899.99   903.46   907.24   907.81
eigval :      912.18   915.01   915.03   919.85   930.90   936.46
eigval :      955.88   990.78   999.01  1028.80  1037.88  1057.86
eigval :     1064.45  1066.58  1072.80  1078.05  1086.52  1093.48
eigval :     1110.39  1120.14  1130.32  1135.00  1137.86  1162.12
eigval :     1167.14  1169.99  1170.89  1177.66  1179.21  1179.31
eigval :     1181.31  1195.81  1196.04  1202.24  1210.24  1229.59
eigval :     1235.29  1241.24  1252.86  1269.38  1272.21  1277.34
eigval :     1295.55  1300.59  1321.36  1326.21  1336.57  1339.10
eigval :     1345.03  1347.71  1350.40  1357.66  1377.36  1383.74
eigval :     1394.95  1401.10  1407.99  1416.20  1422.23  1425.16
eigval :     1431.40  1447.70  1453.70  1470.67  1473.27  1479.34
eigval :     1489.50  1506.95  1540.17  1550.85  1557.00  1574.65
eigval :     1575.47  1581.66  1583.13  1587.23  1594.96  1598.00
eigval :     1617.20  3072.85  3076.36  3077.02  3077.21  3080.43
eigval :     3083.54  3084.19  3085.00  3085.38  3086.70  3091.17
eigval :     3092.44  3092.50  3093.37  3095.19  3098.08  3098.39
eigval :     3100.01  3100.27  3101.44  3107.27  3107.69  3109.72

   temp. (K)  partition function   enthalpy   heat capacity  entropy
                                   cal/mol     cal/K/mol   cal/K/mol   J/K/mol
 298.15  VIB  0.135E+15            19669.646    128.562    120.367
         ROT  0.486E+08              888.752      2.981     38.153
         INT  0.656E+22            20558.398    131.543    158.521
         TR   0.140E+29             1481.254      4.968     45.007
         TOT                       22039.6521   136.5110   203.5275   851.5589

       T/K    H(0)-H(T)+PV         H(T)/Eh          T*S/Eh         G(T)/Eh
   ------------------------------------------------------------------------
    298.15    0.351224E-01    0.533896E+00    0.967025E-01    0.437193E+00
   ------------------------------------------------------------------------

         :::::::::::::::::::::::::::::::::::::::::::::::::::::
         ::                  THERMODYNAMIC                  ::
         :::::::::::::::::::::::::::::::::::::::::::::::::::::
         :: total free energy        -113.098948537310 Eh   ::
         ::.................................................::
         :: total energy             -113.536141994355 Eh   ::
         :: zero point energy           0.498773504241 Eh   ::
         :: G(RRHO) w/o ZPVE           -0.061580047196 Eh   ::
         :: G(RRHO) contrib.            0.437193457045 Eh   ::
         :::::::::::::::::::::::::::::::::::::::::::::::::::::

           -------------------------------------------------
          | TOTAL ENERGY             -113.536141994355 Eh   |
          | TOTAL ENTHALPY           -113.002246068846 Eh   |
          | TOTAL FREE ENERGY        -113.098948537310 Eh   |
          | GRADIENT NORM               0.000066156228 Eh/α |
          | HOMO-LUMO GAP               0.543492601332 eV   |
           -------------------------------------------------

 * finished run on 2025/09/13 at 05:34:53.815
