   * xtb version 6.7.1 (edcfbbe) compiled by 'albert@albert-system' on 2024-07-22

   ID    Z sym.   atoms
    1    6 C      1, 3, 5-10, 12-17, 19-26, 28-32, 34-39, 41-48, 50
    2    7 N      2, 4, 11, 27, 33, 49
    3    8 O      18, 40
    4    1 H      51-78

          program call               : xtb data2507/gas/2PXZP/2PXZP_gas_T1_crest.xyz --gfn 2 --spinpol --tblite --uhf 2 --ohess vtight --parallel 40 --molden --ceasefiles --namespace data2507/gas/2PXZP/2PXZP_gas_T1_finalOpt
 * total energy  :  -129.9265716 Eh     change       -0.1556478E-07 Eh
 * total energy  :  -129.9265974 Eh     change       -0.2576483E-04 Eh
 * total energy  :  -129.9266058 Eh     change       -0.8428687E-05 Eh
 * total energy  :  -129.9266070 Eh     change       -0.1210442E-05 Eh
 * total energy  :  -129.9266067 Eh     change        0.3064287E-06 Eh
 * total energy  :  -129.9266079 Eh     change       -0.1168060E-05 Eh
 * total energy  :  -129.9266086 Eh     change       -0.7446621E-06 Eh
 * total energy  :  -129.9266096 Eh     change       -0.9202856E-06 Eh
 * total energy  :  -129.9266105 Eh     change       -0.9125008E-06 Eh
 * total energy  :  -129.9266114 Eh     change       -0.8759700E-06 Eh
 * total energy  :  -129.9266183 Eh     change       -0.2019877E-06 Eh
 * total energy  :  -129.9266185 Eh     change       -0.1310905E-06 Eh
 * total energy  :  -129.9266186 Eh     change       -0.1551256E-06 Eh
 * total energy  :  -129.9266189 Eh     change       -0.2312792E-06 Eh
 * total energy  :  -129.9266190 Eh     change       -0.1285663E-06 Eh
 * total energy  :  -129.9266192 Eh     change       -0.1684068E-06 Eh
 * total energy  :  -129.9266193 Eh     change       -0.1503992E-06 Eh
 * total energy  :  -129.9266193 Eh     change       -0.3547115E-08 Eh
 * total energy  :  -129.9266194 Eh     change       -0.9023924E-07 Eh
   *** GEOMETRY OPTIMIZATION CONVERGED AFTER 31 ITERATIONS ***

 final structure:
================
78
 xtb: 6.7.1 (edcfbbe)
C            0.95397709578274       -6.53941346924932       -0.06182080040169
N           -0.05667177664422       -5.52079547931860       -0.05047384291364
C           -1.41816373324692       -5.69257091696940       -0.06922878491182
N           -2.06619651103504       -4.55507773173384       -0.05931958347193
C           -1.12754432443208       -3.58677720437863       -0.04022498458837
C           -1.15096540334790       -2.15079981053719       -0.01776382275335
C           -2.34818942263757       -1.36988807020684       -0.03943728298755
C           -3.61803218690831       -1.97478852322568       -0.06754432800740
C           -4.75848736942755       -1.20856181305084       -0.08578406042734
C           -4.67120741098425        0.18400299297991       -0.07756384221139
N           -5.85286731574630        0.97086484779466       -0.09596220065553
C           -6.68560835201323        1.01388043220578        1.01207836094779
C           -6.38841921264459        0.32813564243082        2.18673632444769
C           -7.24222750310530        0.39108468806842        3.27406620376315
C           -8.40208548260791        1.14227693564947        3.21292498518477
C           -8.70440581890697        1.84670885636934        2.05796448741015
C           -7.85563950198922        1.78992722617717        0.96704250787004
O           -8.20178509185674        2.52482979810616       -0.13612493591651
C           -7.36716283451391        2.47190920970574       -1.22107100068169
C           -7.72735756593213        3.20999055651498       -2.33425560340641
C           -6.93586077673366        3.18557063603986       -3.47205952777575
C           -5.78996108561946        2.41120138324515       -3.49366417800125
C           -5.42201308748501        1.67077632923326       -2.38382539948844
C           -6.19479470600971        1.69797739064216       -1.22601032839759
C           -3.41851971133895        0.79961831468700       -0.05227533552048
C           -2.27765472378584        0.03741239351532       -0.03572842401105
N            0.03435585336920       -1.54189783762230        0.00762442209229
C            1.19128101487099       -2.16377318354284        0.00921106214839
C            2.40700457688644       -1.38363026463790        0.03641159669082
C            2.36007489353522        0.01573813084579        0.07357079305850
C            3.51892333920775        0.75623708629770        0.09732493833700
C            4.75708496340072        0.11473664447874        0.08693217348612
N            5.95332126036539        0.87728276277857        0.11280084701188
C            6.32265825515859        1.56837824023529        1.25961116072261
C            5.56353495161829        1.52662815243581        2.42472990313304
C            5.96057235386245        2.22842795192393        3.55059940397607
C            7.12261902234659        2.97683289259400        3.53608521503380
C            7.90104240426715        3.01398004479924        2.38920088523679
C            7.51160938618282        2.31487850770476        1.26126624633209
O            8.33695886671224        2.37833635809199        0.16846502054288
C            7.95889395718054        1.68692570652615       -0.95322510039419
C            8.79374109130020        1.76104890667429       -2.05331015824546
C            8.46123388409104        1.10161120586831       -3.22687967256378
C            7.28510625987342        0.37868583940942       -3.29609286049571
C            6.44478872017479        0.29867977778861       -2.19829934997103
C            6.77273939932048        0.93791931821917       -1.00692091801771
C            4.81784170761014       -1.27667637599972        0.05101598169964
C            3.65698714241466       -2.01551752609822        0.02496250252821
N            1.30392449560425       -3.52029290262649       -0.00772979904231
C            0.15203128093432       -4.17889957450943       -0.03857764245357
H            0.95100113023648       -7.07606974656152       -1.01379975245666
H            0.78262414936981       -7.25226958512315        0.74699406655223
H            1.92101909437653       -6.05934859043071        0.07609069807401
H           -1.87854675085357       -6.65897457922407       -0.08372284521031
H           -3.68131532391619       -3.05173505843333       -0.07796516959317
H           -5.73314261253534       -1.67515782491105       -0.11092250634598
H           -5.48088681325514       -0.25169567407852        2.24163667372996
H           -6.99278107908875       -0.15107068579821        4.17298159659721
H           -9.06956731055421        1.18989366752460        4.05870710211730
H           -9.59446299474551        2.45076033647205        1.98352353316875
H           -8.63285919780654        3.79375968044929       -2.29069952439356
H           -7.22247344635657        3.76465950890938       -4.33557750980132
H           -5.17435779517634        2.37644029737909       -4.37914914275943
H           -4.53346428257750        1.06025524148998       -2.40837135631613
H           -3.36100075202046        1.87901718106020       -0.04147857074391
H           -1.30373103037092        0.50040851417913       -0.01222108098191
H            1.39568778409990        0.49836095930776        0.07866032920673
H            3.48386273433953        1.83599746305480        0.12184061889259
H            4.66114465320938        0.93638861466133        2.44541452011671
H            5.35375737588169        2.18291638763805        4.44166291497085
H            7.43246736617022        3.52601534237020        4.41102948295637
H            8.81900350606597        3.57828300016995        2.35015611545498
H            9.69761020863322        2.34326048541478       -1.97171028674371
H            9.11840162665004        1.16313151781120       -4.07980710337057
H            7.01060912942178       -0.12770869258324       -4.20852847170853
H            5.52338707200594       -0.25828081706399       -2.26141290382113
H            5.78254097032204       -1.76374804429299        0.04599624259334
H            3.68835772155603       -3.09354573411748       -0.00023505782639

 projected vibrational frequencies (cm⁻¹)
eigval :       -0.00    -0.00    -0.00     0.00     0.00     0.00
eigval :        6.65     8.07    14.09    19.79    21.75    28.65
eigval :       30.40    39.32    49.71    50.76    56.85    62.37
eigval :       63.84    72.23    93.45   110.58   111.75   118.85
eigval :      124.98   140.04   150.07   184.77   187.50   192.95
eigval :      215.98   244.70   246.62   251.96   253.38   255.39
eigval :      268.10   274.84   288.52   311.35   340.43   347.33
eigval :      364.48   366.84   376.68   378.86   380.11   392.78
eigval :      404.46   409.47   418.32   423.52   428.86   429.35
eigval :      431.79   452.98   454.87   463.01   477.89   501.78
eigval :      504.53   506.13   524.43   525.83   532.72   543.86
eigval :      558.60   560.30   572.55   585.05   586.76   587.66
eigval :      600.50   609.50   615.36   623.86   648.64   650.28
eigval :      663.57   664.08   664.98   665.66   667.67   679.24
eigval :      683.04   685.48   700.54   713.25   715.56   777.35
eigval :      777.71   778.22   778.28   791.68   799.78   805.72
eigval :      811.81   821.83   852.53   854.99   855.04   859.94
eigval :      861.48   865.01   865.28   865.67   866.03   894.89
eigval :      897.45   897.89   898.46   898.82   903.66   909.07
eigval :      915.33   915.51   915.59   915.88   916.59   918.31
eigval :      920.00   920.61   920.94   938.84  1005.19  1006.31
eigval :     1030.08  1079.20  1085.85  1086.38  1086.99  1087.66
eigval :     1106.20  1109.58  1110.35  1111.13  1117.90  1121.06
eigval :     1122.01  1127.90  1139.20  1154.30  1170.12  1171.24
eigval :     1174.56  1174.88  1178.39  1186.23  1189.61  1203.82
eigval :     1205.06  1210.95  1215.26  1222.00  1232.29  1238.78
eigval :     1239.80  1254.16  1255.15  1257.29  1261.01  1273.15
eigval :     1292.12  1306.27  1314.40  1315.62  1318.91  1321.69
eigval :     1324.28  1332.91  1335.07  1348.55  1350.88  1375.83
eigval :     1390.81  1397.37  1408.74  1416.31  1419.72  1422.73
eigval :     1424.33  1442.41  1442.74  1448.30  1458.58  1459.18
eigval :     1461.60  1466.67  1470.84  1482.10  1484.74  1488.39
eigval :     1496.08  1504.97  1525.86  1537.54  1559.88  1561.98
eigval :     1567.54  1568.53  1571.50  1579.90  1583.02  1586.66
eigval :     1591.81  1594.83  2969.84  2991.14  3038.89  3071.24
eigval :     3074.21  3076.72  3078.70  3091.45  3091.68  3092.34
eigval :     3092.62  3100.55  3100.83  3101.02  3101.40  3101.40
eigval :     3101.58  3101.82  3106.43  3109.13  3109.68  3110.75
eigval :     3111.19  3112.99  3113.04  3113.44  3113.84  3178.79

   temp. (K)  partition function   enthalpy   heat capacity  entropy
                                   cal/mol     cal/K/mol   cal/K/mol   J/K/mol
 298.15  VIB  0.193E+20            23300.301    144.883    146.515
         ROT  0.143E+09              888.752      2.981     40.292
         INT  0.275E+28            24189.053    147.864    186.807
         TR   0.160E+29             1481.254      4.968     45.271
         TOT                       25670.3071   152.8321   232.0779   971.0139

       T/K    H(0)-H(T)+PV         H(T)/Eh          T*S/Eh         G(T)/Eh
   ------------------------------------------------------------------------
    298.15    0.409082E-01    0.622592E+00    0.110268E+00    0.512325E+00
   ------------------------------------------------------------------------

         :::::::::::::::::::::::::::::::::::::::::::::::::::::
         ::                  THERMODYNAMIC                  ::
         :::::::::::::::::::::::::::::::::::::::::::::::::::::
         :: total free energy        -129.414294619147 Eh   ::
         ::.................................................::
         :: total energy             -129.926619420310 Eh   ::
         :: zero point energy           0.581684259189 Eh   ::
         :: G(RRHO) w/o ZPVE           -0.069359458025 Eh   ::
         :: G(RRHO) contrib.            0.512324801163 Eh   ::
         :::::::::::::::::::::::::::::::::::::::::::::::::::::

           -------------------------------------------------
          | TOTAL ENERGY             -129.926619420310 Eh   |
          | TOTAL ENTHALPY           -129.304026922771 Eh   |
          | TOTAL FREE ENERGY        -129.414294619147 Eh   |
          | GRADIENT NORM               0.000126031208 Eh/α |
           -------------------------------------------------

 * finished run on 2025/08/25 at 03:07:06.259
