   * xtb version 6.7.1 (edcfbbe) compiled by 'albert@albert-system' on 2024-07-22

   ID    Z sym.   atoms
    1    6 C      1, 3, 5-10, 12-17, 19-26, 28-32, 34-39, 41-48, 50
    2    7 N      2, 4, 11, 27, 33, 49
    3    8 O      18, 40
    4    1 H      51-78

          program call               : xtb data2507/gas/2PXZP/2PXZP_gas_S0_finalOpt.xtbopt.xyz --gfn 2 --spinpol --tblite --uhf 2 --ohess vtight --parallel 40 --molden --ceasefiles --namespace data2507/gas/2PXZP/2PXZP_gas_T1_preOpt
 * total energy  :  -129.9219684 Eh     change        0.3786471E-07 Eh
 * total energy  :  -129.9251716 Eh     change       -0.3203150E-02 Eh
 * total energy  :  -129.9261048 Eh     change       -0.9332541E-03 Eh
 * total energy  :  -129.9261550 Eh     change       -0.5016381E-04 Eh
 * total energy  :  -129.9261868 Eh     change       -0.3180363E-04 Eh
 * total energy  :  -129.9262042 Eh     change       -0.1746472E-04 Eh
 * total energy  :  -129.9262210 Eh     change       -0.1673628E-04 Eh
 * total energy  :  -129.9262435 Eh     change       -0.2248314E-04 Eh
 * total energy  :  -129.9262566 Eh     change       -0.1316756E-04 Eh
 * total energy  :  -129.9262688 Eh     change       -0.1212551E-04 Eh
 * total energy  :  -129.9265464 Eh     change       -0.1017907E-05 Eh
 * total energy  :  -129.9265473 Eh     change       -0.9524161E-06 Eh
 * total energy  :  -129.9265481 Eh     change       -0.8087187E-06 Eh
 * total energy  :  -129.9265490 Eh     change       -0.8883968E-06 Eh
 * total energy  :  -129.9265501 Eh     change       -0.1077010E-05 Eh
 * total energy  :  -129.9265514 Eh     change       -0.1252376E-05 Eh
 * total energy  :  -129.9265528 Eh     change       -0.1408768E-05 Eh
 * total energy  :  -129.9265528 Eh     change        0.5743090E-08 Eh
 * total energy  :  -129.9265528 Eh     change       -0.2187249E-07 Eh
   *** GEOMETRY OPTIMIZATION CONVERGED AFTER 69 ITERATIONS ***

 final structure:
================
78
 xtb: 6.7.1 (edcfbbe)
C            0.94644983660823       -6.54285613155638       -0.14719117162177
N           -0.06249551908895       -5.52251696045706       -0.15727145654619
C           -1.42253103404504       -5.69115577335800       -0.23026762348581
N           -2.06898291631188       -4.55267579655738       -0.22442992763321
C           -1.13037990113395       -3.58680112645831       -0.15253954665778
C           -1.15294107511753       -2.15162076413941       -0.10002871796237
C           -2.34831258166889       -1.36851123821421       -0.12699628845579
C           -3.61645309614131       -1.96867323337147       -0.23229142116609
C           -4.75564531804244       -1.20075677046740       -0.24744614488252
C           -4.66979795658157        0.18920602871990       -0.15544429207540
N           -5.85002040908308        0.97697748114372       -0.16138048833892
C           -6.73604848684737        0.92320184157447        0.90486753915650
C           -6.49668050718871        0.13448144373568        2.02712871158995
C           -7.40460700043824        0.09999191297626        3.07097377420065
C           -8.56230398647344        0.85519238447940        3.01956755052844
C           -8.80621283570181        1.66368904918130        1.92043403695367
C           -7.90276866086318        1.70488874807258        0.87352062241748
O           -8.19257191083341        2.54213850200061       -0.17122343993072
C           -7.30357996642459        2.58865197862503       -1.21215562167431
C           -7.60527653283344        3.43424211128729       -2.26466280003004
C           -6.75907936295048        3.51274377350661       -3.35975049589855
C           -5.61842850923903        2.73150384927463       -3.40155857016441
C           -5.30864339037494        1.88441959587786       -2.35191105518616
C           -6.13486943773726        1.80945537065814       -1.23360265348495
C           -3.41823614780445        0.80006304916480       -0.05439274738306
C           -2.27836720076061        0.03652988495111       -0.04487724742674
N            0.03219123568729       -1.54517574629813       -0.03138062063274
C            1.18743438960738       -2.16945420235716       -0.00344374271909
C            2.40297299263656       -1.39132000335341        0.06222991642339
C            2.36001802995976        0.00831730558754        0.03213905158242
C            3.51890819330579        0.74730905599914        0.08122311712646
C            4.75372028900885        0.10470194330018        0.16959072234880
N            5.94946597302715        0.86520051078864        0.21620303695982
C            6.23760642666073        1.65980594750010        1.31917502785107
C            5.39967270851421        1.71914322121427        2.42834571619951
C            5.71526686067148        2.52538314295075        3.50910486556127
C            6.87377985914598        3.27933812810447        3.50639588941340
C            7.73194158383476        3.21414296592027        2.41937758933423
C            7.42421470490139        2.40976407623792        1.33719774639271
O            8.32805863158986        2.37413553914919        0.30728491686684
C            8.03237350983850        1.57851466201012       -0.76889957801213
C            8.94894198299506        1.55106823138125       -1.80430801795677
C            8.70248231359063        0.78619931193679       -2.93413564842689
C            7.52872627707671        0.06213342168892       -3.02676947905551
C            6.60725600613148        0.08334594698206       -1.99331690868993
C            6.84951970260966        0.82595839585283       -0.84185311550840
C            4.80954835237327       -1.28718083050811        0.20753788125580
C            3.64903736666062       -2.02471937538851        0.15048084981051
N            1.29851502945976       -3.52586919729892       -0.03015192143867
C            0.14743101401882       -4.18147447842735       -0.11345255181807
H            0.93972395805492       -7.10040033610366       -1.08680151588023
H            0.77704290728162       -7.23764180306885        0.67797044237868
H            1.91420533198030       -6.06087320185089       -0.02195895158730
H           -1.88340057732125       -6.65614307661837       -0.28022116092717
H           -3.67919440425490       -3.04333153109752       -0.30344853279017
H           -5.72842136444768       -1.66394122358145       -0.33395752205265
H           -5.59118891877360       -0.44883288151675        2.07703792778099
H           -7.19905647698082       -0.52180039255493        3.92849164346827
H           -9.27242852053857        0.82618286487302        3.83074941052480
H           -9.69198988493173        2.27520204783302        1.85659243549904
H           -8.50937667807312        4.01910257178739       -2.20852638900564
H           -6.99972075270575        4.17587568947994       -4.17551104000489
H           -4.96124464603435        2.77486029006928       -4.25624105543334
H           -4.42411067909020        1.26918593547360       -2.39453594578836
H           -3.36108648864464        1.87680483329602        0.02272002046818
H           -1.30604878448207        0.49589876925678        0.03893048941223
H            1.39895318195508        0.49214859773961       -0.04067352587225
H            3.48654664683551        1.82691678100135        0.04710256228036
H            4.49965151100329        1.12523316234394        2.44245964300548
H            5.04731652692565        2.55720338307831        4.35594026038946
H            7.11966017910364        3.91083038682768        4.34537027840637
H            8.65046543701262        3.77824944676765        2.39270179510080
H            9.84752122844916        2.13915188002491       -1.70779045568638
H            9.42336870141672        0.76799779819385       -3.73607788148946
H            7.31937425438667       -0.52459724784048       -3.90782677988082
H            5.68842315724751       -0.47481075069333       -2.07793858752517
H            5.77047448341587       -1.77594490351114        0.28287409174210
H            3.67762394816294       -3.10274904893661        0.17879301109717

 projected vibrational frequencies (cm⁻¹)
eigval :       -0.00    -0.00    -0.00    -0.00     0.00     0.00
eigval :        7.50     8.76    14.18    20.57    22.36    28.81
eigval :       29.47    39.27    51.73    54.22    59.91    63.45
eigval :       64.93    73.47    93.61   111.55   113.13   120.47
eigval :      125.56   140.83   150.68   185.76   188.29   193.65
eigval :      216.79   244.15   246.07   252.95   253.40   256.01
eigval :      268.12   275.03   288.78   312.24   340.06   347.68
eigval :      364.19   367.12   377.66   378.96   380.65   392.46
eigval :      401.65   408.72   418.47   423.59   428.79   430.03
eigval :      431.78   452.36   455.11   463.73   478.51   501.87
eigval :      504.53   506.16   524.60   525.93   532.58   543.96
eigval :      558.31   560.26   572.21   585.15   587.00   587.97
eigval :      600.66   609.47   615.40   623.93   648.54   650.23
eigval :      663.51   663.92   664.99   665.76   667.75   679.02
eigval :      682.80   685.20   700.37   713.32   716.01   777.63
eigval :      778.06   778.52   778.60   791.48   799.71   806.37
eigval :      812.67   821.48   853.09   855.10   855.15   859.22
eigval :      861.46   865.65   865.76   866.39   867.32   894.30
eigval :      897.81   898.12   898.77   898.99   904.89   910.00
eigval :      915.42   915.63   915.95   916.07   916.93   918.66
eigval :      919.79   921.14   922.32   938.48  1004.68  1005.81
eigval :     1030.20  1077.86  1085.98  1087.20  1087.27  1088.48
eigval :     1106.62  1110.53  1110.67  1111.43  1118.42  1121.08
eigval :     1121.81  1128.37  1139.27  1154.65  1170.71  1172.50
eigval :     1174.66  1175.11  1178.60  1186.89  1189.99  1204.14
eigval :     1205.21  1212.05  1217.66  1222.97  1232.80  1239.08
eigval :     1240.11  1254.61  1256.80  1258.48  1261.47  1273.15
eigval :     1292.34  1305.94  1314.23  1315.43  1318.62  1321.37
eigval :     1323.97  1333.53  1335.55  1349.27  1350.73  1375.15
eigval :     1390.49  1397.46  1409.44  1416.36  1420.19  1423.24
eigval :     1425.18  1442.76  1442.90  1448.26  1458.55  1459.45
eigval :     1461.43  1466.79  1470.78  1481.18  1484.07  1486.05
eigval :     1495.73  1504.54  1525.85  1537.45  1559.68  1561.98
eigval :     1567.17  1568.47  1571.60  1579.88  1583.01  1586.24
eigval :     1591.60  1595.03  2971.53  2988.91  3039.62  3070.75
eigval :     3073.98  3076.58  3078.52  3091.82  3092.06  3092.57
eigval :     3092.78  3101.02  3101.32  3101.43  3101.65  3101.78
eigval :     3101.88  3101.99  3106.24  3110.30  3110.51  3111.64
eigval :     3112.11  3113.60  3113.68  3113.97  3114.20  3179.07

   temp. (K)  partition function   enthalpy   heat capacity  entropy
                                   cal/mol     cal/K/mol   cal/K/mol   J/K/mol
 298.15  VIB  0.120E+20            23268.070    145.032    146.012
         ROT  0.142E+09              888.752      2.981     40.287
         INT  0.170E+28            24156.822    148.012    186.298
         TR   0.160E+29             1481.254      4.968     45.271
         TOT                       25638.0758   152.9806   231.5694   968.8862

       T/K    H(0)-H(T)+PV         H(T)/Eh          T*S/Eh         G(T)/Eh
   ------------------------------------------------------------------------
    298.15    0.408569E-01    0.622672E+00    0.110026E+00    0.512646E+00
   ------------------------------------------------------------------------

         :::::::::::::::::::::::::::::::::::::::::::::::::::::
         ::                  THERMODYNAMIC                  ::
         :::::::::::::::::::::::::::::::::::::::::::::::::::::
         :: total free energy        -129.413906721458 Eh   ::
         ::.................................................::
         :: total energy             -129.926552776857 Eh   ::
         :: zero point energy           0.581815257654 Eh   ::
         :: G(RRHO) w/o ZPVE           -0.069169202255 Eh   ::
         :: G(RRHO) contrib.            0.512646055399 Eh   ::
         :::::::::::::::::::::::::::::::::::::::::::::::::::::

           -------------------------------------------------
          | TOTAL ENERGY             -129.926552776857 Eh   |
          | TOTAL ENTHALPY           -129.303880644721 Eh   |
          | TOTAL FREE ENERGY        -129.413906721458 Eh   |
          | GRADIENT NORM               0.000084797067 Eh/α |
           -------------------------------------------------

 * finished run on 2025/08/25 at 03:00:34.823
