   * xtb version 6.7.1 (edcfbbe) compiled by 'albert@albert-system' on 2024-07-22

   ID    Z sym.   atoms
    1    6 C      1, 3, 5-10, 12-17, 19-26, 28-32, 34-39, 41-48, 50
    2    7 N      2, 4, 11, 27, 33, 49
    3    8 O      18, 40
    4    1 H      51-78

          program call               : xtb data2507/gas/2PXZP/2PXZP.xyz --gfn 2 --ohess vtight --parallel 40 --molden --ceasefiles --namespace data2507/gas/2PXZP/2PXZP_gas_S0_preOpt
          :  Hamiltonian                  GFN2-xTB          :
 * total energy  :  -129.9666107 Eh     change       -0.3526395E-08 Eh
 * total energy  :  -129.9800911 Eh     change       -0.1348044E-01 Eh
 * total energy  :  -129.9849920 Eh     change       -0.4900899E-02 Eh
 * total energy  :  -129.9868260 Eh     change       -0.1833935E-02 Eh
 * total energy  :  -129.9881406 Eh     change       -0.1314617E-02 Eh
 * total energy  :  -129.9886978 Eh     change       -0.5572004E-03 Eh
 * total energy  :  -129.9888629 Eh     change       -0.1650936E-03 Eh
 * total energy  :  -129.9889143 Eh     change       -0.5143380E-04 Eh
 * total energy  :  -129.9889684 Eh     change       -0.5409066E-04 Eh
 * total energy  :  -129.9890111 Eh     change       -0.4264208E-04 Eh
 * total energy  :  -129.9918136 Eh     change       -0.1304616E-05 Eh
 * total energy  :  -129.9918151 Eh     change       -0.1491452E-05 Eh
 * total energy  :  -129.9918164 Eh     change       -0.1314984E-05 Eh
 * total energy  :  -129.9918173 Eh     change       -0.9193166E-06 Eh
 * total energy  :  -129.9918179 Eh     change       -0.5994368E-06 Eh
 * total energy  :  -129.9918184 Eh     change       -0.5053712E-06 Eh
 * total energy  :  -129.9918189 Eh     change       -0.4433143E-06 Eh
 * total energy  :  -129.9918193 Eh     change       -0.4445283E-06 Eh
 * total energy  :  -129.9918193 Eh     change       -0.7918970E-08 Eh
   *** GEOMETRY OPTIMIZATION CONVERGED AFTER 94 ITERATIONS ***

 final structure:
================
78
 xtb: 6.7.1 (edcfbbe)
C            0.97288659384155       -6.44880949182393       -0.80467438046702
N           -0.04753133708121       -5.44936251327208       -0.66484446198902
C           -1.40113355937887       -5.61759085372440       -0.66088111722035
N           -2.07578785628678       -4.51887820982897       -0.51326311381579
C           -1.13344452429983       -3.52791657956505       -0.40753556638893
C           -1.16284684929818       -2.13489587512035       -0.24422590107661
C           -2.38366259329260       -1.34215130548087       -0.15679606211661
C           -3.63807010454731       -1.95417070955285       -0.16532258626504
C           -4.78374370827938       -1.18980620503437       -0.08820622650089
C           -4.69943506193158        0.19811522352274       -0.00301043052845
N           -5.87254719687194        0.97779101585146        0.07066648764359
C           -6.74404986368046        0.84941934220739        1.15422678472859
C           -6.47564692637416        0.00834257395029        2.22695341173839
C           -7.36050655693001       -0.09143115027464        3.28990492472051
C           -8.52127887461456        0.65451920021679        3.30477046165643
C           -8.78866618737303        1.52261559772322        2.25626267779938
C           -7.90897516280112        1.62750622966721        1.19531560181352
O           -8.22627293946554        2.53192571407791        0.21224206206419
C           -7.35687828593955        2.64952093647472       -0.84386287778262
C           -7.69330550081296        3.55447576459347       -1.83300502606937
C           -6.88211800821467        3.70751737014502       -2.94790093515562
C           -5.74488825393507        2.93587830128389       -3.07147201597570
C           -5.40177655280157        2.02785785577143       -2.08119192247119
C           -6.18640741988445        1.88514081311155       -0.94355717486440
C           -3.44864592387721        0.81275496109135        0.00635533813382
C           -2.30439064706329        0.04911814635592       -0.06923794169622
N            0.00102516644336       -1.49548260793931       -0.17177273040667
C            1.15801494748576       -2.14766841793383       -0.26283098106436
C            2.37998576229001       -1.34842537979977       -0.16040418300110
C            2.31158421354794        0.00436098470417        0.16968217474705
C            3.46185371523195        0.75754471603969        0.27488882106504
C            4.70458994867076        0.17017961435306        0.05068253239463
N            5.88366076830213        0.93839686916396        0.16230032030791
C            6.26351466317014        1.47992484532748        1.39181331058610
C            5.53648485487575        1.26152184539505        2.55519065832231
C            5.94520864803085        1.81048173899937        3.76136177059075
C            7.09073512387067        2.57674640463873        3.82729767814548
C            7.84344447370220        2.78056823953817        2.67974719810020
C            7.44161864520388        2.23445277526836        1.47543473140463
O            8.25433818671538        2.45476049747152        0.39054611243260
C            7.86938388098711        1.90986700763260       -0.80967902384829
C            8.68989539763529        2.14551249678489       -1.89653299661194
C            8.35247578161397        1.65274296588521       -3.14889106516176
C            7.18214247967871        0.93892562874113       -3.30568255165986
C            6.35612397333027        0.69785269995157       -2.21811470452207
C            6.69439663060417        1.15934907400908       -0.95227592407850
C            4.77845156097342       -1.18030888350893       -0.28175601947824
C            3.62638683772539       -1.93111799252380       -0.38525104696202
N            1.30308619473219       -3.46281435714135       -0.43839462564031
C            0.15380095827093       -4.11128099157959       -0.50124964403520
H            0.88351862872870       -6.95594241573039       -1.76733574459553
H            0.89771684803013       -7.18765190407334       -0.00458958756627
H            1.93707405373205       -5.94682381094671       -0.74636219043662
H           -1.85300109996753       -6.58475004940498       -0.77156892665893
H           -3.70092306741191       -3.02818934027958       -0.24209151413775
H           -5.75582681227288       -1.66068629846157       -0.10192511811834
H           -5.56389335001302       -0.56794086388224        2.23599796653776
H           -7.12823194246732       -0.75672101294303        4.10730191815490
H           -9.21494452582691        0.57748640502739        4.12709581191850
H           -9.67644090030376        2.13458249428371        2.24553429338205
H           -8.59931958747013        4.12698753167567       -1.71414957403267
H           -7.15131113943116        4.41816890397674       -3.71329678927374
H           -5.11365141107986        3.02870233505240       -3.94189575637903
H           -4.51940379724993        1.41874856382987       -2.19898957686164
H           -3.38742916988755        1.88890439584331        0.07869691293415
H           -1.32998606071994        0.51060904745458       -0.05994202096091
H            1.34390844449250        0.44804192542728        0.33920897745209
H            3.41022889762463        1.80649542053957        0.52788921098266
H            4.64767296066984        0.65127524813588        2.52016605378343
H            5.35830098603568        1.62788659426470        4.64845469094568
H            7.41108536640678        3.00890553643318        4.76214596490192
H            8.75325389873863        3.35902352302857        2.69975331522556
H            9.58771156824555        2.72264063466521       -1.74287673956224
H            9.00026804777722        1.83988119570546       -3.99072492668590
H            6.89642025339035        0.56496908310263       -4.27691810287378
H            5.43572422866651        0.15245546954991       -2.35641006786600
H            5.74521903958091       -1.63161616950065       -0.45136811317808
H            3.67317913007846       -2.97901936860177       -0.63562218857891

          :  Hamiltonian                  GFN2-xTB          :
         :: gradient norm              0.000061501990 Eh/a0 ::
         :: HOMO-LUMO gap              1.395726598458 eV    ::
         :: SCC energy              -132.185193558048 Eh    ::
         :: -> dispersion             -0.107213653088 Eh    ::
         :: repulsion energy           2.193374224841 Eh    ::

    * Orbital Energies and Occupations

         #    Occupation            Energy/Eh            Energy/eV
      -------------------------------------------------------------
         1        2.0000           -0.7233649             -19.6838
       ...           ...                  ...                  ...
       107        2.0000           -0.4129113             -11.2359
       108        2.0000           -0.4116207             -11.2008
       109        2.0000           -0.4113519             -11.1935
       110        2.0000           -0.4082223             -11.1083
       111        2.0000           -0.4078140             -11.0972
       112        2.0000           -0.4071114             -11.0781
       113        2.0000           -0.3942224             -10.7273
       114        2.0000           -0.3926230             -10.6838
       115        2.0000           -0.3857294             -10.4962
       116        2.0000           -0.3850254             -10.4771
       117        2.0000           -0.3640538              -9.9064
       118        2.0000           -0.3385082              -9.2113
       119        2.0000           -0.3383648              -9.2074 (HOMO)
       120                         -0.2870728              -7.8116 (LUMO)
       121                         -0.2641578              -7.1881
       122                         -0.2343615              -6.3773
       123                         -0.2339930              -6.3673
       124                         -0.2323832              -6.3235
       125                         -0.2306813              -6.2772
       126                         -0.2252221              -6.1286
       127                         -0.2248609              -6.1188
       128                         -0.2216810              -6.0322
       129                         -0.2136665              -5.8142
       130                         -0.2097778              -5.7083
       ...                                ...                  ...
       228                          0.6922928              18.8382
      -------------------------------------------------------------
                  HL-Gap            0.0512920 Eh            1.3957 eV

     #   Z          covCN         q      C6AA      α(0)
     1   6 C        3.689    -0.049    21.645     6.659
     2   7 N        2.817    -0.043    22.071     6.978
     3   6 C        3.182     0.101    25.352     8.218
     4   7 N        1.884    -0.277    28.036     7.849
     5   6 C        3.205     0.033    26.676     8.412
     6   6 C        2.944     0.100    25.775     8.327
     7   6 C        2.979     0.005    27.910     8.666
     8   6 C        2.922    -0.034    28.842     8.807
     9   6 C        2.920    -0.040    28.998     8.831
    10   6 C        2.921     0.068    26.480     8.439
    11   7 N        2.751    -0.069    22.581     7.058
    12   6 C        2.922     0.043    27.041     8.528
    13   6 C        2.924    -0.060    29.492     8.906
    14   6 C        2.919    -0.039    28.964     8.825
    15   6 C        2.919    -0.041    29.011     8.833
    16   6 C        2.920    -0.057    29.406     8.893
    17   6 C        2.884     0.124    25.269     8.241
    18   8 O        1.709    -0.256    18.240     5.766
    19   6 C        2.884     0.124    25.269     8.241
    20   6 C        2.920    -0.057    29.406     8.893
    21   6 C        2.919    -0.041    29.011     8.833
    22   6 C        2.919    -0.039    28.965     8.826
    23   6 C        2.924    -0.060    29.494     8.906
    24   6 C        2.922     0.043    27.041     8.528
    25   6 C        2.920    -0.041    29.019     8.834
    26   6 C        2.924    -0.026    28.641     8.776
    27   7 N        1.854    -0.277    28.036     7.848
    28   6 C        2.974     0.176    24.212     8.071
    29   6 C        2.984     0.001    27.990     8.678
    30   6 C        2.924    -0.027    28.677     8.782
    31   6 C        2.920    -0.040    28.998     8.831
    32   6 C        2.922     0.068    26.489     8.440
    33   7 N        2.751    -0.070    22.605     7.061
    34   6 C        2.922     0.043    27.042     8.528
    35   6 C        2.924    -0.060    29.504     8.908
    36   6 C        2.919    -0.039    28.966     8.826
    37   6 C        2.919    -0.041    29.017     8.833
    38   6 C        2.920    -0.057    29.407     8.893
    39   6 C        2.884     0.124    25.273     8.242
    40   8 O        1.709    -0.256    18.248     5.768
    41   6 C        2.884     0.124    25.272     8.242
    42   6 C        2.920    -0.057    29.409     8.893
    43   6 C        2.919    -0.041    29.019     8.834
    44   6 C        2.919    -0.039    28.969     8.826
    45   6 C        2.924    -0.060    29.503     8.907
    46   6 C        2.922     0.043    27.041     8.528
    47   6 C        2.920    -0.041    29.009     8.832
    48   6 C        2.924    -0.028    28.689     8.784
    49   7 N        1.836    -0.302    28.666     7.934
    50   6 C        3.161     0.138    24.708     8.126
    51   1 H        0.924     0.061     2.186     2.312
    52   1 H        0.924     0.061     2.186     2.312
    53   1 H        0.925     0.085     1.928     2.172
    54   1 H        0.926     0.046     2.373     2.409
    55   1 H        0.926     0.073     2.049     2.239
    56   1 H        0.926     0.044     2.402     2.424
    57   1 H        0.926     0.036     2.504     2.474
    58   1 H        0.926     0.035     2.514     2.479
    59   1 H        0.926     0.037     2.490     2.468
    60   1 H        0.926     0.049     2.327     2.386
    61   1 H        0.926     0.049     2.327     2.385
    62   1 H        0.926     0.037     2.489     2.467
    63   1 H        0.926     0.035     2.513     2.479
    64   1 H        0.926     0.036     2.506     2.476
    65   1 H        0.926     0.043     2.410     2.428
    66   1 H        0.926     0.060     2.198     2.318
    67   1 H        0.926     0.060     2.198     2.318
    68   1 H        0.926     0.044     2.390     2.418
    69   1 H        0.926     0.035     2.516     2.481
    70   1 H        0.926     0.035     2.516     2.481
    71   1 H        0.926     0.037     2.491     2.468
    72   1 H        0.926     0.049     2.328     2.386
    73   1 H        0.926     0.049     2.329     2.386
    74   1 H        0.926     0.037     2.493     2.469
    75   1 H        0.926     0.035     2.521     2.483
    76   1 H        0.926     0.035     2.521     2.483
    77   1 H        0.926     0.043     2.408     2.427
    78   1 H        0.926     0.056     2.244     2.342

molecular dipole:
                 x           y           z       tot (Debye)
 q only:        0.293      -1.370      -0.166
   full:        0.347      -1.944      -0.242       5.056

 projected vibrational frequencies (cm⁻¹)
eigval :       -0.00    -0.00     0.00     0.00     0.00     0.00
eigval :        5.47     7.48    13.81    19.44    22.38    26.03
eigval :       36.46    46.63    55.99    57.93    61.23    61.67
eigval :       64.45    70.74    95.15   112.93   115.68   122.76
eigval :      129.06   141.97   160.30   184.75   188.86   196.18
eigval :      215.32   245.34   247.80   254.09   255.73   258.50
eigval :      267.50   273.82   287.00   309.06   333.88   344.77
eigval :      369.52   372.69   374.59   375.74   382.63   391.31
eigval :      403.33   410.22   419.87   424.86   428.60   429.90
eigval :      434.47   446.66   448.84   474.98   490.49   510.19
eigval :      510.41   518.72   522.22   522.54   543.49   549.15
eigval :      567.21   584.69   586.78   590.07   602.06   602.80
eigval :      610.68   620.72   629.56   651.65   655.18   658.92
eigval :      660.59   661.22   661.31   661.64   684.96   696.04
eigval :      706.45   709.80   732.87   750.98   778.62   778.72
eigval :      778.92   779.06   794.69   801.31   825.64   828.08
eigval :      828.79   829.76   854.67   855.00   863.39   863.66
eigval :      865.12   865.81   875.99   879.20   891.58   896.14
eigval :      896.70   897.30   897.73   907.49   913.63   914.01
eigval :      914.45   914.72   917.49   917.91   925.26   928.53
eigval :      932.17   934.86   937.35   956.42  1015.27  1019.06
eigval :     1041.20  1090.06  1090.32  1091.14  1091.35  1100.52
eigval :     1106.72  1108.00  1108.21  1118.77  1121.02  1121.65
eigval :     1129.19  1136.48  1164.04  1171.29  1171.80  1175.80
eigval :     1175.86  1180.41  1183.01  1188.78  1190.45  1200.96
eigval :     1201.49  1219.62  1223.47  1237.65  1242.82  1243.07
eigval :     1255.16  1261.94  1262.11  1262.64  1283.21  1295.14
eigval :     1309.87  1311.01  1311.22  1315.13  1320.86  1322.41
eigval :     1334.51  1340.43  1341.47  1353.00  1356.80  1370.37
eigval :     1395.33  1400.15  1407.41  1422.27  1424.75  1427.59
eigval :     1443.11  1443.46  1446.24  1456.57  1468.71  1476.92
eigval :     1482.82  1488.70  1488.79  1489.83  1505.74  1506.83
eigval :     1547.85  1556.83  1565.98  1567.23  1568.35  1577.34
eigval :     1580.70  1580.91  1587.85  1590.22  1591.43  1597.18
eigval :     1603.64  1604.04  2982.87  2995.92  3039.54  3083.86
eigval :     3084.03  3085.53  3086.19  3087.77  3088.09  3088.22
eigval :     3088.33  3097.97  3098.27  3098.36  3098.47  3105.40
eigval :     3106.12  3106.19  3106.75  3109.36  3111.50  3111.98
eigval :     3112.02  3112.08  3112.57  3112.65  3114.83  3158.56

   temp. (K)  partition function   enthalpy   heat capacity  entropy
                                   cal/mol     cal/K/mol   cal/K/mol   J/K/mol
 298.15  VIB  0.114E+20            23041.391    143.802    145.329
         ROT  0.142E+09              888.752      2.981     40.287
         INT  0.162E+28            23930.143    146.783    185.616
         TR   0.160E+29             1481.254      4.968     45.271
         TOT                       25411.3971   151.7512   230.8874   966.0329

       T/K    H(0)-H(T)+PV         H(T)/Eh          T*S/Eh         G(T)/Eh
   ------------------------------------------------------------------------
    298.15    0.404956E-01    0.625795E+00    0.109702E+00    0.516093E+00
   ------------------------------------------------------------------------

         :::::::::::::::::::::::::::::::::::::::::::::::::::::
         ::                  THERMODYNAMIC                  ::
         :::::::::::::::::::::::::::::::::::::::::::::::::::::
         :: total free energy        -129.475725958348 Eh   ::
         ::.................................................::
         :: total energy             -129.991819333206 Eh   ::
         :: zero point energy           0.585299787136 Eh   ::
         :: G(RRHO) w/o ZPVE           -0.069206412278 Eh   ::
         :: G(RRHO) contrib.            0.516093374858 Eh   ::
         :::::::::::::::::::::::::::::::::::::::::::::::::::::

           -------------------------------------------------
          | TOTAL ENERGY             -129.991819333206 Eh   |
          | TOTAL ENTHALPY           -129.366023907198 Eh   |
          | TOTAL FREE ENERGY        -129.475725958348 Eh   |
          | GRADIENT NORM               0.000061504412 Eh/α |
          | HOMO-LUMO GAP               1.395725663593 eV   |
           -------------------------------------------------

 * finished run on 2025/08/25 at 02:56:16.272
