   * xtb version 6.7.1 (edcfbbe) compiled by 'albert@albert-system' on 2024-07-22

   ID    Z sym.   atoms
    1    6 C      1, 3, 5-10, 12-17, 19-26, 28-32, 34-39, 41-48, 50
    2    7 N      2, 4, 11, 27, 33, 49
    3    8 O      18, 40
    4    1 H      51-78

          program call               : xtb data2507/gas/2PXZP/2PXZP_gas_S0_crest.xyz --gfn 2 --ohess vtight --parallel 40 --molden --ceasefiles --namespace data2507/gas/2PXZP/2PXZP_gas_S0_finalOpt
          :  Hamiltonian                  GFN2-xTB          :
 * total energy  :  -129.9919192 Eh     change       -0.3737796E-08 Eh
 * total energy  :  -129.9919201 Eh     change       -0.8239189E-06 Eh
 * total energy  :  -129.9919209 Eh     change       -0.8813850E-06 Eh
 * total energy  :  -129.9919229 Eh     change       -0.1954342E-05 Eh
 * total energy  :  -129.9919238 Eh     change       -0.9380052E-06 Eh
 * total energy  :  -129.9919245 Eh     change       -0.6148062E-06 Eh
 * total energy  :  -129.9919254 Eh     change       -0.9383439E-06 Eh
 * total energy  :  -129.9919267 Eh     change       -0.1262157E-05 Eh
 * total energy  :  -129.9919277 Eh     change       -0.1008408E-05 Eh
 * total energy  :  -129.9919285 Eh     change       -0.8422608E-06 Eh
 * total energy  :  -129.9919315 Eh     change       -0.6349651E-06 Eh
 * total energy  :  -129.9919321 Eh     change       -0.5470654E-06 Eh
 * total energy  :  -129.9919326 Eh     change       -0.4584271E-06 Eh
 * total energy  :  -129.9919329 Eh     change       -0.3522143E-06 Eh
 * total energy  :  -129.9919333 Eh     change       -0.3534184E-06 Eh
 * total energy  :  -129.9919336 Eh     change       -0.3707495E-06 Eh
 * total energy  :  -129.9919341 Eh     change       -0.4581111E-06 Eh
 * total energy  :  -129.9919345 Eh     change       -0.4079432E-06 Eh
 * total energy  :  -129.9919345 Eh     change       -0.3598842E-08 Eh
   *** GEOMETRY OPTIMIZATION CONVERGED AFTER 22 ITERATIONS ***

 final structure:
================
78
 xtb: 6.7.1 (edcfbbe)
C            0.96676016950316       -6.55019549887202       -0.08730714763771
N           -0.04774724409352       -5.53510761716833       -0.09470908125028
C           -1.40203466848853       -5.69255752375033       -0.13798462690810
N           -2.06990362976385       -4.57985357075734       -0.13240010209122
C           -1.12179173480976       -3.59002739844444       -0.08194379584247
C           -1.14268559575194       -2.18778425534826       -0.04673350457895
C           -2.35803235245344       -1.38251540444024       -0.06235409085479
C           -3.61045903364952       -1.97715517240051       -0.22345264782322
C           -4.75000162142831       -1.20034284497289       -0.24733964037738
C           -4.66256685032245        0.18292331258467       -0.10472572619838
N           -5.82808372086254        0.97568730739586       -0.13191952447537
C           -6.82619512952509        0.80762161533613        0.83090167121766
C           -6.69993572542046       -0.09079698854670        1.88322427334561
C           -7.70957460146269       -0.23057280930678        2.82332589570371
C           -8.85618953570195        0.53216130355556        2.73581256614661
C           -8.98329628188626        1.45797220758766        1.71073265513032
C           -7.97880131274873        1.60278317728656        0.77225745126371
O           -8.16339193800574        2.56380658637878       -0.19057144537036
C           -7.17067750713723        2.72133871169124       -1.12555372150975
C           -7.37359466491097        3.68476133226074       -2.09583021880127
C           -6.43242066324006        3.88141768714093       -3.09563091427097
C           -5.29985330312423        3.09374410193503       -3.12611517333693
C           -5.09059647912880        2.12730213722687       -2.15404653508401
C           -6.00672323937804        1.94071970752951       -1.12620185965516
C           -3.41396103112043        0.77928751594037        0.06415585970419
C           -2.27553500276984        0.00383623589567        0.08196530407994
N            0.02439663591168       -1.55200641299432        0.00247891716369
C            1.17730788438023       -2.21777144128246        0.01599040914002
C            2.40382829172148       -1.42062080093058        0.06021129862069
C            2.34259615660263       -0.02835379852825        0.01790228068165
C            3.49745061753017        0.72422259901641        0.05205552518992
C            4.73848309033406        0.09693611016966        0.13264200451743
N            5.92250117885958        0.86398836844418        0.16592143080629
C            6.17999956112361        1.72895226068815        1.23149256905990
C            5.31985811103165        1.84776278864145        2.31587786153972
C            5.60850634331733        2.71393989945163        3.35971924996439
C            6.76467578742640        3.46681389404575        3.34309789857529
C            7.64870935536744        3.33753997940779        2.28172055980439
C            7.36683374835709        2.47433948786878        1.23978547309113
O            8.30511154540111        2.37774040612570        0.24170731676219
C            8.03756502379864        1.52125961815849       -0.79754275098580
C            8.98257432884085        1.44255711261459       -1.80303821022714
C            8.77003895338875        0.62241076205508       -2.90167413000166
C            7.59900771138868       -0.10166969510793       -2.99245863636406
C            6.64839953317969       -0.02787795672555       -1.98549279786656
C            6.85977149058061        0.76460447530623       -0.86418607335292
C            4.80511934747153       -1.29373606277116        0.17777724790292
C            3.64863630266281       -2.04356137829445        0.14007557674642
N            1.31427051361147       -3.54530015871045       -0.01094482823287
C            0.16145165430737       -4.18876773577950       -0.05729565037060
H            0.89297314049444       -7.17182236543531       -0.98157854515814
H            0.86914336074117       -7.18409080785379        0.79624587737160
H            1.93369130807115       -6.05034743783208       -0.07038542589802
H           -1.85945635115608       -6.66275901039199       -0.17417541294409
H           -3.67579171868398       -3.04782233370899       -0.33640608958903
H           -5.71885371338205       -1.65772060742408       -0.38505896484298
H           -5.80192416466380       -0.68123229524960        1.97434304059215
H           -7.58591164672281       -0.94076259093478        3.62645333908712
H           -9.64669246705889        0.42380545691433        3.46154309139865
H           -9.85625741461894        2.08507246458005        1.62440083135213
H           -8.27968776725196        4.26785265002159       -2.05403249311142
H           -6.59768932319736        4.63791381220233       -3.84643211219516
H           -4.56771000587012        3.21961098762167       -3.90894427691244
H           -4.20952301427488        1.50696614412059       -2.20122698565994
H           -3.35055325015263        1.85076010693177        0.18662806982524
H           -1.30401483501038        0.45122010997103        0.21804214541973
H            1.37703963450735        0.44556588463318       -0.05283608792360
H            3.45114804837818        1.80267411001231        0.00994513515337
H            4.42071620758553        1.25282666604864        2.34926724347372
H            4.91945823383868        2.78919588798204        4.18691873220487
H            6.99203457061831        4.14490477225429        4.15044813139557
H            8.57010517307899        3.89659136837829        2.24631619954235
H            9.87776099050745        2.03645001995105       -1.70986079396192
H            9.51454439602551        0.56540285828591       -3.68000406582535
H            7.40991615902048       -0.72933555064648       -3.84982079548341
H            5.72982729702547       -0.58606050420490       -2.07646621911059
H            5.76969080031891       -1.77536768161524        0.24640031525629
H            3.68961635522131       -3.12047837421687        0.17877149465247

          :  Hamiltonian                  GFN2-xTB          :
         :: gradient norm              0.000044096517 Eh/a0 ::
         :: HOMO-LUMO gap              1.413256874081 eV    ::
         :: SCC energy              -132.185198476305 Eh    ::
         :: -> dispersion             -0.107270761099 Eh    ::
         :: repulsion energy           2.193263975092 Eh    ::

    * Orbital Energies and Occupations

         #    Occupation            Energy/Eh            Energy/eV
      -------------------------------------------------------------
         1        2.0000           -0.7235718             -19.6894
       ...           ...                  ...                  ...
       107        2.0000           -0.4126636             -11.2291
       108        2.0000           -0.4117397             -11.2040
       109        2.0000           -0.4115273             -11.1982
       110        2.0000           -0.4082540             -11.1092
       111        2.0000           -0.4078491             -11.0981
       112        2.0000           -0.4068781             -11.0717
       113        2.0000           -0.3938677             -10.7177
       114        2.0000           -0.3924747             -10.6798
       115        2.0000           -0.3857980             -10.4981
       116        2.0000           -0.3849903             -10.4761
       117        2.0000           -0.3636341              -9.8950
       118        2.0000           -0.3386590              -9.2154
       119        2.0000           -0.3385987              -9.2137 (HOMO)
       120                         -0.2866625              -7.8005 (LUMO)
       121                         -0.2639190              -7.1816
       122                         -0.2344266              -6.3791
       123                         -0.2341734              -6.3722
       124                         -0.2321097              -6.3160
       125                         -0.2304462              -6.2708
       126                         -0.2253103              -6.1310
       127                         -0.2249887              -6.1223
       128                         -0.2216095              -6.0303
       129                         -0.2137334              -5.8160
       130                         -0.2098015              -5.7090
       ...                                ...                  ...
       228                          0.6927962              18.8519
      -------------------------------------------------------------
                  HL-Gap            0.0519362 Eh            1.4133 eV

     #   Z          covCN         q      C6AA      α(0)
     1   6 C        3.689    -0.049    21.643     6.659
     2   7 N        2.817    -0.043    22.075     6.978
     3   6 C        3.182     0.101    25.353     8.218
     4   7 N        1.884    -0.277    28.038     7.850
     5   6 C        3.205     0.033    26.677     8.412
     6   6 C        2.944     0.100    25.776     8.327
     7   6 C        2.979     0.005    27.913     8.666
     8   6 C        2.922    -0.034    28.839     8.806
     9   6 C        2.920    -0.040    29.006     8.832
    10   6 C        2.921     0.068    26.486     8.440
    11   7 N        2.751    -0.069    22.571     7.056
    12   6 C        2.922     0.043    27.044     8.528
    13   6 C        2.924    -0.060    29.491     8.906
    14   6 C        2.919    -0.039    28.964     8.825
    15   6 C        2.919    -0.041    29.009     8.832
    16   6 C        2.920    -0.057    29.405     8.892
    17   6 C        2.884     0.124    25.268     8.241
    18   8 O        1.709    -0.256    18.237     5.766
    19   6 C        2.884     0.124    25.267     8.241
    20   6 C        2.920    -0.057    29.405     8.892
    21   6 C        2.919    -0.041    29.008     8.832
    22   6 C        2.919    -0.039    28.965     8.826
    23   6 C        2.924    -0.060    29.493     8.906
    24   6 C        2.922     0.043    27.044     8.528
    25   6 C        2.920    -0.041    29.025     8.835
    26   6 C        2.924    -0.026    28.641     8.776
    27   7 N        1.854    -0.277    28.042     7.849
    28   6 C        2.974     0.176    24.215     8.072
    29   6 C        2.984     0.001    27.997     8.679
    30   6 C        2.924    -0.027    28.680     8.782
    31   6 C        2.920    -0.040    29.004     8.832
    32   6 C        2.922     0.067    26.493     8.441
    33   7 N        2.751    -0.070    22.597     7.060
    34   6 C        2.922     0.043    27.043     8.528
    35   6 C        2.924    -0.060    29.502     8.907
    36   6 C        2.919    -0.039    28.966     8.826
    37   6 C        2.919    -0.041    29.015     8.833
    38   6 C        2.920    -0.057    29.407     8.893
    39   6 C        2.884     0.124    25.273     8.242
    40   8 O        1.709    -0.256    18.246     5.767
    41   6 C        2.884     0.124    25.271     8.241
    42   6 C        2.920    -0.057    29.409     8.893
    43   6 C        2.919    -0.041    29.017     8.834
    44   6 C        2.919    -0.039    28.970     8.826
    45   6 C        2.924    -0.060    29.503     8.907
    46   6 C        2.922     0.043    27.043     8.528
    47   6 C        2.920    -0.041    29.014     8.833
    48   6 C        2.924    -0.028    28.692     8.784
    49   7 N        1.836    -0.302    28.673     7.935
    50   6 C        3.160     0.138    24.709     8.126
    51   1 H        0.924     0.061     2.187     2.313
    52   1 H        0.924     0.061     2.188     2.313
    53   1 H        0.925     0.085     1.929     2.172
    54   1 H        0.926     0.046     2.375     2.410
    55   1 H        0.926     0.073     2.055     2.242
    56   1 H        0.926     0.043     2.403     2.424
    57   1 H        0.926     0.037     2.494     2.470
    58   1 H        0.926     0.035     2.511     2.478
    59   1 H        0.926     0.037     2.489     2.467
    60   1 H        0.926     0.049     2.326     2.385
    61   1 H        0.926     0.050     2.326     2.385
    62   1 H        0.926     0.037     2.488     2.467
    63   1 H        0.926     0.035     2.511     2.478
    64   1 H        0.926     0.036     2.499     2.472
    65   1 H        0.926     0.043     2.412     2.429
    66   1 H        0.926     0.060     2.203     2.321
    67   1 H        0.926     0.060     2.196     2.317
    68   1 H        0.926     0.044     2.393     2.419
    69   1 H        0.926     0.036     2.509     2.477
    70   1 H        0.926     0.035     2.514     2.479
    71   1 H        0.926     0.037     2.490     2.468
    72   1 H        0.926     0.049     2.328     2.386
    73   1 H        0.926     0.049     2.328     2.386
    74   1 H        0.926     0.037     2.493     2.469
    75   1 H        0.926     0.035     2.521     2.483
    76   1 H        0.926     0.035     2.516     2.481
    77   1 H        0.926     0.043     2.410     2.428
    78   1 H        0.926     0.056     2.243     2.342

molecular dipole:
                 x           y           z       tot (Debye)
 q only:        0.274      -1.352      -0.010
   full:        0.324      -1.930      -0.018       4.974

 projected vibrational frequencies (cm⁻¹)
eigval :       -0.00    -0.00     0.00     0.00     0.00     0.00
eigval :        5.15     7.70    14.06    19.74    22.32    26.24
eigval :       36.33    47.54    56.72    59.47    61.56    62.16
eigval :       65.00    70.47    95.91   113.21   116.58   124.40
eigval :      128.07   143.68   159.55   185.75   189.74   196.75
eigval :      215.78   245.13   247.66   254.88   255.76   258.84
eigval :      267.12   273.92   287.99   309.88   334.22   345.75
eigval :      369.91   372.45   374.96   376.35   383.97   389.98
eigval :      403.14   410.47   420.14   424.70   429.14   430.35
eigval :      435.07   447.12   448.64   475.44   490.70   510.16
eigval :      510.38   518.75   522.36   522.78   543.26   549.12
eigval :      567.16   584.95   586.80   590.12   602.05   602.82
eigval :      610.61   621.16   629.66   651.61   655.54   658.46
eigval :      660.66   661.34   661.53   661.82   684.82   695.86
eigval :      706.26   709.55   732.80   750.91   778.72   778.92
eigval :      779.05   779.22   794.79   801.40   826.04   827.83
eigval :      829.00   829.70   854.87   855.22   863.47   863.82
eigval :      865.50   866.42   876.18   879.37   891.63   896.36
eigval :      897.09   897.48   898.03   907.44   913.65   914.07
eigval :      914.52   914.89   917.50   917.69   925.82   929.11
eigval :      932.62   934.55   937.99   956.36  1015.20  1018.92
eigval :     1041.22  1090.23  1090.53  1091.27  1091.60  1100.59
eigval :     1106.69  1108.00  1108.31  1118.85  1121.14  1121.79
eigval :     1129.57  1136.42  1163.99  1171.43  1171.76  1175.74
eigval :     1175.82  1180.58  1183.20  1189.03  1190.80  1201.21
eigval :     1201.83  1219.77  1223.37  1237.75  1242.83  1243.12
eigval :     1255.31  1262.01  1262.07  1262.92  1283.29  1295.17
eigval :     1309.74  1310.96  1311.12  1314.85  1321.03  1322.37
eigval :     1334.40  1339.93  1341.21  1352.67  1356.48  1370.25
eigval :     1395.34  1400.26  1407.71  1422.13  1424.73  1427.65
eigval :     1443.17  1443.45  1446.15  1456.65  1468.74  1476.92
eigval :     1482.74  1488.27  1488.81  1489.50  1505.50  1506.67
eigval :     1547.68  1556.41  1565.85  1567.29  1568.26  1577.07
eigval :     1580.63  1580.88  1587.66  1590.22  1591.37  1597.14
eigval :     1603.49  1603.96  2982.65  2996.08  3039.30  3083.83
eigval :     3083.97  3085.45  3086.22  3087.73  3088.26  3088.39
eigval :     3088.50  3098.10  3098.40  3098.56  3098.69  3105.70
eigval :     3106.43  3106.71  3107.26  3109.60  3111.45  3111.90
eigval :     3112.05  3112.14  3112.62  3112.72  3115.28  3158.48

   temp. (K)  partition function   enthalpy   heat capacity  entropy
                                   cal/mol     cal/K/mol   cal/K/mol   J/K/mol
 298.15  VIB  0.102E+20            23021.889    143.843    145.165
         ROT  0.141E+09              888.752      2.981     40.274
         INT  0.144E+28            23910.641    146.824    185.439
         TR   0.160E+29             1481.254      4.968     45.271
         TOT                       25391.8952   151.7918   230.7100   965.2906

       T/K    H(0)-H(T)+PV         H(T)/Eh          T*S/Eh         G(T)/Eh
   ------------------------------------------------------------------------
    298.15    0.404646E-01    0.625827E+00    0.109618E+00    0.516209E+00
   ------------------------------------------------------------------------

         :::::::::::::::::::::::::::::::::::::::::::::::::::::
         ::                  THERMODYNAMIC                  ::
         :::::::::::::::::::::::::::::::::::::::::::::::::::::
         :: total free energy        -129.475725399193 Eh   ::
         ::.................................................::
         :: total energy             -129.991934501212 Eh   ::
         :: zero point energy           0.585362298194 Eh   ::
         :: G(RRHO) w/o ZPVE           -0.069153196176 Eh   ::
         :: G(RRHO) contrib.            0.516209102019 Eh   ::
         :::::::::::::::::::::::::::::::::::::::::::::::::::::

           -------------------------------------------------
          | TOTAL ENERGY             -129.991934501212 Eh   |
          | TOTAL ENTHALPY           -129.366107642329 Eh   |
          | TOTAL FREE ENERGY        -129.475725399193 Eh   |
          | GRADIENT NORM               0.000044096056 Eh/α |
          | HOMO-LUMO GAP               1.413256965796 eV   |
           -------------------------------------------------

 * finished run on 2025/08/25 at 03:00:21.372
