   * xtb version 6.7.1 (edcfbbe) compiled by 'albert@albert-system' on 2024-07-22

   ID    Z sym.   atoms
    1    6 C      1-12, 14, 16-18, 20-38, 40-58
    2    7 N      13, 19, 39
    3    8 O      15, 59
    4    1 H      60-108

          program call               : xtb data2507/toluene/2DN/2DN.xyz --gfn 2 --gbsa toluene --ohess vtight --parallel 40 --molden --ceasefiles --namespace data2507/toluene/2DN/2DN_toluene_S0_preOpt
      * Solvation model:               GBSA
        Solvent                        toluene
        Solvent mass                       9.2140E+01 g/mol
          :  Hamiltonian                  GFN2-xTB          :
 * total energy  :  -157.7094932 Eh     change       -0.1400679E-08 Eh
 * total energy  :  -157.7317247 Eh     change       -0.2223143E-01 Eh
 * total energy  :  -157.7396702 Eh     change       -0.7945582E-02 Eh
 * total energy  :  -157.7411942 Eh     change       -0.1523973E-02 Eh
 * total energy  :  -157.7419848 Eh     change       -0.7906195E-03 Eh
 * total energy  :  -157.7423133 Eh     change       -0.3285144E-03 Eh
 * total energy  :  -157.7424283 Eh     change       -0.1149713E-03 Eh
 * total energy  :  -157.7424825 Eh     change       -0.5418877E-04 Eh
 * total energy  :  -157.7425188 Eh     change       -0.3629484E-04 Eh
 * total energy  :  -157.7425341 Eh     change       -0.1532094E-04 Eh
 * total energy  :  -157.7426320 Eh     change       -0.2958326E-05 Eh
 * total energy  :  -157.7426349 Eh     change       -0.2912971E-05 Eh
 * total energy  :  -157.7426371 Eh     change       -0.2169119E-05 Eh
 * total energy  :  -157.7426384 Eh     change       -0.1373501E-05 Eh
 * total energy  :  -157.7426392 Eh     change       -0.8003726E-06 Eh
 * total energy  :  -157.7426398 Eh     change       -0.6086372E-06 Eh
 * total energy  :  -157.7426404 Eh     change       -0.5147447E-06 Eh
 * total energy  :  -157.7426408 Eh     change       -0.4183021E-06 Eh
 * total energy  :  -157.7426408 Eh     change       -0.2516970E-08 Eh
   *** GEOMETRY OPTIMIZATION CONVERGED AFTER 44 ITERATIONS ***

 final structure:
================
108
 xtb: 6.7.1 (edcfbbe)
C           -1.27937415114141        4.84288049292379        3.31698207174253
C           -0.01091552209036        4.52021965482994        2.52305168201831
C            1.25040066055305        4.85608448006733        3.32281822439540
C           -0.01257620704429        5.25529572649515        1.20302256315318
C           -0.01611753393546        6.64405081151119        1.17511012881047
C           -0.01714731771905        7.32872800032777       -0.02464383298994
C           -0.01528402170677        6.63629626022711       -1.21993230511782
C           -0.01289688045233        5.24738199771937       -1.23885135181184
C           -0.01106171355134        4.50373319911783       -2.55405890527971
C            1.25851127270383        4.82338306891377       -3.34744122208462
C           -1.27131408707889        4.83212758287752       -3.35854187201623
C           -0.01120762236474        4.57982840948429       -0.01574850496668
N           -0.00777918796571        3.13734018535792       -0.01093070747790
C           -1.24573261421188        2.51695705762682        0.00600690615946
O           -2.26896337942221        3.17359648075880        0.01410632981706
C           -1.22966818792211        1.04443810830465        0.01321386690723
C           -2.41871819523326        0.34797656932181        0.03052898135280
C           -2.41910811043296       -1.05684517556126        0.03613129838491
N           -3.65701725205672       -1.75182757828039        0.05031596914041
C           -4.27071778255672       -2.05484258648762       -1.15761691073102
C           -3.64234828279939       -1.70953142127374       -2.35719610589747
C           -4.22208743289303       -2.00706993929628       -3.57329582126690
C           -5.44236528365383       -2.65687743041783       -3.61229598523294
C           -6.06603777948774       -2.99696175683291       -2.42561332868457
C           -5.50654546534763       -2.70854835463321       -1.18790250296826
C           -6.24428320235892       -3.10539857667730        0.07769430846937
C           -7.61714581893615       -2.40688326981478        0.08657251013260
C           -6.42489315337890       -4.63501224242495        0.08523274691906
C           -5.48527025889604       -2.69830061826835        1.32735372864037
C           -6.02369870187771       -2.97652827395563        2.57668381090495
C           -5.37994202904469       -2.62696362144454        3.74979564207763
C           -4.16057943384341       -1.97751217008536        3.68481737569892
C           -3.60164867874677       -1.68978732842535        2.45668147042993
C           -4.25027081328025       -2.04475532540212        1.27080962202320
C           -1.23060219697255       -1.75052161858748        0.02582896207688
C            0.00249365644463       -1.06747981636999        0.00827537906307
C            1.23888994797086       -1.74463473374474       -0.00405932316058
C            2.42396601047959       -1.04531879393953       -0.02405793421842
N            3.66515224955113       -1.73445628749750       -0.03583139645408
C            4.27697537036592       -2.03769140315885        1.17299690047174
C            3.64464526297887       -1.69661896020612        2.37168497936028
C            4.22243697473157       -1.99449141165670        3.58862607719406
C            5.44518074734408       -2.63955973437194        3.62931737465860
C            6.07332924435155       -2.97439358502588        2.44350658193379
C            5.51562051427195       -2.68595472889829        1.20498935315284
C            6.25834696507197       -3.07673225467097       -0.05957890582675
C            7.62925759738461       -2.37441474517750       -0.06226222723720
C            6.44316641170631       -4.60584593189913       -0.07126031367213
C            5.50165668715548       -2.66848602660117       -1.31026533897978
C            6.04482094617452       -2.94099385585626       -2.55879208959911
C            5.40235764007673       -2.59199238442497       -3.73279015113427
C            4.17902178446892       -1.94989080898287       -3.66955067315795
C            3.61531619844354       -1.66802460717325       -2.44223086313011
C            4.26327470636596       -2.02120950414314       -1.25544122668419
C            2.41671222285759        0.35948179887394       -0.03152464229386
C            1.22430137418419        1.05027263156727       -0.01832850229836
C           -0.00098041183123        0.35133899149329        0.00119234037892
C            1.23315054819508        2.52285843033870       -0.02366399872372
O            2.25318094774802        3.18436509991550       -0.03779584074268
H           -2.16082358120571        4.60340401493837        2.72478052586259
H           -1.30552050204372        4.25721262501885        4.23345748564413
H           -1.31587258484733        5.89663982727797        3.57910297757615
H           -0.00474377480462        3.44107328884540        2.33222582640122
H            2.13726400734652        4.62732333023478        2.73447336521371
H            1.27402272477993        5.90973980537067        3.58671595166319
H            1.27892167090624        4.26947206377356        4.23862545048153
H           -0.01781562695434        7.19490601545231        2.10266352820546
H           -0.01941143758150        8.40872412385230       -0.02813847672920
H           -0.01580254645986        7.18114900859507       -2.15102454264300
H           -0.01585512057824        3.42586294845685       -2.35620228547430
H            1.28689111417376        4.23294834996784       -4.26078927111026
H            1.29444135657038        5.87581800661101       -3.61491743114773
H            2.13910717803636        4.58789710514506       -2.75236209207455
H           -2.15895836748506        4.60561695904226       -2.77051117028861
H           -1.29631583191119        5.88393590120239       -3.62952962864158
H           -1.29690049059904        4.23942625299162       -4.27050594195000
H           -3.35096396287402        0.89329434353385        0.03895717135388
H           -2.69092070340446       -1.20007212453014       -2.33571660593418
H           -3.71802162821334       -1.72940259851006       -4.48736529838700
H           -5.90667043605172       -2.89660072558747       -4.55699712950862
H           -7.01853978056803       -3.50241613269367       -2.47190488327622
H           -8.19891815382560       -2.68346078019983       -0.78819250430472
H           -7.48407687954685       -1.32619040191945        0.08254467153181
H           -8.18507222912568       -2.67866642114203        0.97187070697856
H           -6.96219074547523       -4.95657958626712        0.97298166173168
H           -6.98259859789237       -4.96270908671072       -0.78756892473370
H           -5.45228888187399       -5.12408862333499        0.07574015516925
H           -6.97535439211106       -3.48130347472624        2.64330180945372
H           -5.82806638087645       -2.85912040641671        4.70413741385136
H           -3.64102918389954       -1.69267711415551        4.58794862495026
H           -2.65076317087476       -1.18062492523218        2.41474621376145
H           -1.23806466628580       -2.83032517389299        0.03043115044415
H            1.25168434453042       -2.82437999825020        0.00210173378706
H            2.69175895139821       -1.18996917296523        2.34872658452083
H            3.71516732074923       -1.72042788165430        4.50200590846123
H            5.90813051754327       -2.87932010685819        4.57467407986927
H            7.02792403229733       -3.47576399286340        2.49116547423333
H            8.21024878890210       -2.65387316632421        0.81209667963074
H            8.19958354582281       -2.64014394919913       -0.94784931567748
H            7.49320313087295       -1.29413214455494       -0.05304530742223
H            6.98801097802959       -4.92282080559333       -0.95607065070762
H            6.99505536948101       -4.93515112395865        0.80463367013239
H            5.47179962955840       -5.09748074511582       -0.07082718185900
H            6.99910521239921       -3.44095158513146       -2.62406620726409
H            5.85424941631649       -2.81948719267443       -4.68648084474225
H            3.65995449256680       -1.66645382243204       -4.57339934309313
H            2.66090392168424       -1.16536438805004       -2.40174313364439
H            3.34625872204646        0.90924150426096       -0.04674405193999

          :  Hamiltonian                  GFN2-xTB          :
         :: gradient norm              0.000036798619 Eh/a0 ::
         :: HOMO-LUMO gap              0.601006695867 eV    ::
         :: SCC energy              -160.430562093405 Eh    ::
         :: -> dispersion             -0.152385916371 Eh    ::
         :: -> Gsolv                  -0.062986187440 Eh    ::
         :: repulsion energy           2.687921314307 Eh    ::

    * Orbital Energies and Occupations

         #    Occupation            Energy/Eh            Energy/eV
      -------------------------------------------------------------
         1        2.0000           -0.7323304             -19.9277
       ...           ...                  ...                  ...
       134        2.0000           -0.4111240             -11.1873
       135        2.0000           -0.4099288             -11.1547
       136        2.0000           -0.4096377             -11.1468
       137        2.0000           -0.4063246             -11.0567
       138        2.0000           -0.4063052             -11.0561
       139        2.0000           -0.4063017             -11.0560
       140        2.0000           -0.4005063             -10.8983
       141        2.0000           -0.4004986             -10.8981
       142        2.0000           -0.3982111             -10.8359
       143        2.0000           -0.3950992             -10.7512
       144        2.0000           -0.3950941             -10.7511
       145        2.0000           -0.3514960              -9.5647
       146        2.0000           -0.3506454              -9.5415 (HOMO)
       147        0.0000           -0.3285588              -8.9405 (LUMO)
       148                         -0.2695381              -7.3345
       149                         -0.2661276              -7.2417
       150                         -0.2462357              -6.7004
       151                         -0.2300154              -6.2590
       152                         -0.2283280              -6.2131
       153                         -0.2269472              -6.1755
       154                         -0.2269422              -6.1754
       155                         -0.2218501              -6.0368
       156                         -0.2218397              -6.0366
       157                         -0.2210329              -6.0146
       ...                                ...                  ...
       285                          0.7095596              19.3081
      -------------------------------------------------------------
                  HL-Gap            0.0220866 Eh            0.6010 eV

     #   Z          covCN         q      C6AA      α(0)
     1   6 C        3.755    -0.103    22.524     6.767
     2   6 C        3.854    -0.005    20.630     6.460
     3   6 C        3.755    -0.103    22.525     6.767
     4   6 C        2.972     0.006    27.885     8.662
     5   6 C        2.928    -0.038    28.943     8.823
     6   6 C        2.916    -0.033    28.825     8.804
     7   6 C        2.928    -0.038    28.943     8.823
     8   6 C        2.972     0.006    27.884     8.662
     9   6 C        3.854    -0.005    20.630     6.460
    10   6 C        3.755    -0.103    22.524     6.767
    11   6 C        3.755    -0.103    22.526     6.767
    12   6 C        2.945     0.066    26.523     8.447
    13   7 N        2.746    -0.108    23.365     7.179
    14   6 C        2.775     0.281    22.236     7.723
    15   8 O        0.859    -0.428    22.254     6.325
    16   6 C        2.974    -0.026    28.636     8.778
    17   6 C        2.923    -0.018    28.457     8.748
    18   6 C        2.921     0.081    26.196     8.393
    19   7 N        2.755    -0.073    22.649     7.068
    20   6 C        2.928     0.057    26.724     8.478
    21   6 C        2.924    -0.060    29.498     8.907
    22   6 C        2.919    -0.034    28.846     8.807
    23   6 C        2.917    -0.045    29.121     8.849
    24   6 C        2.928    -0.036    28.906     8.817
    25   6 C        2.979    -0.012    28.315     8.728
    26   6 C        3.908     0.021    20.161     6.382
    27   6 C        3.761    -0.104    22.537     6.768
    28   6 C        3.761    -0.105    22.546     6.769
    29   6 C        2.979    -0.012    28.315     8.729
    30   6 C        2.928    -0.036    28.906     8.817
    31   6 C        2.917    -0.045    29.121     8.849
    32   6 C        2.919    -0.034    28.846     8.807
    33   6 C        2.924    -0.060    29.497     8.907
    34   6 C        2.927     0.057    26.723     8.478
    35   6 C        2.921    -0.033    28.814     8.803
    36   6 C        2.983     0.024    27.457     8.595
    37   6 C        2.921    -0.033    28.814     8.803
    38   6 C        2.921     0.081    26.197     8.393
    39   7 N        2.755    -0.073    22.649     7.068
    40   6 C        2.928     0.057    26.724     8.478
    41   6 C        2.924    -0.060    29.498     8.907
    42   6 C        2.919    -0.034    28.846     8.807
    43   6 C        2.917    -0.045    29.121     8.849
    44   6 C        2.928    -0.036    28.906     8.817
    45   6 C        2.979    -0.012    28.315     8.728
    46   6 C        3.908     0.021    20.161     6.382
    47   6 C        3.761    -0.104    22.538     6.768
    48   6 C        3.761    -0.105    22.546     6.769
    49   6 C        2.979    -0.012    28.315     8.728
    50   6 C        2.928    -0.036    28.906     8.817
    51   6 C        2.917    -0.045    29.121     8.849
    52   6 C        2.919    -0.034    28.846     8.807
    53   6 C        2.924    -0.060    29.497     8.906
    54   6 C        2.928     0.057    26.723     8.478
    55   6 C        2.923    -0.018    28.457     8.748
    56   6 C        2.974    -0.026    28.636     8.778
    57   6 C        2.995     0.005    27.891     8.663
    58   6 C        2.775     0.281    22.236     7.723
    59   8 O        0.859    -0.428    22.254     6.325
    60   1 H        0.925     0.035     2.522     2.483
    61   1 H        0.925     0.041     2.436     2.441
    62   1 H        0.925     0.046     2.373     2.409
    63   1 H        0.924     0.011     2.873     2.651
    64   1 H        0.925     0.034     2.527     2.486
    65   1 H        0.925     0.046     2.371     2.408
    66   1 H        0.925     0.041     2.435     2.440
    67   1 H        0.926     0.049     2.331     2.388
    68   1 H        0.926     0.046     2.364     2.404
    69   1 H        0.926     0.049     2.331     2.388
    70   1 H        0.924     0.011     2.873     2.651
    71   1 H        0.925     0.041     2.436     2.441
    72   1 H        0.925     0.046     2.373     2.409
    73   1 H        0.925     0.035     2.522     2.483
    74   1 H        0.925     0.034     2.526     2.486
    75   1 H        0.925     0.046     2.371     2.408
    76   1 H        0.925     0.041     2.435     2.440
    77   1 H        0.926     0.074     2.046     2.237
    78   1 H        0.926     0.019     2.748     2.592
    79   1 H        0.926     0.028     2.615     2.529
    80   1 H        0.926     0.028     2.612     2.527
    81   1 H        0.926     0.036     2.508     2.477
    82   1 H        0.925     0.043     2.412     2.429
    83   1 H        0.925     0.030     2.587     2.515
    84   1 H        0.925     0.043     2.411     2.428
    85   1 H        0.925     0.043     2.409     2.427
    86   1 H        0.925     0.043     2.409     2.427
    87   1 H        0.925     0.032     2.560     2.502
    88   1 H        0.926     0.036     2.509     2.477
    89   1 H        0.926     0.028     2.612     2.528
    90   1 H        0.926     0.028     2.614     2.529
    91   1 H        0.926     0.019     2.747     2.592
    92   1 H        0.926     0.076     2.025     2.225
    93   1 H        0.926     0.076     2.025     2.225
    94   1 H        0.926     0.019     2.748     2.592
    95   1 H        0.926     0.028     2.614     2.528
    96   1 H        0.926     0.028     2.612     2.528
    97   1 H        0.926     0.036     2.509     2.477
    98   1 H        0.925     0.043     2.411     2.428
    99   1 H        0.925     0.043     2.412     2.428
   100   1 H        0.925     0.030     2.587     2.515
   101   1 H        0.925     0.043     2.409     2.427
   102   1 H        0.925     0.043     2.409     2.427
   103   1 H        0.925     0.032     2.560     2.502
   104   1 H        0.926     0.036     2.508     2.477
   105   1 H        0.926     0.028     2.612     2.527
   106   1 H        0.926     0.028     2.615     2.529
   107   1 H        0.926     0.019     2.748     2.592
   108   1 H        0.926     0.074     2.046     2.237

molecular dipole:
                 x           y           z       tot (Debye)
 q only:        0.005      -1.684       0.008
   full:        0.005      -1.738       0.008       4.418

 projected vibrational frequencies (cm⁻¹)
eigval :       -0.00    -0.00    -0.00    -0.00     0.00     0.00
eigval :        7.67    10.23    12.37    15.96    18.01    18.95
eigval :       28.23    30.97    32.31    41.12    41.60    46.69
eigval :       50.08    64.38    81.75    86.70    96.46    98.62
eigval :       98.85   104.96   107.30   122.01   124.83   130.22
eigval :      131.29   132.43   152.04   153.06   164.36   182.39
eigval :      191.80   192.30   192.76   202.87   212.77   220.42
eigval :      220.75   228.44   230.18   231.52   235.38   236.34
eigval :      240.58   262.31   269.77   273.36   290.88   291.22
eigval :      292.98   303.46   305.77   313.09   319.51   329.53
eigval :      329.67   338.95   344.68   345.87   348.25   378.54
eigval :      379.27   387.75   387.92   408.33   409.50   419.39
eigval :      420.74   446.65   447.19   449.50   452.58   456.66
eigval :      467.90   485.03   488.23   492.47   506.25   514.26
eigval :      514.64   520.08   525.38   533.65   544.28   546.88
eigval :      547.61   548.14   554.97   585.93   586.53   587.48
eigval :      589.38   611.82   615.48   626.42   634.57   647.41
eigval :      651.37   661.37   676.62   681.51   681.56   692.63
eigval :      692.67   696.73   702.03   704.54   710.69   726.89
eigval :      748.29   749.13   776.33   777.04   777.38   777.99
eigval :      810.69   814.42   821.84   823.56   834.29   836.65
eigval :      853.19   853.90   861.32   865.91   866.70   867.09
eigval :      867.95   900.70   901.57   906.99   911.72   912.31
eigval :      912.43   913.01   916.85   917.62   921.20   921.49
eigval :      921.66   921.82   926.62   936.40   938.71   938.81
eigval :      946.97   947.37   958.06   958.49   973.46   976.01
eigval :      989.19   989.67   999.87  1013.72  1014.55  1041.31
eigval :     1063.37  1076.25  1076.43  1076.83  1085.24  1087.79
eigval :     1096.33  1096.81  1111.10  1111.29  1117.23  1117.33
eigval :     1139.26  1139.35  1139.37  1140.54  1144.56  1147.10
eigval :     1158.95  1159.01  1162.02  1172.45  1174.17  1179.29
eigval :     1180.91  1181.61  1184.63  1184.85  1185.99  1186.29
eigval :     1193.58  1212.26  1227.16  1240.45  1241.23  1246.71
eigval :     1247.04  1247.43  1255.55  1260.58  1265.58  1266.12
eigval :     1292.40  1292.43  1292.80  1296.80  1297.16  1299.26
eigval :     1314.53  1316.77  1323.18  1323.21  1329.73  1331.94
eigval :     1332.10  1336.52  1336.59  1356.92  1357.77  1371.25
eigval :     1377.87  1401.26  1401.46  1401.84  1401.92  1416.74
eigval :     1417.15  1419.63  1420.31  1424.51  1427.29  1435.42
eigval :     1436.08  1439.50  1439.60  1452.85  1460.93  1477.03
eigval :     1477.36  1486.30  1486.47  1487.01  1487.23  1489.61
eigval :     1489.88  1491.07  1491.68  1492.27  1493.91  1494.01
eigval :     1496.11  1496.17  1497.66  1498.19  1502.67  1502.89
eigval :     1503.08  1503.55  1532.39  1574.93  1574.95  1578.21
eigval :     1585.78  1588.37  1590.23  1590.39  1590.40  1591.37
eigval :     1591.64  1599.59  1599.81  1660.83  1684.93  2926.79
eigval :     2927.75  3022.28  3022.30  3024.43  3024.44  3025.09
eigval :     3025.16  3027.60  3027.86  3029.63  3029.72  3031.07
eigval :     3031.58  3039.75  3039.84  3041.84  3041.88  3045.59
eigval :     3045.72  3048.26  3048.34  3048.61  3048.97  3052.69
eigval :     3052.70  3073.60  3073.62  3073.66  3073.70  3079.00
eigval :     3080.74  3080.81  3080.90  3080.92  3090.66  3090.68
eigval :     3090.88  3091.01  3093.86  3094.58  3096.44  3096.69
eigval :     3097.04  3097.44  3097.63  3098.43  3098.89  3100.06

   temp. (K)  partition function   enthalpy   heat capacity  entropy
                                   cal/mol     cal/K/mol   cal/K/mol   J/K/mol
 298.15  VIB  0.273E+26            31776.229    193.692    198.853
         ROT  0.740E+08              888.752      2.981     38.989
         INT  0.202E+34            32664.981    196.673    237.842
         TR   0.208E+29             1481.254      4.968     45.789
         TOT                       34146.2348   201.6410   283.6309  1186.7119

       T/K    H(0)-H(T)+PV         H(T)/Eh          T*S/Eh         G(T)/Eh
   ------------------------------------------------------------------------
    298.15    0.544155E-01    0.925099E+00    0.134762E+00    0.790337E+00
   ------------------------------------------------------------------------

         :::::::::::::::::::::::::::::::::::::::::::::::::::::
         ::                  THERMODYNAMIC                  ::
         :::::::::::::::::::::::::::::::::::::::::::::::::::::
         :: total free energy        -156.952304258167 Eh   ::
         ::.................................................::
         :: total energy             -157.742640778984 Eh   ::
         :: zero point energy           0.870683244688 Eh   ::
         :: G(RRHO) w/o ZPVE           -0.080346723871 Eh   ::
         :: G(RRHO) contrib.            0.790336520816 Eh   ::
         :::::::::::::::::::::::::::::::::::::::::::::::::::::

           -------------------------------------------------
          | TOTAL ENERGY             -157.742640778984 Eh   |
          | TOTAL ENTHALPY           -156.817542045432 Eh   |
          | TOTAL FREE ENERGY        -156.952304258167 Eh   |
          | GRADIENT NORM               0.000036801649 Eh/α |
          | HOMO-LUMO GAP               0.601006529865 eV   |
           -------------------------------------------------

 * finished run on 2025/08/24 at 15:06:07.127
