   * xtb version 6.7.1 (edcfbbe) compiled by 'albert@albert-system' on 2024-07-22

   ID    Z sym.   atoms
    1    6 C      1-12, 14, 16-18, 20-38, 40-58
    2    7 N      13, 19, 39
    3    8 O      15, 59
    4    1 H      60-108

          program call               : xtb data2507/toluene/2DN/2DN_toluene_S0_crest.xyz --gfn 2 --gbsa toluene --ohess vtight --parallel 40 --molden --ceasefiles --namespace data2507/toluene/2DN/2DN_toluene_S0_finalOpt
      * Solvation model:               GBSA
        Solvent                        toluene
        Solvent mass                       9.2140E+01 g/mol
          :  Hamiltonian                  GFN2-xTB          :
 * total energy  :  -157.7438458 Eh     change       -0.2169173E-08 Eh
 * total energy  :  -157.7440608 Eh     change       -0.2149768E-03 Eh
 * total energy  :  -157.7441362 Eh     change       -0.7535224E-04 Eh
 * total energy  :  -157.7441524 Eh     change       -0.1623982E-04 Eh
 * total energy  :  -157.7441652 Eh     change       -0.1279016E-04 Eh
 * total energy  :  -157.7441720 Eh     change       -0.6828299E-05 Eh
 * total energy  :  -157.7441780 Eh     change       -0.5997389E-05 Eh
 * total energy  :  -157.7441842 Eh     change       -0.6157842E-05 Eh
 * total energy  :  -157.7441918 Eh     change       -0.7651723E-05 Eh
 * total energy  :  -157.7442008 Eh     change       -0.8921119E-05 Eh
 * total energy  :  -157.7442371 Eh     change       -0.7226214E-06 Eh
 * total energy  :  -157.7442380 Eh     change       -0.9149898E-06 Eh
 * total energy  :  -157.7442390 Eh     change       -0.9868014E-06 Eh
 * total energy  :  -157.7442400 Eh     change       -0.9949623E-06 Eh
 * total energy  :  -157.7442410 Eh     change       -0.9817887E-06 Eh
 * total energy  :  -157.7442412 Eh     change       -0.2043538E-06 Eh
 * total energy  :  -157.7442419 Eh     change       -0.7547431E-06 Eh
 * total energy  :  -157.7442422 Eh     change       -0.2863070E-06 Eh
 * total energy  :  -157.7442423 Eh     change       -0.2430352E-07 Eh
   *** GEOMETRY OPTIMIZATION CONVERGED AFTER 47 ITERATIONS ***

 final structure:
================
108
 xtb: 6.7.1 (edcfbbe)
C           -2.11731051573103        4.56966539034719        3.43595553552234
C           -0.77753986174781        4.50346913733118        2.69766214662063
C            0.36007585357220        5.07373888634063        3.54790822663009
C           -0.87690420986050        5.22726115521050        1.37512906176267
C           -1.10078422566380        6.59764328155681        1.34173808149441
C           -1.20013822001960        7.27032560808229        0.13924879327520
C           -1.08522267116290        6.58217682224828       -1.05303835607687
C           -0.86596221777349        5.21068097088568       -1.06569703751220
C           -0.75077295609702        4.47013329749704       -2.37763152672907
C            0.45197027498422        4.97740761308748       -3.17703806219279
C           -2.04920982147462        4.59566148221507       -3.17878969471085
C           -0.76248216059361        4.55527051048828        0.15967959879198
N           -0.52710411168122        3.13336479694134        0.16974533707278
C           -1.64930133395930        2.32034790011097        0.19739720102615
O           -2.76484898978621        2.80940001548794        0.20680861606387
C           -1.39468287512268        0.87423507143048        0.22512297606551
C           -2.45655092872826        0.00170635869596        0.28902984000586
C           -2.26048453358056       -1.39858659696601        0.33757685191966
N           -3.33447754797519       -2.24882897986380        0.41629325848007
C           -4.68114697264215       -1.82038339758804        0.38588968547914
C           -5.16713138591180       -0.90846559478474        1.31447133563323
C           -6.50044783687524       -0.54289355198514        1.28765589423116
C           -7.34909104416376       -1.10912175377536        0.35313932162901
C           -6.87274984898894       -2.05409965274558       -0.54062048733129
C           -5.53724202141494       -2.42685592681854       -0.53884178073761
C           -4.93323352528437       -3.46512564586035       -1.47016055319278
C           -5.99678665416146       -4.29131013003755       -2.19377299595969
C           -4.07869495868844       -2.74860125807844       -2.53623570238131
C           -4.02805223379642       -4.31988710222543       -0.59877077753830
C           -3.96234556897838       -5.70406253001813       -0.65503633706821
C           -3.12120170577291       -6.41124277119203        0.18813281873349
C           -2.35252583374434       -5.74481933960620        1.12612643766698
C           -2.41077555094112       -4.36558851040131        1.20651995591335
C           -3.21948613080703       -3.65530618986084        0.32812402288161
C           -0.95662136714360       -1.87275572681625        0.22337684825838
C            0.14302953577420       -1.00530668532409        0.15793719553306
C            1.46972408489470       -1.47838022478245        0.06558579627533
C            2.53270097361177       -0.60465973249193        0.03307284365752
N            3.86096607869255       -1.09477812310868       -0.03767976470651
C            4.42606083002430       -1.69498194223617        1.08116766912121
C            3.69008677651646       -1.79243258850162        2.26596271328423
C            4.21936641809031       -2.39943018791269        3.38578940645265
C            5.50162728213938       -2.91655584083602        3.34751672452180
C            6.24236700449748       -2.79526994387118        2.18648651154347
C            5.73565921722780       -2.18552598864026        1.04617360792721
C            6.61902616915826       -2.05444154871053       -0.18025366338323
C            7.86460656710414       -1.23126030193324        0.19903425548095
C            7.03229194430894       -3.46257702945679       -0.64821487405714
C            5.90216076415213       -1.35721826588122       -1.32100810373726
C            6.56942233935738       -1.15327344477699       -2.52161917596220
C            5.96348521066243       -0.54725762026538       -3.60668365315249
C            4.64372702106907       -0.14611727878202       -3.50511877252691
C            3.95652393654080       -0.33945412488673       -2.32489873486048
C            4.57669566284213       -0.92287133621421       -1.21576482342505
C            2.31311679064248        0.78237256111041        0.07196684497159
C            1.02720964255318        1.27781168641878        0.13569818388445
C           -0.06970652149652        0.39695297735907        0.18269197991342
C            0.79867580993710        2.72832230426475        0.14860770328361
O            1.69515795816847        3.55247976437805        0.13301669846371
H           -2.90685654038510        4.15805991715988        2.80948251045220
H           -2.06615722173415        3.99431109315924        4.35797846814644
H           -2.37259804054191        5.59702072100985        3.68159823160559
H           -0.55203389835036        3.44754480314056        2.51031893869610
H            1.29568873655608        5.03421107270710        2.99282927518770
H            0.16360738106388        6.10680435660901        3.82095867118867
H            0.47147479811237        4.49101877235372        4.45996179442479
H           -1.19693568288579        7.14408486041056        2.26697373719998
H           -1.37083806879766        8.33679977292678        0.13130327997928
H           -1.16661186407042        7.11695830438471       -1.98650894472084
H           -0.58877250212852        3.40560899788502       -2.17392774998624
H            0.56806932041800        4.39384384415121       -4.08793589749776
H            0.32510623918821        6.02176523418081       -3.44878105447286
H            1.35991432934424        4.88242392186868       -2.58396920592490
H           -2.88818626264943        4.23631759587273       -2.58548631274770
H           -2.23804349296932        5.62989370344411       -3.45305744481873
H           -1.98552777408397        4.00218500607662       -4.08841515131209
H           -3.44977504010472        0.42211067038695        0.27521064933610
H           -4.50622902205696       -0.49952595003534        2.06425242050144
H           -6.87445488717118        0.17353904346451        2.00358137534204
H           -8.39087933289638       -0.82648467753814        0.32773835479286
H           -7.56051129227701       -2.49636799467437       -1.24235166142809
H           -5.52339823277258       -5.01300971474078       -2.85450829846192
H           -6.61510315678882       -3.64554851481670       -2.81193156356502
H           -6.63079742737053       -4.81927844711889       -1.48506718521735
H           -3.29695180841702       -2.14092767329138       -2.08882065458051
H           -3.60984997354969       -3.48330202958226       -3.18742511085532
H           -4.71078940889055       -2.09979343801715       -3.13898067165341
H           -4.56828078760970       -6.24927571591187       -1.35969979031125
H           -3.07924877355541       -7.48808966772942        0.12105834657596
H           -1.71842093570382       -6.29570380126498        1.80451277857542
H           -1.84607819570951       -3.83828240517943        1.96077047820758
H           -0.76671654942074       -2.93201645626783        0.16224625995572
H            1.65062760057605       -2.54285173088957        0.03489846109237
H            2.69375003227054       -1.38070702770705        2.31260504641777
H            3.62806171136769       -2.46325208951860        4.28753724908989
H            5.92605876430540       -3.39909241793464        4.21504700043621
H            7.24805645930139       -3.18686508280609        2.17476871763455
H            8.53196644118116       -1.12382771761913       -0.65142221529715
H            7.56587113456299       -0.23731440502595        0.52853109128113
H            8.41502568115808       -1.70829436414038        1.00510955853892
H            7.67534530396204       -3.40695275570976       -1.52197586615411
H            7.56824528359538       -3.98956233727072        0.13612334391653
H            6.14760543276425       -4.04098834237559       -0.90908114590599
H            7.59451798603993       -1.47655907818782       -2.61974190525652
H            6.51390209081397       -0.39897634790352       -4.52351034249751
H            4.14316502328603        0.31494996071508       -4.34396611310084
H            2.92313389610619       -0.03423434541215       -2.26233805490966
H            3.14631190016469        1.46864152001022        0.04694745817826

          :  Hamiltonian                  GFN2-xTB          :
         :: gradient norm              0.000168133890 Eh/a0 ::
         :: HOMO-LUMO gap              0.915663615348 eV    ::
         :: SCC energy              -160.431169612809 Eh    ::
         :: -> dispersion             -0.153562972558 Eh    ::
         :: -> Gsolv                  -0.064501083746 Eh    ::
         :: repulsion energy           2.686927360628 Eh    ::

    * Orbital Energies and Occupations

         #    Occupation            Energy/Eh            Energy/eV
      -------------------------------------------------------------
         1        2.0000           -0.7239557             -19.6998
       ...           ...                  ...                  ...
       134        2.0000           -0.4122729             -11.2185
       135        2.0000           -0.4086977             -11.1212
       136        2.0000           -0.4071156             -11.0782
       137        2.0000           -0.4065536             -11.0629
       138        2.0000           -0.4046842             -11.0120
       139        2.0000           -0.4036926             -10.9850
       140        2.0000           -0.4032163             -10.9721
       141        2.0000           -0.4028039             -10.9609
       142        2.0000           -0.3988939             -10.8545
       143        2.0000           -0.3961667             -10.7802
       144        2.0000           -0.3935123             -10.7080
       145        2.0000           -0.3652207              -9.9382
       146        2.0000           -0.3489785              -9.4962 (HOMO)
       147                         -0.3153285              -8.5805 (LUMO)
       148                         -0.2542103              -6.9174
       149                         -0.2525502              -6.8722
       150                         -0.2375653              -6.4645
       151                         -0.2328507              -6.3362
       152                         -0.2275934              -6.1931
       153                         -0.2273932              -6.1877
       154                         -0.2261523              -6.1539
       155                         -0.2255684              -6.1380
       156                         -0.2245167              -6.1094
       157                         -0.2203051              -5.9948
       ...                                ...                  ...
       285                          0.7204312              19.6039
      -------------------------------------------------------------
                  HL-Gap            0.0336501 Eh            0.9157 eV

     #   Z          covCN         q      C6AA      α(0)
     1   6 C        3.756    -0.102    22.506     6.764
     2   6 C        3.854    -0.005    20.631     6.460
     3   6 C        3.755    -0.103    22.517     6.766
     4   6 C        2.972     0.005    27.903     8.665
     5   6 C        2.928    -0.039    28.967     8.826
     6   6 C        2.916    -0.034    28.850     8.808
     7   6 C        2.928    -0.039    28.966     8.826
     8   6 C        2.972     0.005    27.903     8.665
     9   6 C        3.854    -0.005    20.630     6.460
    10   6 C        3.755    -0.102    22.506     6.764
    11   6 C        3.755    -0.103    22.517     6.766
    12   6 C        2.945     0.069    26.445     8.434
    13   7 N        2.747    -0.115    23.506     7.201
    14   6 C        2.776     0.280    22.256     7.727
    15   8 O        0.859    -0.442    22.545     6.366
    16   6 C        2.973    -0.031    28.768     8.798
    17   6 C        2.927    -0.034    28.854     8.809
    18   6 C        2.905     0.075    26.328     8.413
    19   7 N        2.754    -0.060    22.393     7.028
    20   6 C        2.949     0.052    26.823     8.495
    21   6 C        2.920    -0.045    29.126     8.850
    22   6 C        2.920    -0.032    28.803     8.801
    23   6 C        2.919    -0.036    28.885     8.813
    24   6 C        2.923    -0.038    28.935     8.821
    25   6 C        2.987    -0.005    28.132     8.700
    26   6 C        3.910     0.023    20.129     6.377
    27   6 C        3.759    -0.110    22.654     6.786
    28   6 C        3.761    -0.100    22.456     6.755
    29   6 C        2.987    -0.004    28.120     8.699
    30   6 C        2.923    -0.037    28.923     8.819
    31   6 C        2.919    -0.035    28.883     8.813
    32   6 C        2.920    -0.033    28.817     8.803
    33   6 C        2.920    -0.047    29.157     8.855
    34   6 C        2.950     0.052    26.830     8.496
    35   6 C        2.924    -0.063    29.571     8.918
    36   6 C        2.981     0.019    27.578     8.614
    37   6 C        2.922    -0.041    29.020     8.834
    38   6 C        2.920     0.074    26.341     8.416
    39   7 N        2.754    -0.072    22.631     7.065
    40   6 C        2.926     0.058    26.710     8.475
    41   6 C        2.924    -0.060    29.497     8.907
    42   6 C        2.919    -0.034    28.858     8.809
    43   6 C        2.917    -0.046    29.130     8.851
    44   6 C        2.928    -0.037    28.922     8.819
    45   6 C        2.979    -0.013    28.324     8.730
    46   6 C        3.909     0.021    20.164     6.383
    47   6 C        3.761    -0.104    22.531     6.767
    48   6 C        3.761    -0.104    22.542     6.768
    49   6 C        2.979    -0.013    28.324     8.730
    50   6 C        2.928    -0.037    28.925     8.820
    51   6 C        2.917    -0.045    29.126     8.850
    52   6 C        2.919    -0.034    28.855     8.809
    53   6 C        2.924    -0.059    29.466     8.902
    54   6 C        2.927     0.058    26.701     8.474
    55   6 C        2.923    -0.026    28.653     8.778
    56   6 C        2.974    -0.031    28.756     8.796
    57   6 C        2.996    -0.006    28.170     8.706
    58   6 C        2.776     0.281    22.242     7.724
    59   8 O        0.859    -0.442    22.544     6.366
    60   1 H        0.925     0.035     2.520     2.482
    61   1 H        0.925     0.040     2.442     2.444
    62   1 H        0.925     0.045     2.385     2.415
    63   1 H        0.924     0.012     2.865     2.647
    64   1 H        0.925     0.033     2.541     2.493
    65   1 H        0.925     0.045     2.377     2.411
    66   1 H        0.925     0.040     2.444     2.445
    67   1 H        0.926     0.048     2.350     2.397
    68   1 H        0.926     0.045     2.381     2.413
    69   1 H        0.926     0.048     2.351     2.398
    70   1 H        0.924     0.011     2.869     2.649
    71   1 H        0.925     0.040     2.445     2.445
    72   1 H        0.925     0.045     2.382     2.414
    73   1 H        0.925     0.033     2.538     2.491
    74   1 H        0.925     0.034     2.528     2.487
    75   1 H        0.925     0.045     2.377     2.411
    76   1 H        0.925     0.041     2.438     2.442
    77   1 H        0.926     0.066     2.126     2.280
    78   1 H        0.926     0.037     2.486     2.466
    79   1 H        0.926     0.037     2.490     2.468
    80   1 H        0.926     0.038     2.472     2.459
    81   1 H        0.926     0.049     2.330     2.387
    82   1 H        0.925     0.047     2.362     2.403
    83   1 H        0.925     0.046     2.374     2.409
    84   1 H        0.925     0.042     2.419     2.432
    85   1 H        0.925     0.032     2.562     2.503
    86   1 H        0.925     0.044     2.393     2.419
    87   1 H        0.925     0.042     2.419     2.432
    88   1 H        0.926     0.049     2.332     2.388
    89   1 H        0.926     0.039     2.465     2.455
    90   1 H        0.926     0.039     2.461     2.453
    91   1 H        0.926     0.041     2.433     2.439
    92   1 H        0.926     0.060     2.198     2.318
    93   1 H        0.926     0.063     2.169     2.303
    94   1 H        0.926     0.022     2.699     2.569
    95   1 H        0.926     0.028     2.613     2.528
    96   1 H        0.926     0.028     2.617     2.530
    97   1 H        0.926     0.035     2.518     2.481
    98   1 H        0.925     0.043     2.415     2.430
    99   1 H        0.925     0.029     2.596     2.520
   100   1 H        0.925     0.043     2.413     2.429
   101   1 H        0.925     0.043     2.413     2.429
   102   1 H        0.925     0.043     2.407     2.426
   103   1 H        0.925     0.032     2.565     2.504
   104   1 H        0.926     0.035     2.513     2.479
   105   1 H        0.926     0.028     2.616     2.529
   106   1 H        0.926     0.027     2.631     2.536
   107   1 H        0.926     0.020     2.729     2.583
   108   1 H        0.926     0.061     2.188     2.313

molecular dipole:
                 x           y           z       tot (Debye)
 q only:       -1.153      -2.818      -0.356
   full:       -1.101      -2.817      -0.293       7.724

 projected vibrational frequencies (cm⁻¹)
eigval :       -0.00    -0.00     0.00     0.00     0.00     0.00
eigval :      -26.07     8.39    12.93    14.00    16.13    19.15
eigval :       28.72    33.68    36.96    41.39    43.41    51.70
eigval :       61.73    63.78    77.27    88.23    90.53    99.98
eigval :      107.28   114.21   120.31   124.93   132.83   135.21
eigval :      136.12   156.90   161.11   169.61   182.89   190.78
eigval :      192.23   196.08   199.08   203.10   210.28   220.33
eigval :      221.89   224.53   226.70   235.13   238.04   240.11
eigval :      260.31   268.42   272.13   283.04   287.03   295.60
eigval :      303.80   306.21   307.62   319.67   323.89   331.51
eigval :      341.70   345.63   347.59   356.76   377.73   380.44
eigval :      385.95   399.70   405.11   409.76   411.82   418.28
eigval :      420.03   444.44   450.04   453.96   454.47   463.79
eigval :      472.84   484.00   488.58   498.50   502.57   508.58
eigval :      515.07   520.37   531.80   535.17   547.27   548.53
eigval :      551.41   560.07   573.79   580.71   582.33   588.45
eigval :      590.40   603.92   610.84   616.43   630.67   644.28
eigval :      646.15   663.68   679.75   683.47   690.02   693.44
eigval :      694.50   702.32   703.03   711.38   725.06   727.79
eigval :      741.41   747.36   777.69   777.80   780.14   784.98
eigval :      807.84   810.59   813.85   822.58   826.29   836.78
eigval :      852.79   853.31   853.77   870.01   873.98   875.55
eigval :      888.79   896.29   898.42   898.47   909.79   913.68
eigval :      915.62   916.65   918.02   919.81   921.07   923.17
eigval :      923.90   935.84   936.65   937.75   941.05   943.45
eigval :      945.35   946.28   957.47   966.92   972.63   978.53
eigval :      987.01   987.35   999.40  1010.68  1014.12  1046.27
eigval :     1064.42  1074.03  1075.39  1076.19  1084.15  1088.00
eigval :     1098.71  1099.70  1100.51  1108.66  1113.71  1118.71
eigval :     1138.08  1138.95  1140.23  1140.43  1149.29  1153.08
eigval :     1158.38  1158.48  1171.21  1174.20  1177.91  1179.89
eigval :     1182.02  1182.20  1186.86  1188.05  1188.99  1193.20
eigval :     1193.35  1220.38  1229.61  1231.16  1236.84  1247.23
eigval :     1249.81  1250.31  1259.48  1261.48  1267.54  1268.63
eigval :     1273.12  1285.61  1293.47  1295.64  1296.52  1303.97
eigval :     1313.14  1314.73  1319.28  1320.48  1324.62  1327.88
eigval :     1331.39  1332.24  1335.67  1358.10  1368.28  1383.19
eigval :     1392.69  1396.89  1399.04  1399.62  1399.96  1413.99
eigval :     1414.79  1415.26  1418.38  1429.92  1434.89  1436.58
eigval :     1437.87  1440.21  1444.94  1453.16  1454.33  1461.17
eigval :     1476.29  1476.47  1486.37  1487.49  1488.44  1488.70
eigval :     1489.55  1491.19  1491.73  1493.25  1493.61  1496.88
eigval :     1497.33  1497.38  1498.60  1501.83  1502.08  1502.34
eigval :     1504.81  1519.93  1528.84  1573.93  1574.87  1577.31
eigval :     1578.83  1583.95  1587.85  1589.14  1589.55  1590.62
eigval :     1591.43  1597.51  1600.10  1655.28  1677.18  2926.89
eigval :     2928.03  3021.00  3022.71  3023.11  3024.27  3026.37
eigval :     3027.06  3027.69  3027.96  3028.62  3029.79  3030.10
eigval :     3030.58  3033.06  3033.99  3040.06  3042.03  3042.45
eigval :     3044.20  3047.14  3047.54  3048.13  3048.52  3052.85
eigval :     3052.99  3072.89  3073.11  3077.56  3078.68  3078.96
eigval :     3080.43  3080.65  3084.95  3085.96  3089.77  3089.98
eigval :     3092.40  3092.77  3094.39  3095.30  3096.18  3099.03
eigval :     3099.74  3100.49  3111.22  3114.38  3115.05  3115.57

   temp. (K)  partition function   enthalpy   heat capacity  entropy
                                   cal/mol     cal/K/mol   cal/K/mol   J/K/mol
 298.15  VIB  0.363E+24            30870.660    192.507    190.969
         ROT  0.144E+09              888.752      2.981     40.307
         INT  0.522E+32            31759.412    195.488    231.276
         TR   0.208E+29             1481.254      4.968     45.789
         TOT                       33240.6660   200.4557   277.0651  1159.2405

       T/K    H(0)-H(T)+PV         H(T)/Eh          T*S/Eh         G(T)/Eh
   ------------------------------------------------------------------------
    298.15    0.529724E-01    0.924750E+00    0.131643E+00    0.793107E+00
   ------------------------------------------------------------------------

         :::::::::::::::::::::::::::::::::::::::::::::::::::::
         ::                  THERMODYNAMIC                  ::
         :::::::::::::::::::::::::::::::::::::::::::::::::::::
         :: total free energy        -156.951134952719 Eh   ::
         ::.................................................::
         :: total energy             -157.744242256510 Eh   ::
         :: zero point energy           0.871777508397 Eh   ::
         :: G(RRHO) w/o ZPVE           -0.078670204605 Eh   ::
         :: G(RRHO) contrib.            0.793107303792 Eh   ::
         :::::::::::::::::::::::::::::::::::::::::::::::::::::

           -------------------------------------------------
          | TOTAL ENERGY             -157.744242256510 Eh   |
          | TOTAL ENTHALPY           -156.819492375043 Eh   |
          | TOTAL FREE ENERGY        -156.951134952719 Eh   |
          | GRADIENT NORM               0.000168084866 Eh/α |
          | HOMO-LUMO GAP               0.915664659478 eV   |
           -------------------------------------------------

 * finished run on 2025/08/24 at 15:20:01.380
