   * xtb version 6.7.1 (edcfbbe) compiled by 'albert@albert-system' on 2024-07-22

   ID    Z sym.   atoms
    1    6 C      1-12, 14, 16-18, 20-38, 40-58
    2    7 N      13, 19, 39
    3    8 O      15, 59
    4    1 H      60-108

          program call               : xtb data2507/toluene/2DN/2DN_toluene_T1_crest.xyz --gfn 2 --uhf 2 --gbsa toluene --ohess vtight --parallel 40 --molden --ceasefiles --namespace data2507/toluene/2DN/2DN_toluene_T1_finalOpt
      * Solvation model:               GBSA
        Solvent                        toluene
        Solvent mass                       9.2140E+01 g/mol
          :  Hamiltonian                  GFN2-xTB          :
 * total energy  :  -157.6962584 Eh     change        0.8873258E-10 Eh
 * total energy  :  -157.6965780 Eh     change       -0.3196093E-03 Eh
 * total energy  :  -157.6966736 Eh     change       -0.9562450E-04 Eh
 * total energy  :  -157.6966923 Eh     change       -0.1867380E-04 Eh
 * total energy  :  -157.6967063 Eh     change       -0.1401025E-04 Eh
 * total energy  :  -157.6967140 Eh     change       -0.7670663E-05 Eh
 * total energy  :  -157.6967205 Eh     change       -0.6533808E-05 Eh
 * total energy  :  -157.6967265 Eh     change       -0.5977174E-05 Eh
 * total energy  :  -157.6967329 Eh     change       -0.6419945E-05 Eh
 * total energy  :  -157.6967410 Eh     change       -0.8113793E-05 Eh
 * total energy  :  -157.6970664 Eh     change       -0.3849628E-06 Eh
 * total energy  :  -157.6970668 Eh     change       -0.4607359E-06 Eh
 * total energy  :  -157.6970674 Eh     change       -0.5549098E-06 Eh
 * total energy  :  -157.6970680 Eh     change       -0.5964758E-06 Eh
 * total energy  :  -157.6970686 Eh     change       -0.6033015E-06 Eh
 * total energy  :  -157.6970692 Eh     change       -0.5696197E-06 Eh
 * total energy  :  -157.6970697 Eh     change       -0.5126613E-06 Eh
 * total energy  :  -157.6970702 Eh     change       -0.4794353E-06 Eh
 * total energy  :  -157.6970702 Eh     change       -0.1527098E-08 Eh
   *** GEOMETRY OPTIMIZATION CONVERGED AFTER 122 ITERATIONS ***

 final structure:
================
108
 xtb: 6.7.1 (edcfbbe)
C           -1.31656443515371        5.16376854359446        2.71732654745890
C           -0.05016433615982        4.76716441799242        1.95502410039980
C            1.21478075918589        5.17564249522995        2.71357669175648
C           -0.05355696011072        5.36784711772790        0.56845879567153
C           -0.06683745689110        6.74634024542073        0.40186380060768
C           -0.06961316535065        7.30753675264280       -0.86034014127179
C           -0.05881600755308        6.49664622616961       -1.97846655053962
C           -0.04464342492622        5.11346490975917       -1.85549494170888
C           -0.03356388976355        4.23814284093420       -3.08689308904779
C            1.22902782522607        4.48974811325888       -3.91433042038413
C           -1.30221212153755        4.45972279915765       -3.91374545810411
C           -0.04225736045689        4.56762197963866       -0.57313302482268
N           -0.02802461850427        3.14096128112592       -0.42023215051948
C           -1.26325647520620        2.51050110588603       -0.35649138592000
O           -2.30147189416710        3.17551168756766       -0.44962576100883
C           -1.23268951208547        1.07917465579461       -0.17325958383374
C           -2.43762445862407        0.36351537733202       -0.09135911463067
C           -2.41254917307850       -1.00570820661216        0.09395409586014
N           -3.64498124994651       -1.72253174917717        0.18221633115660
C           -4.12783770656008       -2.35659830281291       -0.94032483771858
C           -3.39094146753371       -2.30555827178826       -2.13407874903349
C           -3.84410264084145       -2.93603008462988       -3.27005386359472
C           -5.04707483851676       -3.62739870192352       -3.24253739089012
C           -5.78288569833207       -3.67110217578578       -2.07238359109057
C           -5.35151378382929       -3.04723133284342       -0.90947980070420
C           -6.20404282891389       -3.11238415794029        0.33857962598419
C           -7.56565780566479       -2.45424471553158        0.03634663586642
C           -6.40359812364057       -4.59083276087183        0.72821373417146
C           -5.56389691587671       -2.38468971089162        1.50029888474663
C           -6.20505393420718       -2.35307601791686        2.73136349338014
C           -5.65924714797467       -1.70504673115166        3.82430877972104
C           -4.43191297017935       -1.06898798284786        3.70125144411313
C           -3.77246609607343       -1.08192778558113        2.49381623898313
C           -4.32731794416054       -1.72817943856914        1.37799659741876
C           -1.21209770303231       -1.69907398930596        0.20211748638427
C            0.01243195079414       -1.01169330642427        0.12137186358708
C            1.25010529844060       -1.67253928693977        0.22098109030273
C            2.43678141048996       -0.95345244666207        0.13138717001897
N            3.68179174410323       -1.64542433014998        0.23939133996522
C            4.33882187614177       -1.64942627083354        1.44912485155420
C            3.75578858655157       -1.01079157509005        2.55488356440223
C            4.38926405021210       -0.99739121259961        3.77615358967482
C            5.61815429342322       -1.62533124129594        3.92320074768277
C            6.19201929350525       -2.26515684724493        2.83982255839301
C            5.57784461768205       -2.29643329564623        1.59506926422053
C            6.24717216471369       -3.01655245569467        0.44503235021108
C            7.61512576120247       -2.35590001195282        0.17936392498665
C            6.43858116240513       -4.49689045201082        0.83168251454931
C            5.42491847516097       -2.94593023951562       -0.82293386028360
C            5.88770178372887       -3.55744258203121       -1.98030408802096
C            5.17945055169280       -3.50843688503720       -3.16718007037998
C            3.97340649939909       -2.82369315817550       -3.21796373466819
C            3.48889718870823       -2.20640892159786       -2.08772866521086
C            4.19723178137043       -2.26399031488002       -0.87710022306272
C            2.43546772190832        0.41583635396786       -0.05437709097959
C            1.21674523848569        1.10543234467415       -0.15499827288362
C           -0.00122607895982        0.39992757310713       -0.07073172101103
C            1.21933292816489        2.53702564408817       -0.33857403274648
O            2.24439353404353        3.22393577415961       -0.41753090675702
H           -2.19628094977779        4.86678364343166        2.14876145204208
H           -1.34197136950174        4.66699886936551        3.68516958603524
H           -1.35418395536469        6.23811246550117        2.87725452179797
H           -0.04538461351514        3.67517099353680        1.86409139237406
H            2.09540092095934        4.88401329092353        2.14359433086472
H            1.24411806946816        6.25082095916895        2.86984039503641
H            1.24645229677590        4.68198707971908        3.68282804409483
H           -0.07510937725117        7.38830011194672        1.26970253719436
H           -0.08022665979765        8.38198835797112       -0.97317904385238
H           -0.06123441666637        6.94459430857050       -2.96061454080823
H           -0.02096166847158        3.18888288027121       -2.77107976729251
H            2.11137076537867        4.32484698828999       -3.29814990511668
H            1.26276525005432        3.80888808338031       -4.76252068111209
H            1.25293161059190        5.51047914976665       -4.28689698292539
H           -2.17993511884616        4.27270992268031       -3.29726318724843
H           -1.35106105724041        5.48009145035426       -4.28494796847331
H           -1.31981322690838        3.77921773264514       -4.76270425518139
H           -3.36762456985217        0.90473270682929       -0.17387307439617
H           -2.46119205393136       -1.76006355320534       -2.15654262834835
H           -3.26251288851415       -2.88595431484149       -4.17794811314731
H           -5.41088362777586       -4.12386693797697       -4.12892925757076
H           -6.71969700677562       -4.20553686649716       -2.07174114484689
H           -8.21221867518978       -2.49064014983988        0.90784402300967
H           -8.06540457737601       -2.96260596909666       -0.78264791827006
H           -7.42063581862759       -1.41180556051985       -0.24171731939239
H           -5.44009040608562       -5.05436701696968        0.93101621596643
H           -7.02033807947056       -4.67460169206498        1.61766176782551
H           -6.88750731508623       -5.13792180194967       -0.07498290018919
H           -7.15814918915533       -2.84461663471096        2.84665332496126
H           -6.18510165056483       -1.69753155047331        4.76658727469145
H           -3.99015536167024       -0.56330865434285        4.54633391493945
H           -2.81862268493368       -0.58818274347918        2.39731986834880
H           -1.21798855843555       -2.76778495842543        0.35184193550881
H            1.27679423880374       -2.74086513030057        0.37110597195224
H            2.80086807188455       -0.52315871872731        2.43943121366137
H            3.92590791312143       -0.49778916304830        4.61326855318328
H            6.12344285004614       -1.61799655663341        4.87666086736356
H            7.14564743783172       -2.75086013052706        2.97379338581457
H            8.13594959923389       -2.86085622354864       -0.62849065157545
H            7.47580186937304       -1.31269421862603       -0.09872101822202
H            8.23985647222050       -2.39461861895732        1.06653467644980
H            6.94012976857697       -5.03979731173705        0.03648153570622
H            7.03550095791834       -4.58460151318037        1.73421405422815
H            5.47100240142963       -4.96165614865423        1.01094149642874
H            6.82729524672107       -4.08665165507947       -1.96180829731761
H            5.56718318029230       -3.99543181336838       -4.04866311440400
H            3.41375608781032       -2.76875688061615       -4.13926345454663
H            2.55687172894101       -1.66562745943511       -2.12742657539721
H            3.35478184420949        0.97694800034011       -0.12267715712939

          :  Hamiltonian                  GFN2-xTB          :
         :: gradient norm              0.000048086050 Eh/a0 ::
         :: HOMO-LUMO gap              1.387419237774 eV    ::
         :: SCC energy              -160.372468135066 Eh    ::
         :: -> dispersion             -0.152897041817 Eh    ::
         :: -> Gsolv                  -0.081609584329 Eh    ::
         :: repulsion energy           2.675397974240 Eh    ::

    * Orbital Energies and Occupations

         #    Occupation            Energy/Eh            Energy/eV
      -------------------------------------------------------------
         1        2.0000           -0.6866719             -18.6853
       ...           ...                  ...                  ...
       135        2.0000           -0.4148500             -11.2886
       136        2.0000           -0.4090915             -11.1319
       137        2.0000           -0.4089456             -11.1280
       138        2.0000           -0.4064339             -11.0596
       139        2.0000           -0.3960860             -10.7780
       140        2.0000           -0.3924782             -10.6799
       141        2.0000           -0.3874855             -10.5440
       142        2.0000           -0.3861728             -10.5083
       143        2.0000           -0.3814834             -10.3807
       144        2.0000           -0.3802132             -10.3461
       145        1.6475           -0.3652482              -9.9389
       146        1.3525           -0.3640930              -9.9075
       147        1.0000           -0.2948649              -8.0237 (HOMO)
       148                         -0.2438782              -6.6363 (LUMO)
       149                         -0.2438578              -6.6357
       150                         -0.2357472              -6.4150
       151                         -0.2352311              -6.4010
       152                         -0.2351065              -6.3976
       153                         -0.2344344              -6.3793
       154                         -0.2342414              -6.3740
       155                         -0.2308366              -6.2814
       156                         -0.2169348              -5.9031
       157                         -0.2164369              -5.8895
       158                         -0.2105746              -5.7300
       ...                                ...                  ...
       285                          0.7181616              19.5422
      -------------------------------------------------------------
                  HL-Gap            0.0509867 Eh            1.3874 eV

     #   Z          covCN         q      C6AA      α(0)
     1   6 C        3.755    -0.100    22.460     6.758
     2   6 C        3.854    -0.005    20.627     6.459
     3   6 C        3.755    -0.100    22.458     6.757
     4   6 C        2.973     0.002    27.970     8.675
     5   6 C        2.927    -0.043    29.059     8.840
     6   6 C        2.916    -0.038    28.953     8.824
     7   6 C        2.927    -0.043    29.058     8.840
     8   6 C        2.973     0.003    27.958     8.673
     9   6 C        3.854    -0.005    20.626     6.459
    10   6 C        3.755    -0.100    22.461     6.758
    11   6 C        3.755    -0.100    22.459     6.757
    12   6 C        2.945     0.086    26.088     8.377
    13   7 N        2.749    -0.139    24.013     7.278
    14   6 C        2.778     0.261    22.611     7.788
    15   8 O        0.858    -0.527    24.396     6.622
    16   6 C        2.978    -0.052    29.282     8.876
    17   6 C        2.921    -0.048    29.185     8.859
    18   6 C        2.922     0.051    26.852     8.498
    19   7 N        2.756    -0.017    21.578     6.899
    20   6 C        2.930     0.063    26.586     8.456
    21   6 C        2.922    -0.046    29.136     8.852
    22   6 C        2.917    -0.027    28.678     8.782
    23   6 C        2.917    -0.030    28.754     8.793
    24   6 C        2.925    -0.032    28.808     8.802
    25   6 C        2.978    -0.000    28.031     8.685
    26   6 C        3.909     0.025    20.104     6.373
    27   6 C        3.761    -0.108    22.602     6.777
    28   6 C        3.761    -0.109    22.628     6.781
    29   6 C        2.978    -0.000    28.031     8.685
    30   6 C        2.925    -0.033    28.811     8.802
    31   6 C        2.917    -0.030    28.754     8.793
    32   6 C        2.917    -0.027    28.675     8.781
    33   6 C        2.922    -0.045    29.120     8.849
    34   6 C        2.930     0.063    26.583     8.455
    35   6 C        2.920    -0.071    29.764     8.946
    36   6 C        2.980     0.010    27.784     8.646
    37   6 C        2.920    -0.071    29.764     8.946
    38   6 C        2.922     0.051    26.852     8.498
    39   7 N        2.756    -0.017    21.579     6.899
    40   6 C        2.930     0.063    26.582     8.455
    41   6 C        2.922    -0.045    29.120     8.849
    42   6 C        2.917    -0.027    28.675     8.781
    43   6 C        2.917    -0.030    28.754     8.793
    44   6 C        2.925    -0.033    28.811     8.802
    45   6 C        2.978    -0.000    28.032     8.685
    46   6 C        3.909     0.025    20.104     6.373
    47   6 C        3.761    -0.108    22.604     6.778
    48   6 C        3.761    -0.109    22.626     6.781
    49   6 C        2.978    -0.000    28.031     8.685
    50   6 C        2.925    -0.032    28.808     8.802
    51   6 C        2.917    -0.030    28.754     8.793
    52   6 C        2.917    -0.027    28.677     8.782
    53   6 C        2.922    -0.046    29.134     8.852
    54   6 C        2.930     0.063    26.586     8.456
    55   6 C        2.921    -0.048    29.186     8.859
    56   6 C        2.978    -0.052    29.282     8.876
    57   6 C        2.991    -0.001    28.054     8.688
    58   6 C        2.778     0.261    22.611     7.788
    59   8 O        0.858    -0.527    24.397     6.622
    60   1 H        0.925     0.032     2.562     2.503
    61   1 H        0.925     0.038     2.470     2.458
    62   1 H        0.925     0.042     2.420     2.433
    63   1 H        0.924     0.014     2.834     2.632
    64   1 H        0.925     0.032     2.559     2.502
    65   1 H        0.925     0.042     2.421     2.433
    66   1 H        0.925     0.038     2.471     2.458
    67   1 H        0.926     0.041     2.440     2.443
    68   1 H        0.926     0.039     2.459     2.452
    69   1 H        0.926     0.041     2.441     2.443
    70   1 H        0.924     0.014     2.826     2.629
    71   1 H        0.925     0.032     2.560     2.502
    72   1 H        0.925     0.038     2.472     2.458
    73   1 H        0.925     0.042     2.421     2.433
    74   1 H        0.925     0.032     2.557     2.501
    75   1 H        0.925     0.042     2.422     2.434
    76   1 H        0.925     0.038     2.472     2.459
    77   1 H        0.926     0.035     2.522     2.483
    78   1 H        0.926     0.041     2.441     2.443
    79   1 H        0.926     0.044     2.402     2.424
    80   1 H        0.926     0.047     2.359     2.402
    81   1 H        0.926     0.053     2.281     2.362
    82   1 H        0.925     0.053     2.279     2.361
    83   1 H        0.925     0.054     2.276     2.359
    84   1 H        0.925     0.036     2.507     2.476
    85   1 H        0.925     0.039     2.462     2.454
    86   1 H        0.925     0.054     2.275     2.359
    87   1 H        0.925     0.054     2.271     2.357
    88   1 H        0.926     0.053     2.279     2.361
    89   1 H        0.926     0.047     2.361     2.403
    90   1 H        0.926     0.043     2.415     2.430
    91   1 H        0.926     0.039     2.465     2.455
    92   1 H        0.926     0.037     2.487     2.466
    93   1 H        0.926     0.037     2.489     2.467
    94   1 H        0.926     0.039     2.465     2.455
    95   1 H        0.926     0.043     2.415     2.430
    96   1 H        0.926     0.047     2.361     2.403
    97   1 H        0.926     0.053     2.279     2.361
    98   1 H        0.925     0.054     2.276     2.359
    99   1 H        0.925     0.036     2.506     2.475
   100   1 H        0.925     0.053     2.278     2.360
   101   1 H        0.925     0.054     2.271     2.357
   102   1 H        0.925     0.054     2.275     2.359
   103   1 H        0.925     0.039     2.463     2.454
   104   1 H        0.926     0.053     2.281     2.362
   105   1 H        0.926     0.047     2.359     2.402
   106   1 H        0.926     0.043     2.403     2.424
   107   1 H        0.926     0.040     2.444     2.445
   108   1 H        0.926     0.035     2.521     2.483

molecular dipole:
                 x           y           z       tot (Debye)
 q only:        0.055      -6.710       0.876
   full:        0.054      -6.591       0.867      16.897

 projected vibrational frequencies (cm⁻¹)
eigval :       -0.00    -0.00    -0.00    -0.00     0.00     0.00
eigval :       -8.90     1.46     6.74    13.62    16.88    17.71
eigval :       20.72    28.84    31.48    40.04    40.86    42.89
eigval :       50.85    68.09    80.34    88.92    91.29    93.86
eigval :       97.24   102.18   106.45   122.18   129.35   131.43
eigval :      134.38   141.41   149.65   154.32   159.33   185.82
eigval :      189.81   193.04   198.61   200.83   210.56   215.56
eigval :      217.00   226.16   228.97   229.38   234.58   235.48
eigval :      239.52   262.94   270.10   278.21   283.72   296.85
eigval :      303.72   305.24   306.08   307.38   325.04   325.51
eigval :      337.44   339.85   342.77   343.36   346.21   379.26
eigval :      381.81   386.98   394.72   408.77   410.04   418.23
eigval :      423.65   445.87   446.39   446.65   451.50   458.98
eigval :      462.56   486.22   501.44   501.68   502.02   505.00
eigval :      507.48   523.58   531.72   533.81   539.88   541.98
eigval :      546.90   549.65   551.03   583.15   583.53   587.85
eigval :      589.51   612.29   615.12   625.20   633.62   642.71
eigval :      644.44   660.21   667.71   670.67   672.73   689.07
eigval :      689.16   700.75   703.82   703.93   710.10   723.18
eigval :      725.89   747.58   769.75   770.86   772.83   773.25
eigval :      775.17   796.66   806.82   814.14   825.02   825.54
eigval :      834.09   834.23   841.03   847.54   853.45   865.11
eigval :      865.54   869.65   870.14   897.18   911.77   912.20
eigval :      914.49   914.65   915.03   915.09   921.31   921.37
eigval :      921.59   922.52   923.47   935.77   935.95   936.66
eigval :      946.58   946.88   958.51   958.96   974.09   981.22
eigval :      987.09   988.05   996.24  1012.25  1012.62  1040.59
eigval :     1069.45  1072.71  1073.00  1076.14  1084.77  1090.20
eigval :     1096.08  1101.44  1103.29  1105.35  1108.88  1110.56
eigval :     1136.12  1137.10  1139.63  1140.89  1142.29  1143.79
eigval :     1144.55  1144.69  1162.39  1164.17  1172.63  1176.23
eigval :     1179.48  1180.62  1180.64  1180.76  1181.95  1183.21
eigval :     1183.36  1194.56  1219.46  1227.05  1234.55  1237.64
eigval :     1241.40  1248.02  1249.47  1255.70  1260.74  1262.65
eigval :     1291.50  1291.81  1292.67  1295.52  1298.23  1313.07
eigval :     1313.11  1313.79  1313.93  1328.15  1328.41  1328.71
eigval :     1331.58  1334.90  1335.14  1356.93  1362.48  1366.37
eigval :     1391.42  1393.95  1396.51  1396.60  1397.95  1398.61
eigval :     1407.17  1412.91  1413.21  1413.71  1413.89  1414.65
eigval :     1414.87  1426.24  1427.73  1451.59  1452.13  1457.97
eigval :     1461.88  1469.71  1475.76  1479.73  1480.13  1480.26
eigval :     1482.24  1482.54  1488.14  1490.02  1490.47  1490.54
eigval :     1493.32  1494.35  1495.86  1496.17  1496.45  1497.80
eigval :     1504.23  1504.70  1505.02  1505.66  1540.42  1547.35
eigval :     1547.44  1558.74  1561.58  1575.34  1575.46  1583.84
eigval :     1585.80  1587.62  1590.67  1591.35  1614.35  2929.26
eigval :     2930.83  3020.06  3021.05  3023.64  3024.63  3025.82
eigval :     3026.05  3026.08  3026.34  3027.36  3027.88  3031.40
eigval :     3031.48  3039.24  3040.48  3042.41  3043.62  3049.43
eigval :     3050.02  3052.87  3052.95  3055.99  3056.63  3061.21
eigval :     3061.35  3071.63  3083.69  3085.66  3085.70  3086.08
eigval :     3086.51  3089.08  3091.18  3092.39  3092.68  3092.75
eigval :     3093.20  3093.51  3096.52  3097.78  3102.35  3102.62
eigval :     3103.13  3103.33  3109.97  3110.28  3110.98  3111.65

   temp. (K)  partition function   enthalpy   heat capacity  entropy
                                   cal/mol     cal/K/mol   cal/K/mol   J/K/mol
 298.15  VIB  0.657E+27            31902.110    194.383    202.109
         ROT  0.147E+09              888.752      2.981     40.357
         INT  0.967E+35            32790.862    197.364    242.465
         TR   0.208E+29             1481.254      4.968     45.789
         TOT                       34272.1159   202.3319   288.2547  1206.0576

       T/K    H(0)-H(T)+PV         H(T)/Eh          T*S/Eh         G(T)/Eh
   ------------------------------------------------------------------------
    298.15    0.546161E-01    0.922723E+00    0.136959E+00    0.785764E+00
   ------------------------------------------------------------------------

         :::::::::::::::::::::::::::::::::::::::::::::::::::::
         ::                  THERMODYNAMIC                  ::
         :::::::::::::::::::::::::::::::::::::::::::::::::::::
         :: total free energy        -156.911306451282 Eh   ::
         ::.................................................::
         :: total energy             -157.697070162803 Eh   ::
         :: zero point energy           0.868106719355 Eh   ::
         :: G(RRHO) w/o ZPVE           -0.082343007834 Eh   ::
         :: G(RRHO) contrib.            0.785763711521 Eh   ::
         :::::::::::::::::::::::::::::::::::::::::::::::::::::

           -------------------------------------------------
          | TOTAL ENERGY             -157.697070162803 Eh   |
          | TOTAL ENTHALPY           -156.774347350244 Eh   |
          | TOTAL FREE ENERGY        -156.911306451282 Eh   |
          | GRADIENT NORM               0.000048049020 Eh/α |
          | HOMO-LUMO GAP               1.387419746042 eV   |
           -------------------------------------------------

 * finished run on 2025/08/24 at 15:32:16.571
