   * xtb version 6.7.1 (edcfbbe) compiled by 'albert@albert-system' on 2024-07-22

   ID    Z sym.   atoms
    1    6 C      1-12, 14, 16-18, 20-38, 40-58
    2    7 N      13, 19, 39
    3    8 O      15, 59
    4    1 H      60-108

          program call               : xtb data2507/toluene/2DN/2DN_toluene_S0_finalOpt.xtbopt.xyz --gfn 2 --uhf 2 --gbsa toluene --ohess vtight --parallel 40 --molden --ceasefiles --namespace data2507/toluene/2DN/2DN_toluene_T1_preOpt
      * Solvation model:               GBSA
        Solvent                        toluene
        Solvent mass                       9.2140E+01 g/mol
          :  Hamiltonian                  GFN2-xTB          :
 * total energy  :  -157.6856612 Eh     change       -0.4104726E-07 Eh
 * total energy  :  -157.6887850 Eh     change       -0.3123824E-02 Eh
 * total energy  :  -157.6895283 Eh     change       -0.7432429E-03 Eh
 * total energy  :  -157.6895847 Eh     change       -0.5646404E-04 Eh
 * total energy  :  -157.6896162 Eh     change       -0.3151841E-04 Eh
 * total energy  :  -157.6896348 Eh     change       -0.1853356E-04 Eh
 * total energy  :  -157.6896496 Eh     change       -0.1483818E-04 Eh
 * total energy  :  -157.6896783 Eh     change       -0.2867332E-04 Eh
 * total energy  :  -157.6896913 Eh     change       -0.1300260E-04 Eh
 * total energy  :  -157.6897128 Eh     change       -0.2151840E-04 Eh
 * total energy  :  -157.6899953 Eh     change       -0.1711547E-06 Eh
 * total energy  :  -157.6899955 Eh     change       -0.1845454E-06 Eh
 * total energy  :  -157.6899956 Eh     change       -0.1774781E-06 Eh
 * total energy  :  -157.6899958 Eh     change       -0.1261562E-06 Eh
 * total energy  :  -157.6899959 Eh     change       -0.1025823E-06 Eh
 * total energy  :  -157.6899960 Eh     change       -0.1250332E-06 Eh
 * total energy  :  -157.6899961 Eh     change       -0.1269900E-06 Eh
 * total energy  :  -157.6899962 Eh     change       -0.1089255E-06 Eh
 * total energy  :  -157.6899963 Eh     change       -0.7682328E-07 Eh
   *** GEOMETRY OPTIMIZATION CONVERGED AFTER 88 ITERATIONS ***

 final structure:
================
108
 xtb: 6.7.1 (edcfbbe)
C           -2.33678623791418        4.38261315431266        3.35215159922313
C           -0.92282965226913        4.44894632801905        2.76811484733021
C            0.06510514804489        5.06173614626132        3.76264288943125
C           -0.94683238951258        5.21342794201408        1.46483175083700
C           -1.18255276393382        6.58191083272942        1.45762043809718
C           -1.21293326242774        7.28965088879604        0.27181303356145
C           -1.01795722697626        6.63629889099989       -0.92941914998113
C           -0.79939769835158        5.26551145303136       -0.96778138585591
C           -0.58678311688331        4.56302818401813       -2.28864911048535
C            0.75983256872368        4.98061821418234       -2.88587602512318
C           -1.73823781112358        4.83430045095109       -3.25901464600896
C           -0.76185730885735        4.57153103137896        0.24094372690868
N           -0.52754417571166        3.15527356152479        0.22401893490540
C           -1.64997255722362        2.33935030658274        0.24580992242033
O           -2.77934697330631        2.84091817239394        0.27523328738319
C           -1.39957011479948        0.91574550315320        0.23764386080504
C           -2.47978288133362        0.02881250122598        0.28893469736442
C           -2.27460523156333       -1.34917820738506        0.30913143483467
N           -3.33637947350529       -2.23194683348861        0.36292125215244
C           -4.68466251859884       -1.83205993413211        0.34631220171390
C           -5.17759127630118       -0.90793079211313        1.26257648965124
C           -6.51653949873514       -0.56751300223492        1.24346148720261
C           -7.36542137782378       -1.16254230985623        0.32586538550251
C           -6.88351534739595       -2.11912716109620       -0.55318636822735
C           -5.54494602507625       -2.47714893768953       -0.55276279199226
C           -4.93577407246948       -3.52615048736842       -1.46598706249057
C           -5.99339467696325       -4.39267250080855       -2.15068134173610
C           -4.11171141445866       -2.82014620044820       -2.56343955369837
C           -3.99967876149673       -4.33773629249210       -0.58895673324428
C           -3.89089113248593       -5.71885813413680       -0.62114564426685
C           -3.01640814234180       -6.38493634705760        0.22290168861694
C           -2.25139736498068       -5.67766209205437        1.13485848244596
C           -2.34393159664153       -4.29996994226488        1.18666607649027
C           -3.18958465178810       -3.62852616323269        0.30791285076036
C           -0.95672239283082       -1.83764588218993        0.17290523736199
C            0.14164052734664       -0.97251390487090        0.12501073446971
C            1.46477567443664       -1.44964840312865        0.02463657070776
C            2.53150544680972       -0.55562732505296        0.00217288330867
N            3.86255633592807       -1.06516082946042       -0.09213149916979
C            4.47934779883091       -1.52548885947821        1.05034118096787
C            3.79300246117461       -1.47817693556383        2.27346307938958
C            4.37913947717196       -1.94062145722918        3.42964236640516
C            5.66597225576126       -2.45775031277102        3.39201213455822
C            6.35176125622097       -2.49400063856857        2.19158575724644
C            5.78820734350581       -2.03414745407357        1.00896746583229
C            6.59091766921521       -2.08009714780312       -0.27311651889496
C            7.86597769108278       -1.23406771206313       -0.08441117246980
C            6.96643549502314       -3.54517474815629       -0.57282697989914
C            5.81189207278894       -1.53136795328791       -1.44892847358959
C            6.39785198693445       -1.49624468633595       -2.70715647450607
C            5.72314480386716       -1.01911499632743       -3.81599012118415
C            4.41840278357954       -0.56692993726742       -3.68110523995207
C            3.81071246584807       -0.58874151810516       -2.44662918489732
C            4.49581081040459       -1.05822704046085       -1.31562211452897
C            2.32806637944529        0.80868453684822        0.06614901840664
C            1.01657542663291        1.31829080523056        0.14510421586298
C           -0.07475495447623        0.43404254752805        0.18067684812408
C            0.79904653081361        2.74445095118467        0.18155641037821
O            1.70728262340480        3.58355922500092        0.17188491569087
H           -3.01185413247711        3.93448630435355        2.62472587040590
H           -2.34395563655243        3.77937832835046        4.25784971219725
H           -2.69995836043616        5.37901969097193        3.59172489474988
H           -0.59444803964825        3.42328055429497        2.56531404801783
H            1.05239517763341        5.13386906859378        3.31004870432324
H           -0.25015659783326        6.05566768390102        4.06802603609406
H            0.13386692287531        4.43553665675400        4.64996729854374
H           -1.34248299991496        7.10067324049924        2.39045808503711
H           -1.38940497487601        8.35553498848759        0.28380153861385
H           -1.03865475108589        7.19910590435272       -1.85017484896440
H           -0.55409758925422        3.48250910383425       -2.10867291747287
H            0.94976266525500        4.43487117732058       -3.80795754562297
H            0.77089566073906        6.04641001975362       -3.10047581641127
H            1.55776029926631        4.76264250974049       -2.17772554055140
H           -2.68519269090636        4.55938255331554       -2.79798427302681
H           -1.77901715316282        5.88402490271704       -3.53640105300593
H           -1.60709206388051        4.24413025010607       -4.16381998050365
H           -3.46433507377392        0.46511262994223        0.28883337322287
H           -4.51783960484347       -0.48011677005206        2.00179585773549
H           -6.89463778150251        0.15360827976324        1.95210140786636
H           -8.41108879603087       -0.89528087190350        0.30488873422692
H           -7.57014007020026       -2.58441443925510       -1.24068549621149
H           -5.51511971582397       -5.12093266693257       -2.80012794501840
H           -6.63357430477528       -3.77549605269495       -2.77524558366415
H           -6.60519553947017       -4.91385219846208       -1.41813719915600
H           -3.34437928688806       -2.17587103940804       -2.14229811141086
H           -3.62840858375098       -3.56159370766099       -3.19587890721895
H           -4.76738994465584       -2.20827125937781       -3.17902046226307
H           -4.49076205453815       -6.29425723817335       -1.30634881480779
H           -2.94721341707206       -7.46124478693085        0.17847564151531
H           -1.59392650275336       -6.19636448198742        1.81587772657867
H           -1.78691179666776       -3.73960832411157        1.92221634169573
H           -0.77478034475255       -2.89421426351725        0.06945396152640
H            1.64972252011226       -2.51125573180881       -0.03171030901776
H            2.79654107721958       -1.06710779453949        2.30423196341260
H            3.83468464057793       -1.89491778013775        4.36056723116667
H            6.13327580559212       -2.82375351552136        4.29323172345583
H            7.35470966258607       -2.89075788686091        2.18259474543078
H            8.47562247540636       -1.25072030576932       -0.98272010214251
H            7.59811159316352       -0.20123079887949        0.13101887013486
H            8.46198081285628       -1.61388306305725        0.73988892429321
H            7.57099163370212       -3.61048518027045       -1.47230599275060
H            7.53074089608422       -3.97349824723819        0.24993712797234
H            6.06495937744859       -4.13698972085886       -0.71916966686844
H            7.40889515130213       -1.85056814801631       -2.83212184984015
H            6.20905686874919       -1.00328743707104       -4.77941011201097
H            3.87513894656015       -0.19792824698948       -4.53779481212609
H            2.79612079625811       -0.23840648848331       -2.34194464468990
H            3.15229770109810        1.50489286784432        0.04742760935749

          :  Hamiltonian                  GFN2-xTB          :
         :: gradient norm              0.000025850031 Eh/a0 ::
         :: HOMO-LUMO gap              1.461337449153 eV    ::
         :: SCC energy              -160.362839586890 Eh    ::
         :: -> dispersion             -0.153734650778 Eh    ::
         :: -> Gsolv                  -0.079421444756 Eh    ::
         :: repulsion energy           2.672843276389 Eh    ::

    * Orbital Energies and Occupations

         #    Occupation            Energy/Eh            Energy/eV
      -------------------------------------------------------------
         1        2.0000           -0.6854074             -18.6509
       ...           ...                  ...                  ...
       135        2.0000           -0.4120662             -11.2129
       136        2.0000           -0.4091582             -11.1338
       137        2.0000           -0.4077967             -11.0967
       138        2.0000           -0.4075228             -11.0893
       139        2.0000           -0.3977321             -10.8228
       140        2.0000           -0.3923128             -10.6754
       141        2.0000           -0.3882735             -10.5655
       142        2.0000           -0.3878933             -10.5551
       143        2.0000           -0.3864566             -10.5160
       144        2.0000           -0.3831227             -10.4253
       145        1.5897           -0.3636294              -9.8949
       146        1.4103           -0.3629400              -9.8761
       147        1.0000           -0.2961936              -8.0598 (HOMO)
       148                         -0.2424905              -6.5985 (LUMO)
       149                         -0.2423428              -6.5945
       150                         -0.2379038              -6.4737
       151                         -0.2349072              -6.3922
       152                         -0.2340853              -6.3698
       153                         -0.2336309              -6.3574
       154                         -0.2321838              -6.3180
       155                         -0.2297870              -6.2528
       156                         -0.2252595              -6.1296
       157                         -0.2170090              -5.9051
       158                         -0.2166912              -5.8965
       ...                                ...                  ...
       285                          0.7166699              19.5016
      -------------------------------------------------------------
                  HL-Gap            0.0537031 Eh            1.4613 eV

     #   Z          covCN         q      C6AA      α(0)
     1   6 C        3.756    -0.099    22.444     6.755
     2   6 C        3.854    -0.005    20.626     6.459
     3   6 C        3.755    -0.101    22.486     6.762
     4   6 C        2.973     0.003    27.962     8.674
     5   6 C        2.927    -0.043    29.062     8.841
     6   6 C        2.916    -0.038    28.952     8.823
     7   6 C        2.927    -0.043    29.061     8.841
     8   6 C        2.973     0.003    27.962     8.674
     9   6 C        3.854    -0.005    20.625     6.459
    10   6 C        3.756    -0.099    22.443     6.755
    11   6 C        3.755    -0.101    22.488     6.762
    12   6 C        2.944     0.085    26.110     8.381
    13   7 N        2.749    -0.138    23.992     7.275
    14   6 C        2.779     0.260    22.617     7.789
    15   8 O        0.858    -0.523    24.304     6.610
    16   6 C        2.975    -0.047    29.158     8.857
    17   6 C        2.922    -0.061    29.519     8.910
    18   6 C        2.904     0.065    26.540     8.447
    19   7 N        2.755    -0.026    21.745     6.926
    20   6 C        2.952     0.056    26.753     8.484
    21   6 C        2.919    -0.038    28.954     8.824
    22   6 C        2.919    -0.030    28.737     8.791
    23   6 C        2.919    -0.031    28.766     8.795
    24   6 C        2.922    -0.036    28.888     8.814
    25   6 C        2.987    -0.001    28.037     8.686
    26   6 C        3.911     0.024    20.114     6.375
    27   6 C        3.759    -0.112    22.701     6.793
    28   6 C        3.761    -0.100    22.465     6.757
    29   6 C        2.987    -0.000    28.026     8.684
    30   6 C        2.922    -0.035    28.867     8.811
    31   6 C        2.919    -0.031    28.773     8.796
    32   6 C        2.919    -0.030    28.760     8.794
    33   6 C        2.919    -0.041    29.018     8.834
    34   6 C        2.952     0.055    26.769     8.486
    35   6 C        2.922    -0.071    29.760     8.946
    36   6 C        2.977     0.012    27.743     8.640
    37   6 C        2.920    -0.067    29.680     8.934
    38   6 C        2.921     0.053    26.802     8.490
    39   7 N        2.756    -0.022    21.672     6.914
    40   6 C        2.930     0.063    26.596     8.458
    41   6 C        2.922    -0.047    29.170     8.857
    42   6 C        2.918    -0.028    28.693     8.784
    43   6 C        2.917    -0.032    28.788     8.798
    44   6 C        2.925    -0.033    28.817     8.803
    45   6 C        2.978    -0.001    28.055     8.688
    46   6 C        3.909     0.024    20.110     6.374
    47   6 C        3.761    -0.108    22.602     6.777
    48   6 C        3.761    -0.108    22.619     6.780
    49   6 C        2.978    -0.001    28.057     8.689
    50   6 C        2.925    -0.033    28.820     8.804
    51   6 C        2.917    -0.032    28.787     8.798
    52   6 C        2.918    -0.028    28.688     8.783
    53   6 C        2.922    -0.046    29.152     8.854
    54   6 C        2.929     0.063    26.594     8.457
    55   6 C        2.920    -0.044    29.103     8.847
    56   6 C        2.977    -0.049    29.214     8.866
    57   6 C        2.992    -0.002    28.059     8.689
    58   6 C        2.778     0.260    22.620     7.790
    59   8 O        0.858    -0.524    24.329     6.613
    60   1 H        0.925     0.036     2.500     2.473
    61   1 H        0.925     0.037     2.492     2.468
    62   1 H        0.925     0.040     2.448     2.447
    63   1 H        0.924     0.014     2.833     2.632
    64   1 H        0.925     0.031     2.571     2.507
    65   1 H        0.925     0.043     2.410     2.427
    66   1 H        0.925     0.038     2.472     2.459
    67   1 H        0.926     0.041     2.435     2.440
    68   1 H        0.926     0.039     2.460     2.453
    69   1 H        0.926     0.041     2.436     2.441
    70   1 H        0.924     0.013     2.837     2.634
    71   1 H        0.925     0.037     2.487     2.466
    72   1 H        0.925     0.040     2.446     2.446
    73   1 H        0.925     0.035     2.513     2.479
    74   1 H        0.925     0.031     2.567     2.506
    75   1 H        0.925     0.043     2.408     2.427
    76   1 H        0.925     0.039     2.468     2.457
    77   1 H        0.926     0.043     2.403     2.424
    78   1 H        0.926     0.044     2.402     2.424
    79   1 H        0.926     0.042     2.418     2.432
    80   1 H        0.926     0.045     2.380     2.412
    81   1 H        0.926     0.057     2.235     2.338
    82   1 H        0.925     0.051     2.306     2.375
    83   1 H        0.925     0.049     2.327     2.386
    84   1 H        0.925     0.046     2.368     2.407
    85   1 H        0.925     0.033     2.546     2.495
    86   1 H        0.925     0.048     2.342     2.393
    87   1 H        0.925     0.045     2.379     2.412
    88   1 H        0.926     0.057     2.238     2.340
    89   1 H        0.926     0.046     2.366     2.405
    90   1 H        0.926     0.046     2.371     2.408
    91   1 H        0.926     0.047     2.353     2.399
    92   1 H        0.926     0.049     2.333     2.389
    93   1 H        0.926     0.041     2.436     2.441
    94   1 H        0.926     0.039     2.466     2.456
    95   1 H        0.926     0.042     2.422     2.434
    96   1 H        0.926     0.045     2.381     2.413
    97   1 H        0.926     0.052     2.300     2.372
    98   1 H        0.925     0.052     2.291     2.367
    99   1 H        0.925     0.035     2.513     2.479
   100   1 H        0.925     0.053     2.287     2.365
   101   1 H        0.925     0.053     2.286     2.365
   102   1 H        0.925     0.053     2.283     2.363
   103   1 H        0.925     0.038     2.470     2.458
   104   1 H        0.926     0.052     2.297     2.370
   105   1 H        0.926     0.045     2.382     2.414
   106   1 H        0.926     0.041     2.435     2.440
   107   1 H        0.926     0.037     2.492     2.469
   108   1 H        0.926     0.038     2.477     2.461

molecular dipole:
                 x           y           z       tot (Debye)
 q only:        1.110      -6.462      -0.640
   full:        1.092      -6.333      -0.550      16.394

 projected vibrational frequencies (cm⁻¹)
eigval :       -0.00    -0.00    -0.00     0.00     0.00     0.00
eigval :        5.34    11.29    14.47    16.99    17.73    28.34
eigval :       31.37    35.20    39.75    41.85    46.91    55.38
eigval :       64.54    68.81    77.26    90.59    93.86   101.82
eigval :      107.77   114.89   122.22   124.23   125.93   131.63
eigval :      136.49   153.10   157.53   167.11   178.84   186.47
eigval :      189.32   191.18   199.04   202.35   209.29   213.77
eigval :      224.83   229.65   233.40   236.73   237.61   242.30
eigval :      257.16   267.40   270.76   285.60   290.31   292.89
eigval :      303.45   303.82   309.03   316.63   324.24   332.24
eigval :      339.63   340.78   348.12   355.83   375.91   380.22
eigval :      386.09   397.66   399.55   408.68   413.68   415.31
eigval :      423.04   442.30   445.23   447.64   454.57   467.09
eigval :      467.44   478.06   492.56   496.35   503.10   507.01
eigval :      514.09   519.43   528.00   531.71   540.74   548.36
eigval :      549.48   561.38   570.62   575.98   581.65   585.05
eigval :      587.65   602.79   610.99   616.54   627.29   629.24
eigval :      642.53   661.97   665.48   666.68   676.51   688.75
eigval :      692.53   701.87   702.94   710.27   717.91   725.30
eigval :      727.25   746.67   760.11   767.14   774.02   775.18
eigval :      780.99   796.04   805.69   810.40   814.45   824.02
eigval :      826.68   832.68   838.77   847.82   853.43   862.77
eigval :      871.52   886.24   888.25   895.61   907.89   911.85
eigval :      912.53   917.09   917.41   918.96   919.52   920.41
eigval :      922.91   931.38   935.15   936.55   937.56   944.32
eigval :      947.51   948.87   955.89   967.43   974.73   982.41
eigval :      988.11   988.57   993.40  1009.38  1010.86  1044.81
eigval :     1065.17  1072.83  1072.92  1076.41  1085.38  1088.97
eigval :     1098.04  1098.77  1102.71  1104.97  1108.05  1110.58
eigval :     1134.77  1137.02  1140.66  1141.91  1145.27  1145.78
eigval :     1150.24  1153.48  1166.34  1171.13  1172.73  1175.00
eigval :     1180.52  1181.14  1181.35  1181.78  1183.67  1187.15
eigval :     1193.37  1196.07  1223.89  1228.24  1230.55  1240.92
eigval :     1244.11  1248.87  1254.75  1258.89  1260.05  1265.44
eigval :     1269.37  1279.40  1291.50  1293.03  1294.81  1298.51
eigval :     1314.07  1314.71  1317.87  1318.53  1323.59  1327.86
eigval :     1332.83  1334.54  1335.56  1358.89  1361.68  1371.03
eigval :     1382.02  1395.65  1396.09  1398.36  1398.71  1400.14
eigval :     1404.80  1413.14  1413.63  1413.69  1414.31  1415.89
eigval :     1423.77  1427.12  1432.00  1445.84  1452.67  1457.16
eigval :     1462.32  1462.72  1472.96  1479.06  1481.73  1482.72
eigval :     1484.56  1487.03  1489.02  1489.23  1489.69  1489.77
eigval :     1492.81  1493.39  1495.96  1497.10  1498.40  1499.01
eigval :     1501.73  1504.24  1504.64  1517.54  1531.65  1549.38
eigval :     1562.19  1564.50  1572.60  1575.94  1578.25  1582.37
eigval :     1586.78  1588.32  1590.42  1591.56  1611.27  2929.73
eigval :     2931.08  3019.89  3019.94  3023.67  3024.17  3026.76
eigval :     3026.91  3027.07  3028.36  3028.69  3029.66  3030.91
eigval :     3032.49  3036.42  3036.71  3037.49  3037.77  3043.18
eigval :     3043.41  3048.79  3050.01  3050.55  3052.07  3055.53
eigval :     3059.16  3071.21  3083.41  3083.75  3085.22  3085.61
eigval :     3086.21  3088.44  3091.36  3092.22  3092.39  3092.66
eigval :     3093.11  3098.19  3100.21  3100.37  3101.97  3102.40
eigval :     3109.01  3110.81  3115.61  3118.20  3119.42  3123.94

   temp. (K)  partition function   enthalpy   heat capacity  entropy
                                   cal/mol     cal/K/mol   cal/K/mol   J/K/mol
 298.15  VIB  0.379E+25            31549.786    195.100    196.437
         ROT  0.144E+09              888.752      2.981     40.307
         INT  0.544E+33            32438.538    198.081    236.743
         TR   0.208E+29             1481.254      4.968     45.789
         TOT                       33919.7920   203.0487   282.5328  1182.1173

       T/K    H(0)-H(T)+PV         H(T)/Eh          T*S/Eh         G(T)/Eh
   ------------------------------------------------------------------------
    298.15    0.540546E-01    0.923133E+00    0.134240E+00    0.788893E+00
   ------------------------------------------------------------------------

         :::::::::::::::::::::::::::::::::::::::::::::::::::::
         ::                  THERMODYNAMIC                  ::
         :::::::::::::::::::::::::::::::::::::::::::::::::::::
         :: total free energy        -156.901103775653 Eh   ::
         ::.................................................::
         :: total energy             -157.689996307571 Eh   ::
         :: zero point energy           0.869078356095 Eh   ::
         :: G(RRHO) w/o ZPVE           -0.080185824177 Eh   ::
         :: G(RRHO) contrib.            0.788892531919 Eh   ::
         :::::::::::::::::::::::::::::::::::::::::::::::::::::

           -------------------------------------------------
          | TOTAL ENERGY             -157.689996307571 Eh   |
          | TOTAL ENTHALPY           -156.766863322225 Eh   |
          | TOTAL FREE ENERGY        -156.901103775653 Eh   |
          | GRADIENT NORM               0.000027220214 Eh/α |
          | HOMO-LUMO GAP               1.461334659338 eV   |
           -------------------------------------------------

 * finished run on 2025/08/24 at 15:20:19.649
