   * xtb version 6.7.1 (edcfbbe) compiled by 'albert@albert-system' on 2024-07-22

   ID    Z sym.   atoms
    1    6 C      1, 3-9, 11-22, 24-27
    2    8 O      2
    3    7 N      10, 23
    4    1 H      28-45

          program call               : xtb data2507/toluene/ImPy-2/ImPy-2_toluene_T1_crest.xyz --gfn 2 --uhf 2 --gbsa toluene --ohess vtight --parallel 40 --molden --ceasefiles --namespace data2507/toluene/ImPy-2/ImPy-2_toluene_T1_finalOpt
      * Solvation model:               GBSA
        Solvent                        toluene
        Solvent mass                       9.2140E+01 g/mol
          :  Hamiltonian                  GFN2-xTB          :
 * total energy  :   -70.4462218 Eh     change       -0.5039738E-09 Eh
 * total energy  :   -70.4462459 Eh     change       -0.2402898E-04 Eh
 * total energy  :   -70.4462545 Eh     change       -0.8695805E-05 Eh
 * total energy  :   -70.4462563 Eh     change       -0.1792131E-05 Eh
 * total energy  :   -70.4462580 Eh     change       -0.1700910E-05 Eh
 * total energy  :   -70.4462595 Eh     change       -0.1426607E-05 Eh
 * total energy  :   -70.4462606 Eh     change       -0.1109517E-05 Eh
 * total energy  :   -70.4462613 Eh     change       -0.7326572E-06 Eh
 * total energy  :   -70.4462619 Eh     change       -0.5880493E-06 Eh
 * total energy  :   -70.4462625 Eh     change       -0.5943461E-06 Eh
 * total energy  :   -70.4462756 Eh     change       -0.4246168E-06 Eh
 * total energy  :   -70.4462759 Eh     change       -0.3253068E-06 Eh
 * total energy  :   -70.4462762 Eh     change       -0.2943738E-06 Eh
 * total energy  :   -70.4462765 Eh     change       -0.3050358E-06 Eh
 * total energy  :   -70.4462769 Eh     change       -0.3272314E-06 Eh
 * total energy  :   -70.4462772 Eh     change       -0.3497308E-06 Eh
 * total energy  :   -70.4462776 Eh     change       -0.4001172E-06 Eh
 * total energy  :   -70.4462781 Eh     change       -0.4704947E-06 Eh
 * total energy  :   -70.4462781 Eh     change       -0.5699079E-08 Eh
   *** GEOMETRY OPTIMIZATION CONVERGED AFTER 44 ITERATIONS ***

 final structure:
================
45
 xtb: 6.7.1 (edcfbbe)
C            7.54636726937398        1.74180994422363       -0.35950060035559
O            7.07142613844596        0.52545648292370        0.17639552704880
C            5.73123056221677        0.29229892852305        0.18575999457978
C            5.34441408764372       -0.94843747566075        0.73332111650202
C            4.02625489097336       -1.30139963182520        0.79578617645316
C            3.01724065224727       -0.43541577399855        0.30986932589230
C            1.66115905886519       -0.78143817388479        0.34936759113220
C            0.68205876287604        0.08317629776503       -0.14229662438886
C           -0.72070277249140       -0.21002465649325       -0.12158454281007
N           -1.64474575981057        0.72904446124689       -0.03245643238560
C           -2.86461491001381        0.11112110677647        0.01614419986859
C           -4.05533055794928        0.88352660396800        0.08652692455504
C           -3.94405713728381        2.26318069864491        0.37680808647849
C           -5.05981256007349        3.05974045058975        0.46449986606231
C           -6.32667149801547        2.52248023441796        0.25417961666777
C           -6.45420887009833        1.17335305989465       -0.05917817967318
C           -5.34539186414898        0.36262974677945       -0.14405782249982
C           -2.66257606741676       -1.31345404681512       -0.03313902910436
C           -3.47431105632645       -2.42585856895210        0.05632584065148
C           -2.89243442200404       -3.71507138260853       -0.07933706543438
C           -1.54502959369223       -3.83147273831101       -0.33647002420762
C           -0.73521256378599       -2.70249094671512       -0.39230055525696
N           -1.29553645710600       -1.47416275717170       -0.16432115958420
C            1.07972836011239        1.35043608826061       -0.63340416260516
C            2.39507453271183        1.70203697986334       -0.68744875809275
C            3.40823988923203        0.82060839167868       -0.23213256370898
C            4.76635341183689        1.16394306108918       -0.28632019081122
H            7.16660880641221        2.59965265060539        0.20336063820720
H            8.63030327875397        1.69805746089871       -0.26689094233926
H            7.27400331054835        1.84481970995935       -1.41410135706266
H            6.12134409393536       -1.60239681684210        1.09819518509812
H            3.73849713787483       -2.25422871681853        1.21537603874202
H            1.38572884352536       -1.70692985050178        0.83244688304458
H           -2.95582084839603        2.66367039707456        0.53940228143636
H           -4.95423876915974        4.10975866491036        0.69741738700841
H           -7.20304267108886        3.14934962791915        0.32296832140175
H           -7.43455440850328        0.75813165236749       -0.24617634585995
H           -5.46426184220341       -0.66866949063417       -0.43204147275180
H           -4.52815327535442       -2.33141398919467        0.24230125897470
H           -3.52109204710897       -4.58715943173540       -0.00738878080513
H           -1.09190431609666       -4.79654377174885       -0.49786484578531
H            0.30425828223872       -2.73558450834388       -0.66218380722425
H            0.30599014136534        2.01825270133476       -0.97878785226390
H            2.68538403022758        2.66427494855309       -1.08369629080042
H            5.03247333241018        2.12326594568791       -0.70159166849358

          :  Hamiltonian                  GFN2-xTB          :
         :: gradient norm              0.000057020437 Eh/a0 ::
         :: HOMO-LUMO gap              0.087465226293 eV    ::
         :: SCC energy               -71.656738445383 Eh    ::
         :: -> dispersion             -0.053774264552 Eh    ::
         :: -> Gsolv                  -0.030756296581 Eh    ::
         :: repulsion energy           1.210460351014 Eh    ::

    * Orbital Energies and Occupations

         #    Occupation            Energy/Eh            Energy/eV
      -------------------------------------------------------------
         1        2.0000           -0.7217433             -19.6396
       ...           ...                  ...                  ...
        54        2.0000           -0.4309361             -11.7264
        55        2.0000           -0.4294562             -11.6861
        56        2.0000           -0.4249672             -11.5639
        57        2.0000           -0.4193586             -11.4113
        58        2.0000           -0.4179574             -11.3732
        59        2.0000           -0.4163855             -11.3304
        60        2.0000           -0.4060372             -11.0488
        61        2.0000           -0.4037216             -10.9858
        62        2.0000           -0.3937006             -10.7131
        63        2.0000           -0.3827058             -10.4140
        64        2.0000           -0.3770359             -10.2597
        65        1.0000           -0.3479050              -9.4670
        66        0.8444           -0.2688853              -7.3167 (HOMO)
        67        0.1556           -0.2656713              -7.2293 (LUMO)
        68                         -0.2432175              -6.6183
        69                         -0.2353430              -6.4040
        70                         -0.2189310              -5.9574
        71                         -0.2037231              -5.5436
        72                         -0.1893110              -5.1514
        73                         -0.1647689              -4.4836
        74                         -0.1307133              -3.5569
        75                         -0.1134994              -3.0885
        76                         -0.0727445              -1.9795
        77                         -0.0577577              -1.5717
       ...                                ...                  ...
       126                          0.7108549              19.3433
      -------------------------------------------------------------
                  HL-Gap            0.0032140 Eh            0.0875 eV

     #   Z          covCN         q      C6AA      α(0)
     1   6 C        3.642     0.033    20.360     6.487
     2   8 O        1.705    -0.279    18.631     5.828
     3   6 C        2.861     0.143    24.891     8.178
     4   6 C        2.914    -0.054    29.336     8.882
     5   6 C        2.917    -0.041    29.011     8.832
     6   6 C        2.982     0.006    27.887     8.662
     7   6 C        2.920    -0.046    29.151     8.854
     8   6 C        2.968    -0.008    28.204     8.711
     9   6 C        3.098     0.136    24.912     8.180
    10   7 N        1.888    -0.325    29.286     8.023
    11   6 C        3.112     0.066    26.386     8.415
    12   6 C        2.969     0.002    27.970     8.675
    13   6 C        2.926    -0.030    28.747     8.793
    14   6 C        2.914    -0.030    28.745     8.792
    15   6 C        2.918    -0.033    28.813     8.802
    16   6 C        2.915    -0.030    28.756     8.793
    17   6 C        2.919    -0.041    29.015     8.833
    18   6 C        3.035     0.044    26.977     8.519
    19   6 C        2.907    -0.064    29.599     8.921
    20   6 C        2.916    -0.035    28.879     8.812
    21   6 C        2.908    -0.037    28.927     8.819
    22   6 C        2.852    -0.013    28.341     8.725
    23   7 N        2.824    -0.004    21.336     6.860
    24   6 C        2.922    -0.031    28.767     8.795
    25   6 C        2.915    -0.041    29.027     8.835
    26   6 C        2.985     0.015    27.670     8.629
    27   6 C        2.916    -0.080    29.989     8.980
    28   1 H        0.924     0.050     2.321     2.383
    29   1 H        0.925     0.069     2.101     2.267
    30   1 H        0.924     0.050     2.321     2.382
    31   1 H        0.926     0.046     2.365     2.405
    32   1 H        0.926     0.041     2.441     2.443
    33   1 H        0.926     0.036     2.506     2.475
    34   1 H        0.926     0.050     2.323     2.383
    35   1 H        0.926     0.034     2.534     2.489
    36   1 H        0.926     0.033     2.540     2.493
    37   1 H        0.926     0.032     2.551     2.498
    38   1 H        0.926     0.033     2.549     2.497
    39   1 H        0.926     0.040     2.445     2.445
    40   1 H        0.926     0.039     2.458     2.452
    41   1 H        0.926     0.046     2.364     2.405
    42   1 H        0.926     0.050     2.319     2.381
    43   1 H        0.926     0.047     2.355     2.400
    44   1 H        0.926     0.038     2.471     2.458
    45   1 H        0.926     0.042     2.418     2.431

molecular dipole:
                 x           y           z       tot (Debye)
 q only:        0.617      -0.175      -0.266
   full:        0.620      -0.487      -0.340       2.181

 projected vibrational frequencies (cm⁻¹)
eigval :       -0.00    -0.00    -0.00     0.00     0.00     0.00
eigval :       22.92    26.37    40.17    41.82    66.15    84.04
eigval :      102.85   128.85   147.26   161.85   172.60   188.85
eigval :      201.29   211.96   240.07   245.92   288.19   321.14
eigval :      343.09   353.00   367.22   367.49   370.43   392.38
eigval :      441.32   451.78   457.39   492.21   506.04   512.72
eigval :      541.19   555.16   576.38   587.80   592.40   616.69
eigval :      621.41   638.46   649.53   660.35   676.20   692.09
eigval :      710.06   720.45   736.92   743.25   769.79   791.77
eigval :      797.45   824.98   828.79   838.82   841.49   861.42
eigval :      873.33   875.54   876.79   900.07   910.63   914.53
eigval :      920.77   923.88   948.01   966.60   999.64  1038.81
eigval :     1054.29  1064.29  1081.18  1097.23  1113.66  1115.48
eigval :     1125.28  1132.74  1146.97  1152.02  1164.91  1169.92
eigval :     1175.34  1176.79  1192.46  1212.55  1226.04  1240.73
eigval :     1262.16  1274.13  1276.06  1282.60  1306.19  1316.99
eigval :     1335.37  1359.72  1363.10  1377.50  1387.20  1392.01
eigval :     1395.97  1416.73  1427.59  1434.14  1443.08  1462.15
eigval :     1470.43  1479.00  1484.75  1497.08  1516.27  1529.76
eigval :     1542.99  1566.15  1580.05  2939.01  2950.69  3026.02
eigval :     3069.04  3071.11  3074.67  3076.68  3083.53  3088.56
eigval :     3097.56  3098.97  3100.71  3102.93  3107.26  3110.61
eigval :     3116.11  3141.09  3144.74

   temp. (K)  partition function   enthalpy   heat capacity  entropy
                                   cal/mol     cal/K/mol   cal/K/mol   J/K/mol
 298.15  VIB  0.271E+09            12150.186     80.055     73.219
         ROT  0.175E+08              888.752      2.981     36.122
         INT  0.475E+16            13038.938     83.036    109.341
         TR   0.635E+28             1481.254      4.968     43.436
         TOT                       14520.1919    88.0042   152.7773   639.2204

       T/K    H(0)-H(T)+PV         H(T)/Eh          T*S/Eh         G(T)/Eh
   ------------------------------------------------------------------------
    298.15    0.231394E-01    0.364840E+00    0.725894E-01    0.292250E+00
   ------------------------------------------------------------------------

         :::::::::::::::::::::::::::::::::::::::::::::::::::::
         ::                  THERMODYNAMIC                  ::
         :::::::::::::::::::::::::::::::::::::::::::::::::::::
         :: total free energy         -70.154027668265 Eh   ::
         ::.................................................::
         :: total energy              -70.446278093687 Eh   ::
         :: zero point energy           0.341700469194 Eh   ::
         :: G(RRHO) w/o ZPVE           -0.049450043772 Eh   ::
         :: G(RRHO) contrib.            0.292250425422 Eh   ::
         :::::::::::::::::::::::::::::::::::::::::::::::::::::

           -------------------------------------------------
          | TOTAL ENERGY              -70.446278093687 Eh   |
          | TOTAL ENTHALPY            -70.081438225799 Eh   |
          | TOTAL FREE ENERGY         -70.154027668265 Eh   |
          | GRADIENT NORM               0.000056662888 Eh/α |
          | HOMO-LUMO GAP               0.087457014443 eV   |
           -------------------------------------------------

 * finished run on 2025/09/04 at 13:05:57.982
