   * xtb version 6.7.1 (edcfbbe) compiled by 'albert@albert-system' on 2024-07-22

   ID    Z sym.   atoms
    1    6 C      1, 3-9, 11-22, 24-27
    2    8 O      2
    3    7 N      10, 23
    4    1 H      28-45

          program call               : xtb data2507/toluene/ImPy-2/ImPy-2_toluene_S0_finalOpt.xtbopt.xyz --gfn 2 --uhf 2 --gbsa toluene --ohess vtight --parallel 40 --molden --ceasefiles --namespace data2507/toluene/ImPy-2/ImPy-2_toluene_T1_preOpt
      * Solvation model:               GBSA
        Solvent                        toluene
        Solvent mass                       9.2140E+01 g/mol
          :  Hamiltonian                  GFN2-xTB          :
 * total energy  :   -70.4382855 Eh     change       -0.2481499E-09 Eh
 * total energy  :   -70.4435196 Eh     change       -0.5234135E-02 Eh
 * total energy  :   -70.4449725 Eh     change       -0.1452881E-02 Eh
 * total energy  :   -70.4451769 Eh     change       -0.2043783E-03 Eh
 * total energy  :   -70.4453629 Eh     change       -0.1859704E-03 Eh
 * total energy  :   -70.4454720 Eh     change       -0.1091034E-03 Eh
 * total energy  :   -70.4455949 Eh     change       -0.1228703E-03 Eh
 * total energy  :   -70.4457161 Eh     change       -0.1212379E-03 Eh
 * total energy  :   -70.4458097 Eh     change       -0.9355974E-04 Eh
 * total energy  :   -70.4458916 Eh     change       -0.8195627E-04 Eh
 * total energy  :   -70.4462740 Eh     change       -0.6530823E-06 Eh
 * total energy  :   -70.4462747 Eh     change       -0.6959568E-06 Eh
 * total energy  :   -70.4462755 Eh     change       -0.8211066E-06 Eh
 * total energy  :   -70.4462764 Eh     change       -0.8231628E-06 Eh
 * total energy  :   -70.4462770 Eh     change       -0.6375808E-06 Eh
 * total energy  :   -70.4462774 Eh     change       -0.3681971E-06 Eh
 * total energy  :   -70.4462776 Eh     change       -0.2212620E-06 Eh
 * total energy  :   -70.4462777 Eh     change       -0.1315539E-06 Eh
 * total energy  :   -70.4462778 Eh     change       -0.9651652E-07 Eh
   *** GEOMETRY OPTIMIZATION CONVERGED AFTER 42 ITERATIONS ***

 final structure:
================
45
 xtb: 6.7.1 (edcfbbe)
C            7.54459528180458        1.72684458061267        0.37586730312259
O            7.07112599005979        0.50821618021579       -0.15621968824770
C            5.73091205423825        0.27532205025566       -0.16830461742607
C            5.34483701351241       -0.96744156160738       -0.71175185609251
C            4.02656705973187       -1.31965675156898       -0.77708921045184
C            3.01650463701963       -0.45117626799031       -0.29773012664865
C            1.66014979117191       -0.79598146127086       -0.34085821474393
C            0.68030486871869        0.07093569792377        0.14551461554771
C           -0.72330616620166       -0.21729584890096        0.12161674616492
N           -1.64216279583899        0.72751067902972        0.03668215614757
C           -2.86546470314081        0.11714987410051       -0.01398022274925
C           -4.05184267287715        0.89692463343467       -0.07755554460621
C           -3.93333921678648        2.27688283639452       -0.36310354216997
C           -5.04459309563264        3.08055890982639       -0.44288181138826
C           -6.31371323194628        2.55029879105972       -0.22868513513382
C           -6.44811332583194        1.20082167233235        0.08023035466180
C           -5.34392175721208        0.38298454507644        0.15691922408200
C           -2.67174448102611       -1.30865332494790        0.02766347145859
C           -3.49060216213539       -2.41530081933193       -0.06872421448788
C           -2.91702522801309       -3.70886092565693        0.05941856374333
C           -1.57044473665288       -3.83511737648376        0.31620975070827
C           -0.75346625686508       -2.71156622541852        0.37898652864886
N           -1.30568211273853       -1.47833097147279        0.15823691533764
C            1.07823290747326        1.33886581095415        0.63521853239490
C            2.39351025391745        1.68974219302336        0.69158615064719
C            3.40709444230915        0.80630512078581        0.24117550134727
C            4.76511156245590        1.14924984280037        0.29764831392230
H            7.27033403952052        1.83368711126330        1.42960694730282
H            8.62870778964381        1.68332356295447        0.28528912535102
H            7.16537452496224        2.58238691554577       -0.19085401809627
H            6.12239173379648       -1.62355799226403       -1.07136999669199
H            3.73968885271110       -2.27403675718860       -1.19373363389610
H            1.38578496461331       -1.72245114378718       -0.82255417039547
H           -2.94340138245238        2.67200549981284       -0.52857684258567
H           -4.93362143189625        4.13076208018164       -0.67239442103772
H           -7.18654051671671        3.18276024017306       -0.29109623804179
H           -7.43010377335467        0.79094741409334        0.27044790619375
H           -5.46763997482406       -0.64860311668085        0.44194879279930
H           -4.54369015251739       -2.31263477761284       -0.25474505979279
H           -3.55112212320717       -4.57653127570657       -0.01814985517142
H           -1.12330974617623       -4.80393270590588        0.47176869436767
H            0.28554622676126       -2.75338734829431        0.64929953645355
H            0.30410564734577        2.00805360354419        0.97695198470460
H            2.68350712016583        2.65283215822061        1.08594827261859
H            5.03042139338218        2.11004768766144        0.70999160367172

          :  Hamiltonian                  GFN2-xTB          :
         :: gradient norm              0.000109003896 Eh/a0 ::
         :: HOMO-LUMO gap              0.087073344797 eV    ::
         :: SCC energy               -71.656757457294 Eh    ::
         :: -> dispersion             -0.053771653403 Eh    ::
         :: -> Gsolv                  -0.030762815980 Eh    ::
         :: repulsion energy           1.210479633322 Eh    ::

    * Orbital Energies and Occupations

         #    Occupation            Energy/Eh            Energy/eV
      -------------------------------------------------------------
         1        2.0000           -0.7217400             -19.6395
       ...           ...                  ...                  ...
        54        2.0000           -0.4309012             -11.7254
        55        2.0000           -0.4294468             -11.6858
        56        2.0000           -0.4249662             -11.5639
        57        2.0000           -0.4193583             -11.4113
        58        2.0000           -0.4179117             -11.3720
        59        2.0000           -0.4163409             -11.3292
        60        2.0000           -0.4060294             -11.0486
        61        2.0000           -0.4037141             -10.9856
        62        2.0000           -0.3936541             -10.7119
        63        2.0000           -0.3826507             -10.4125
        64        2.0000           -0.3770316             -10.2596
        65        1.0000           -0.3478954              -9.4667
        66        0.8434           -0.2688676              -7.3163 (HOMO)
        67        0.1566           -0.2656680              -7.2292 (LUMO)
        68                         -0.2432217              -6.6184
        69                         -0.2353381              -6.4039
        70                         -0.2189334              -5.9575
        71                         -0.2036829              -5.5425
        72                         -0.1892394              -5.1495
        73                         -0.1647691              -4.4836
        74                         -0.1305260              -3.5518
        75                         -0.1134665              -3.0876
        76                         -0.0727768              -1.9804
        77                         -0.0576536              -1.5688
       ...                                ...                  ...
       126                          0.7109142              19.3450
      -------------------------------------------------------------
                  HL-Gap            0.0031996 Eh            0.0871 eV

     #   Z          covCN         q      C6AA      α(0)
     1   6 C        3.643     0.033    20.360     6.487
     2   8 O        1.705    -0.279    18.630     5.828
     3   6 C        2.861     0.143    24.891     8.178
     4   6 C        2.914    -0.054    29.337     8.882
     5   6 C        2.917    -0.041    29.012     8.833
     6   6 C        2.982     0.006    27.887     8.662
     7   6 C        2.920    -0.046    29.152     8.854
     8   6 C        2.969    -0.008    28.205     8.711
     9   6 C        3.098     0.136    24.915     8.180
    10   7 N        1.888    -0.325    29.287     8.023
    11   6 C        3.112     0.066    26.386     8.415
    12   6 C        2.969     0.002    27.970     8.675
    13   6 C        2.926    -0.030    28.747     8.793
    14   6 C        2.914    -0.030    28.745     8.792
    15   6 C        2.918    -0.033    28.813     8.802
    16   6 C        2.915    -0.030    28.756     8.793
    17   6 C        2.919    -0.041    29.015     8.833
    18   6 C        3.035     0.044    26.976     8.519
    19   6 C        2.907    -0.064    29.599     8.921
    20   6 C        2.916    -0.035    28.876     8.812
    21   6 C        2.908    -0.037    28.929     8.819
    22   6 C        2.852    -0.013    28.340     8.725
    23   7 N        2.824    -0.004    21.334     6.860
    24   6 C        2.922    -0.031    28.767     8.796
    25   6 C        2.915    -0.041    29.028     8.835
    26   6 C        2.985     0.015    27.670     8.629
    27   6 C        2.916    -0.080    29.989     8.980
    28   1 H        0.924     0.050     2.321     2.382
    29   1 H        0.925     0.069     2.101     2.267
    30   1 H        0.924     0.050     2.321     2.382
    31   1 H        0.926     0.046     2.366     2.405
    32   1 H        0.926     0.041     2.441     2.443
    33   1 H        0.926     0.036     2.505     2.475
    34   1 H        0.926     0.050     2.324     2.384
    35   1 H        0.926     0.034     2.534     2.489
    36   1 H        0.926     0.033     2.541     2.493
    37   1 H        0.926     0.032     2.551     2.498
    38   1 H        0.926     0.033     2.550     2.497
    39   1 H        0.926     0.040     2.445     2.445
    40   1 H        0.926     0.039     2.458     2.452
    41   1 H        0.926     0.046     2.364     2.405
    42   1 H        0.926     0.050     2.319     2.381
    43   1 H        0.926     0.047     2.352     2.398
    44   1 H        0.926     0.038     2.471     2.458
    45   1 H        0.926     0.042     2.417     2.431

molecular dipole:
                 x           y           z       tot (Debye)
 q only:        0.612      -0.176       0.263
   full:        0.612      -0.489       0.334       2.164

 projected vibrational frequencies (cm⁻¹)
eigval :       -0.00    -0.00    -0.00    -0.00     0.00     0.00
eigval :       24.66    27.98    42.21    43.48    66.44    84.57
eigval :      103.10   129.42   147.65   162.11   173.59   189.55
eigval :      201.43   211.79   239.93   246.38   288.39   321.39
eigval :      343.61   353.59   366.91   368.24   370.60   392.39
eigval :      441.56   451.88   457.42   492.17   506.33   512.92
eigval :      541.48   555.36   576.52   587.91   592.62   616.70
eigval :      621.55   638.61   649.44   660.25   676.03   692.15
eigval :      710.17   721.52   736.95   743.59   770.06   792.24
eigval :      798.13   825.12   828.98   839.06   841.36   860.76
eigval :      873.45   876.19   876.88   901.52   910.74   914.03
eigval :      920.83   924.23   948.08   966.55   999.29  1039.08
eigval :     1054.30  1064.09  1081.36  1097.33  1113.78  1115.52
eigval :     1125.17  1132.41  1147.26  1151.99  1165.14  1170.01
eigval :     1175.38  1176.89  1192.32  1212.51  1226.63  1240.97
eigval :     1262.11  1274.22  1275.93  1282.54  1306.30  1316.92
eigval :     1335.36  1360.01  1363.11  1377.47  1387.12  1391.89
eigval :     1395.83  1416.77  1427.42  1434.26  1443.19  1462.12
eigval :     1470.11  1479.22  1484.73  1496.65  1516.39  1529.81
eigval :     1543.07  1566.24  1580.14  2938.87  2950.48  3025.88
eigval :     3068.79  3071.06  3074.82  3076.97  3084.07  3088.51
eigval :     3098.68  3099.03  3100.80  3103.25  3107.89  3111.02
eigval :     3115.77  3141.68  3144.82

   temp. (K)  partition function   enthalpy   heat capacity  entropy
                                   cal/mol     cal/K/mol   cal/K/mol   J/K/mol
 298.15  VIB  0.215E+09            12132.740     80.148     73.063
         ROT  0.175E+08              888.752      2.981     36.124
         INT  0.377E+16            13021.492     83.129    109.187
         TR   0.635E+28             1481.254      4.968     43.436
         TOT                       14502.7463    88.0967   152.6231   638.5752

       T/K    H(0)-H(T)+PV         H(T)/Eh          T*S/Eh         G(T)/Eh
   ------------------------------------------------------------------------
    298.15    0.231116E-01    0.364868E+00    0.725162E-01    0.292351E+00
   ------------------------------------------------------------------------

         :::::::::::::::::::::::::::::::::::::::::::::::::::::
         ::                  THERMODYNAMIC                  ::
         :::::::::::::::::::::::::::::::::::::::::::::::::::::
         :: total free energy         -70.153926414500 Eh   ::
         ::.................................................::
         :: total energy              -70.446277823476 Eh   ::
         :: zero point energy           0.341755993665 Eh   ::
         :: G(RRHO) w/o ZPVE           -0.049404584689 Eh   ::
         :: G(RRHO) contrib.            0.292351408976 Eh   ::
         :::::::::::::::::::::::::::::::::::::::::::::::::::::

           -------------------------------------------------
          | TOTAL ENERGY              -70.446277823476 Eh   |
          | TOTAL ENTHALPY            -70.081410232476 Eh   |
          | TOTAL FREE ENERGY         -70.153926414500 Eh   |
          | GRADIENT NORM               0.000112072425 Eh/α |
          | HOMO-LUMO GAP               0.087065654703 eV   |
           -------------------------------------------------

 * finished run on 2025/09/04 at 13:04:45.916
