   * xtb version 6.7.1 (edcfbbe) compiled by 'albert@albert-system' on 2024-07-22

   ID    Z sym.   atoms
    1    6 C      1, 3-9, 11-22, 24-27
    2    8 O      2
    3    7 N      10, 23
    4    1 H      28-45

          program call               : xtb data2507/toluene/ImPy-2/ImPy-2_toluene_S0_crest.xyz --gfn 2 --gbsa toluene --ohess vtight --parallel 40 --molden --ceasefiles --namespace data2507/toluene/ImPy-2/ImPy-2_toluene_S0_finalOpt
      * Solvation model:               GBSA
        Solvent                        toluene
        Solvent mass                       9.2140E+01 g/mol
          :  Hamiltonian                  GFN2-xTB          :
 * total energy  :   -70.5299558 Eh     change       -0.1363773E-08 Eh
 * total energy  :   -70.5299798 Eh     change       -0.2404142E-04 Eh
 * total energy  :   -70.5299898 Eh     change       -0.1000953E-04 Eh
 * total energy  :   -70.5299937 Eh     change       -0.3895440E-05 Eh
 * total energy  :   -70.5299991 Eh     change       -0.5412691E-05 Eh
 * total energy  :   -70.5300063 Eh     change       -0.7206218E-05 Eh
 * total energy  :   -70.5300133 Eh     change       -0.6966572E-05 Eh
 * total energy  :   -70.5300188 Eh     change       -0.5538449E-05 Eh
 * total energy  :   -70.5300232 Eh     change       -0.4404407E-05 Eh
 * total energy  :   -70.5300271 Eh     change       -0.3826589E-05 Eh
 * total energy  :   -70.5300336 Eh     change       -0.5268414E-06 Eh
 * total energy  :   -70.5300339 Eh     change       -0.3711990E-06 Eh
 * total energy  :   -70.5300343 Eh     change       -0.3172617E-06 Eh
 * total energy  :   -70.5300346 Eh     change       -0.3244479E-06 Eh
 * total energy  :   -70.5300349 Eh     change       -0.3601531E-06 Eh
 * total energy  :   -70.5300353 Eh     change       -0.3891794E-06 Eh
 * total energy  :   -70.5300357 Eh     change       -0.3481047E-06 Eh
 * total energy  :   -70.5300360 Eh     change       -0.3289390E-06 Eh
 * total energy  :   -70.5300360 Eh     change       -0.4802331E-08 Eh
   *** GEOMETRY OPTIMIZATION CONVERGED AFTER 22 ITERATIONS ***

 final structure:
================
45
 xtb: 6.7.1 (edcfbbe)
C            7.58086428206676        1.67182548677315        0.45265021884479
O            7.08632547238020        0.52945869236325       -0.21188997674376
C            5.74144648379796        0.30830096872439       -0.21222478203887
C            5.33213289610381       -0.85577036600680       -0.90514603961881
C            4.01484130537816       -1.19278826199837       -0.98016138185043
C            3.02397959405559       -0.39189398686340       -0.36798003213709
C            1.65714523705460       -0.71846076722105       -0.42946429113341
C            0.70915003026634        0.07078320733367        0.18530570769611
C           -0.71397083862269       -0.21599499633147        0.13679423529276
N           -1.63584382697716        0.72467967019805        0.05429135285721
C           -2.84660643860148        0.12694090194703        0.00896278623202
C           -4.06515445870512        0.91293269178636       -0.08947218684940
C           -4.01677382268257        2.16828357716219       -0.69817488830279
C           -5.15469052940963        2.94381100020481       -0.80203422688053
C           -6.36112706537538        2.48301880444477       -0.29810692503770
C           -6.41608344297350        1.24663120797587        0.32424332661617
C           -5.27893270032054        0.46753239509818        0.43332313623350
C           -2.67275301520724       -1.26075534476548        0.06105524533280
C           -3.51074044915832       -2.38780506740056       -0.01433986989957
C           -2.97296208578338       -3.63589430337995        0.08804184392590
C           -1.57867302561559       -3.78802476890708        0.29733517782095
C           -0.76635841691414       -2.70390867161684        0.32607889727845
N           -1.29101880702843       -1.45631763326493        0.15641883312525
C            1.12233458477324        1.24823515918366        0.85107250832173
C            2.44090440903661        1.58864578366307        0.91789493291853
C            3.43256472149088        0.77748334670580        0.32335939438978
C            4.80117259694717        1.10841066512846        0.38949793761289
H            7.34032487621233        1.64641449978573        1.51981567164102
H            8.66145224488340        1.64072012378954        0.32323364835209
H            7.18651624398121        2.59136218761855        0.00960665126910
H            6.09851989569239       -1.45910501876454       -1.36701231709183
H            3.71147215788239       -2.08352815691202       -1.51138412569328
H            1.36846589691098       -1.58526094619943       -1.00689527703418
H           -3.07077954864803        2.51709521115997       -1.08413100791753
H           -5.10317655659773        3.91230784277579       -1.27909224757566
H           -7.25227656754635        3.08817335376161       -0.38176671794211
H           -7.35039526963467        0.88988956450202        0.73452176044143
H           -5.32686779689241       -0.47764756092395        0.95297489233659
H           -4.56774861519888       -2.24025159101486       -0.16414114472442
H           -3.59744925753056       -4.51279436173441        0.02741603484766
H           -1.15985717162398       -4.77200178515988        0.43111027019399
H            0.29590314749115       -2.76576484586796        0.49886197708467
H            0.36093931901135        1.86771731682422        1.29973885180901
H            2.74477308523532        2.48992069083505        1.43112793910860
H            5.07895041229588        2.00431088738755        0.92256792928791

          :  Hamiltonian                  GFN2-xTB          :
         :: gradient norm              0.000049294799 Eh/a0 ::
         :: HOMO-LUMO gap              2.408137664003 eV    ::
         :: SCC energy               -71.760652515802 Eh    ::
         :: -> dispersion             -0.053677091479 Eh    ::
         :: -> Gsolv                  -0.031152617131 Eh    ::
         :: repulsion energy           1.230616496288 Eh    ::

    * Orbital Energies and Occupations

         #    Occupation            Energy/Eh            Energy/eV
      -------------------------------------------------------------
         1        2.0000           -0.7195796             -19.5808
       ...           ...                  ...                  ...
        53        2.0000           -0.4387264             -11.9384
        54        2.0000           -0.4290512             -11.6751
        55        2.0000           -0.4275905             -11.6353
        56        2.0000           -0.4214778             -11.4690
        57        2.0000           -0.4183848             -11.3848
        58        2.0000           -0.4168888             -11.3441
        59        2.0000           -0.4157216             -11.3124
        60        2.0000           -0.4039401             -10.9918
        61        2.0000           -0.3999705             -10.8838
        62        2.0000           -0.3926806             -10.6854
        63        2.0000           -0.3792710             -10.3205
        64        2.0000           -0.3775352             -10.2733
        65        2.0000           -0.3516968              -9.5702 (HOMO)
        66                         -0.2631994              -7.1620 (LUMO)
        67                         -0.2612541              -7.1091
        68                         -0.2418743              -6.5817
        69                         -0.2305348              -6.2732
        70                         -0.2178463              -5.9279
        71                         -0.2028788              -5.5206
        72                         -0.1890995              -5.1457
        73                         -0.1612976              -4.3891
        74                         -0.1286123              -3.4997
        75                         -0.1106042              -3.0097
        76                         -0.0718545              -1.9553
       ...                                ...                  ...
       126                          0.7106857              19.3387
      -------------------------------------------------------------
                  HL-Gap            0.0884974 Eh            2.4081 eV

     #   Z          covCN         q      C6AA      α(0)
     1   6 C        3.643     0.035    20.335     6.483
     2   8 O        1.705    -0.286    18.752     5.847
     3   6 C        2.861     0.141    24.924     8.183
     4   6 C        2.916    -0.051    29.279     8.873
     5   6 C        2.917    -0.037    28.914     8.818
     6   6 C        2.985     0.003    27.939     8.671
     7   6 C        2.922    -0.046    29.141     8.852
     8   6 C        2.969    -0.004    28.116     8.698
     9   6 C        3.122     0.109    25.434     8.259
    10   7 N        1.914    -0.302    28.676     7.940
    11   6 C        3.130     0.048    26.726     8.464
    12   6 C        2.972     0.006    27.884     8.662
    13   6 C        2.927    -0.032    28.794     8.800
    14   6 C        2.918    -0.031    28.774     8.796
    15   6 C        2.919    -0.034    28.853     8.809
    16   6 C        2.918    -0.032    28.800     8.800
    17   6 C        2.923    -0.042    29.042     8.837
    18   6 C        3.072     0.024    27.396     8.582
    19   6 C        2.907    -0.036    28.900     8.815
    20   6 C        2.919    -0.033    28.814     8.803
    21   6 C        2.914    -0.039    28.979     8.827
    22   6 C        2.851     0.011    27.770     8.637
    23   7 N        2.843    -0.001    21.275     6.851
    24   6 C        2.922    -0.032    28.789     8.799
    25   6 C        2.917    -0.037    28.925     8.819
    26   6 C        2.987     0.011    27.765     8.643
    27   6 C        2.916    -0.078    29.955     8.975
    28   1 H        0.924     0.047     2.352     2.398
    29   1 H        0.925     0.067     2.119     2.276
    30   1 H        0.924     0.047     2.352     2.399
    31   1 H        0.926     0.047     2.356     2.400
    32   1 H        0.926     0.042     2.422     2.434
    33   1 H        0.926     0.032     2.552     2.498
    34   1 H        0.926     0.041     2.436     2.441
    35   1 H        0.926     0.030     2.582     2.513
    36   1 H        0.926     0.030     2.591     2.517
    37   1 H        0.926     0.030     2.591     2.517
    38   1 H        0.926     0.028     2.610     2.526
    39   1 H        0.926     0.048     2.343     2.394
    40   1 H        0.926     0.044     2.390     2.418
    41   1 H        0.926     0.053     2.287     2.365
    42   1 H        0.926     0.055     2.254     2.348
    43   1 H        0.926     0.044     2.398     2.422
    44   1 H        0.926     0.038     2.478     2.462
    45   1 H        0.926     0.042     2.428     2.437

molecular dipole:
                 x           y           z       tot (Debye)
 q only:        0.551      -0.702       0.298
   full:        0.568      -0.993       0.371       3.057

 projected vibrational frequencies (cm⁻¹)
eigval :       -0.00    -0.00    -0.00    -0.00     0.00     0.00
eigval :       23.79    26.54    42.54    43.59    68.42    86.46
eigval :       90.95   128.93   150.67   165.13   183.33   189.85
eigval :      207.37   214.93   241.27   262.81   277.52   331.52
eigval :      354.87   371.30   373.19   374.81   393.88   412.06
eigval :      449.88   458.64   475.74   498.14   516.80   520.59
eigval :      560.21   574.49   576.73   591.17   601.17   628.19
eigval :      636.87   663.70   677.39   690.74   697.81   717.36
eigval :      744.62   761.57   765.93   783.95   796.67   833.75
eigval :      838.69   852.20   856.15   876.45   879.71   884.24
eigval :      896.90   901.83   910.68   914.20   921.32   928.78
eigval :      930.74   933.34   951.58   985.41  1022.43  1054.64
eigval :     1063.12  1081.28  1116.02  1116.51  1119.39  1134.24
eigval :     1152.33  1153.71  1161.20  1171.30  1178.26  1178.63
eigval :     1185.52  1203.91  1225.47  1236.51  1243.57  1265.12
eigval :     1273.24  1288.13  1312.68  1320.17  1327.45  1342.16
eigval :     1376.90  1389.90  1392.75  1397.90  1423.36  1425.80
eigval :     1431.33  1443.76  1463.64  1471.23  1475.70  1491.34
eigval :     1494.43  1510.15  1540.33  1562.41  1577.83  1595.92
eigval :     1601.25  1609.60  1613.28  2936.20  2948.71  3025.75
eigval :     3064.54  3068.02  3070.87  3071.12  3074.58  3080.47
eigval :     3088.75  3095.63  3096.89  3097.74  3099.39  3099.76
eigval :     3106.72  3114.08  3119.38

   temp. (K)  partition function   enthalpy   heat capacity  entropy
                                   cal/mol     cal/K/mol   cal/K/mol   J/K/mol
 298.15  VIB  0.175E+09            11829.734     77.877     71.534
         ROT  0.175E+08              888.752      2.981     36.120
         INT  0.305E+16            12718.486     80.858    107.654
         TR   0.635E+28             1481.254      4.968     43.436
         TOT                       14199.7398    85.8257   151.0900   632.1606

       T/K    H(0)-H(T)+PV         H(T)/Eh          T*S/Eh         G(T)/Eh
   ------------------------------------------------------------------------
    298.15    0.226287E-01    0.369308E+00    0.717877E-01    0.297520E+00
   ------------------------------------------------------------------------

         :::::::::::::::::::::::::::::::::::::::::::::::::::::
         ::                  THERMODYNAMIC                  ::
         :::::::::::::::::::::::::::::::::::::::::::::::::::::
         :: total free energy         -70.232516246874 Eh   ::
         ::.................................................::
         :: total energy              -70.530036017973 Eh   ::
         :: zero point energy           0.346678780735 Eh   ::
         :: G(RRHO) w/o ZPVE           -0.049159009636 Eh   ::
         :: G(RRHO) contrib.            0.297519771099 Eh   ::
         :::::::::::::::::::::::::::::::::::::::::::::::::::::

           -------------------------------------------------
          | TOTAL ENERGY              -70.530036017973 Eh   |
          | TOTAL ENTHALPY            -70.160728511446 Eh   |
          | TOTAL FREE ENERGY         -70.232516246874 Eh   |
          | GRADIENT NORM               0.000049285017 Eh/α |
          | HOMO-LUMO GAP               2.408137697918 eV   |
           -------------------------------------------------

 * finished run on 2025/09/04 at 13:04:43.243
