   * xtb version 6.7.1 (edcfbbe) compiled by 'albert@albert-system' on 2024-07-22

   ID    Z sym.   atoms
    1    6 C      1, 3-9, 11-22, 24-27
    2    8 O      2
    3    7 N      10, 23
    4    1 H      28-45

          program call               : xtb data2507/toluene/ImPy-2/ImPy-2.xyz --gfn 2 --gbsa toluene --ohess vtight --parallel 40 --molden --ceasefiles --namespace data2507/toluene/ImPy-2/ImPy-2_toluene_S0_preOpt
      * Solvation model:               GBSA
        Solvent                        toluene
        Solvent mass                       9.2140E+01 g/mol
          :  Hamiltonian                  GFN2-xTB          :
 * total energy  :   -70.5182292 Eh     change       -0.4025978E-08 Eh
 * total energy  :   -70.5253642 Eh     change       -0.7134994E-02 Eh
 * total energy  :   -70.5270159 Eh     change       -0.1651624E-02 Eh
 * total energy  :   -70.5272180 Eh     change       -0.2021707E-03 Eh
 * total energy  :   -70.5273746 Eh     change       -0.1565665E-03 Eh
 * total energy  :   -70.5274410 Eh     change       -0.6640733E-04 Eh
 * total energy  :   -70.5275415 Eh     change       -0.1005357E-03 Eh
 * total energy  :   -70.5276467 Eh     change       -0.1051231E-03 Eh
 * total energy  :   -70.5277240 Eh     change       -0.7734957E-04 Eh
 * total energy  :   -70.5277968 Eh     change       -0.7274331E-04 Eh
 * total energy  :   -70.5284907 Eh     change       -0.8850151E-06 Eh
 * total energy  :   -70.5284916 Eh     change       -0.8720373E-06 Eh
 * total energy  :   -70.5284923 Eh     change       -0.7286028E-06 Eh
 * total energy  :   -70.5284928 Eh     change       -0.4996167E-06 Eh
 * total energy  :   -70.5284931 Eh     change       -0.2896700E-06 Eh
 * total energy  :   -70.5284933 Eh     change       -0.2046984E-06 Eh
 * total energy  :   -70.5284935 Eh     change       -0.1858716E-06 Eh
 * total energy  :   -70.5284937 Eh     change       -0.1550351E-06 Eh
 * total energy  :   -70.5284937 Eh     change       -0.1257703E-08 Eh
   *** GEOMETRY OPTIMIZATION CONVERGED AFTER 44 ITERATIONS ***

 final structure:
================
45
 xtb: 6.7.1 (edcfbbe)
C            7.93017675507128        0.53194342846549       -0.39770085981918
O            6.86032167092965        1.20431459232544        0.23140707701176
C            5.59006321547628        0.73627237707516        0.05921325297567
C            5.26103209084849       -0.39881178067917       -0.70843807517612
C            3.95742539020061       -0.79632489767346       -0.82369666845484
C            2.91485419192827       -0.09343626836190       -0.18826898452418
C            1.56787231303743       -0.48936016587645       -0.29937871026678
C            0.56762859639059        0.21301956393324        0.33430864016063
C           -0.83636528668851       -0.14522914257720        0.22821232031307
N           -1.80568746209515        0.74506304676362        0.14136868148053
C           -2.97893371008030        0.08348449852648        0.02865032821565
C           -4.23158130181716        0.80865176248191       -0.10126164236229
C           -4.21387466084961        2.09742379301502       -0.63854654444978
C           -5.38325135365440        2.81835297479677       -0.77763080797390
C           -6.59283708888712        2.26825906704318       -0.38234347196935
C           -6.61931064931909        0.99801493498646        0.16963110210754
C           -5.45044197171959        0.27368944240396        0.31508047936557
C           -2.72896978056924       -1.29384984555995        0.04303255527075
C           -3.49637724445790       -2.46490776645213       -0.09263402714174
C           -2.89112554778336       -3.68280199425642       -0.00343583900485
C           -1.49787846476502       -3.76256795547506        0.24843489493575
C           -0.75132679054437       -2.63510686699271        0.33477079131553
N           -1.34255656908063       -1.41532414611850        0.18448084965267
C            0.90161076641380        1.37144663178480        1.07725895073415
C            2.19665478909535        1.77554136570313        1.19934291925656
C            3.24472759188734        1.05447702041800        0.58110253172320
C            4.58802544806648        1.44379710957815        0.68982603791579
H            7.82444857436796        0.54122933411070       -1.48680897022827
H            8.82432862518314        1.08690871275341       -0.11793795766195
H            8.01919638883077       -0.49974422599496       -0.04391612785159
H            6.03304047929548       -0.96119758608277       -1.20939768456032
H            3.71397864392040       -1.66868038198954       -1.41373136453827
H            1.33757039075047       -1.33676566956110       -0.92982554919179
H           -3.26543277982089        2.51483511402509       -0.94127051690350
H           -5.35419765005538        3.81345285107182       -1.19855574487028
H           -7.50885857439759        2.82986567189727       -0.49545249019393
H           -7.55742423551460        0.57105015601178        0.49553499000528
H           -5.48110659337236       -0.69938031021900        0.78137148710328
H           -4.55437473256675       -2.37576362260844       -0.27665067134559
H           -3.46216147228168       -4.59141248627905       -0.10829970905108
H           -1.02784973433835       -4.72502167985337        0.36808168613980
H            0.30703037740915       -2.63945120920843        0.54030816215440
H            0.09694167831834        1.92223294460907        1.53995360929396
H            2.44322825605391        2.65840694770013        1.77122359610879
H            4.85176642118424        2.31340466033901        1.27258647429572

          :  Hamiltonian                  GFN2-xTB          :
         :: gradient norm              0.000040238144 Eh/a0 ::
         :: HOMO-LUMO gap              2.359307274581 eV    ::
         :: SCC energy               -71.758492020734 Eh    ::
         :: -> dispersion             -0.053636071580 Eh    ::
         :: -> Gsolv                  -0.031315871987 Eh    ::
         :: repulsion energy           1.229998344004 Eh    ::

    * Orbital Energies and Occupations

         #    Occupation            Energy/Eh            Energy/eV
      -------------------------------------------------------------
         1        2.0000           -0.7190302             -19.5658
       ...           ...                  ...                  ...
        53        2.0000           -0.4395991             -11.9621
        54        2.0000           -0.4285028             -11.6602
        55        2.0000           -0.4277642             -11.6401
        56        2.0000           -0.4211850             -11.4610
        57        2.0000           -0.4179429             -11.3728
        58        2.0000           -0.4166175             -11.3367
        59        2.0000           -0.4154874             -11.3060
        60        2.0000           -0.4037761             -10.9873
        61        2.0000           -0.3996020             -10.8737
        62        2.0000           -0.3946716             -10.7396
        63        2.0000           -0.3790383             -10.3142
        64        2.0000           -0.3751603             -10.2086
        65        2.0000           -0.3514682              -9.5639 (HOMO)
        66                         -0.2647653              -7.2046 (LUMO)
        67                         -0.2615416              -7.1169
        68                         -0.2409964              -6.5578
        69                         -0.2304514              -6.2709
        70                         -0.2174350              -5.9167
        71                         -0.2031499              -5.5280
        72                         -0.1891382              -5.1467
        73                         -0.1609053              -4.3785
        74                         -0.1293330              -3.5193
        75                         -0.1107099              -3.0126
        76                         -0.0708244              -1.9272
       ...                                ...                  ...
       126                          0.7122700              19.3819
      -------------------------------------------------------------
                  HL-Gap            0.0867029 Eh            2.3593 eV

     #   Z          covCN         q      C6AA      α(0)
     1   6 C        3.641     0.036    20.325     6.483
     2   8 O        1.705    -0.289    18.804     5.855
     3   6 C        2.859     0.141    24.928     8.184
     4   6 C        2.913    -0.063    29.565     8.916
     5   6 C        2.919    -0.038    28.949     8.823
     6   6 C        2.985     0.003    27.948     8.672
     7   6 C        2.922    -0.046    29.137     8.852
     8   6 C        2.969    -0.004    28.109     8.696
     9   6 C        3.122     0.109    25.430     8.258
    10   7 N        1.914    -0.302    28.669     7.939
    11   6 C        3.130     0.048    26.730     8.465
    12   6 C        2.972     0.006    27.885     8.662
    13   6 C        2.927    -0.032    28.799     8.801
    14   6 C        2.918    -0.031    28.775     8.796
    15   6 C        2.919    -0.034    28.856     8.809
    16   6 C        2.918    -0.032    28.802     8.801
    17   6 C        2.923    -0.042    29.048     8.838
    18   6 C        3.071     0.024    27.397     8.582
    19   6 C        2.907    -0.036    28.900     8.815
    20   6 C        2.919    -0.033    28.816     8.803
    21   6 C        2.914    -0.039    28.979     8.827
    22   6 C        2.851     0.011    27.768     8.637
    23   7 N        2.844    -0.001    21.273     6.850
    24   6 C        2.922    -0.031    28.770     8.796
    25   6 C        2.916    -0.036    28.893     8.814
    26   6 C        2.986     0.013    27.727     8.638
    27   6 C        2.920    -0.066    29.647     8.929
    28   1 H        0.924     0.047     2.356     2.400
    29   1 H        0.925     0.067     2.123     2.278
    30   1 H        0.924     0.047     2.355     2.400
    31   1 H        0.926     0.044     2.392     2.419
    32   1 H        0.926     0.040     2.444     2.445
    33   1 H        0.926     0.033     2.550     2.497
    34   1 H        0.926     0.042     2.427     2.436
    35   1 H        0.926     0.030     2.584     2.514
    36   1 H        0.926     0.030     2.593     2.518
    37   1 H        0.926     0.029     2.594     2.518
    38   1 H        0.926     0.028     2.609     2.526
    39   1 H        0.926     0.048     2.342     2.393
    40   1 H        0.926     0.045     2.389     2.417
    41   1 H        0.926     0.053     2.287     2.365
    42   1 H        0.926     0.055     2.256     2.349
    43   1 H        0.926     0.044     2.396     2.421
    44   1 H        0.926     0.039     2.461     2.453
    45   1 H        0.926     0.044     2.392     2.419

molecular dipole:
                 x           y           z       tot (Debye)
 q only:        0.830      -1.412      -0.244
   full:        0.936      -1.892      -0.321       5.427

 projected vibrational frequencies (cm⁻¹)
eigval :       -0.00    -0.00    -0.00    -0.00     0.00     0.00
eigval :       21.03    26.61    42.75    49.64    64.46    82.36
eigval :       92.54   114.10   158.68   169.50   184.28   195.85
eigval :      201.85   215.65   242.03   259.61   274.08   337.89
eigval :      343.55   366.16   373.28   375.13   393.89   413.77
eigval :      431.12   448.97   477.61   502.68   517.16   540.50
eigval :      559.76   575.81   577.28   591.40   598.07   631.66
eigval :      637.18   663.64   679.00   690.49   701.82   713.49
eigval :      744.19   762.11   765.34   783.90   796.78   829.40
eigval :      833.71   853.85   867.81   874.51   878.65   883.76
eigval :      896.98   900.59   905.85   910.80   919.54   930.29
eigval :      932.28   933.92   943.16   985.26  1022.24  1056.23
eigval :     1063.43  1082.21  1115.99  1118.45  1119.76  1140.25
eigval :     1149.39  1153.31  1161.14  1172.71  1180.84  1182.05
eigval :     1187.12  1206.55  1227.26  1241.37  1252.40  1263.81
eigval :     1273.92  1289.56  1319.00  1320.55  1327.61  1340.36
eigval :     1367.38  1387.46  1393.25  1397.76  1424.12  1425.08
eigval :     1430.97  1442.62  1467.24  1470.71  1475.12  1493.26
eigval :     1496.51  1511.43  1539.51  1554.51  1577.51  1595.46
eigval :     1602.09  1602.75  1613.28  2935.32  2946.78  3024.37
eigval :     3064.95  3068.13  3068.62  3071.51  3075.44  3080.88
eigval :     3091.25  3093.90  3096.66  3097.13  3099.36  3104.79
eigval :     3105.37  3114.46  3118.97

   temp. (K)  partition function   enthalpy   heat capacity  entropy
                                   cal/mol     cal/K/mol   cal/K/mol   J/K/mol
 298.15  VIB  0.198E+09            11848.398     77.945     71.866
         ROT  0.174E+08              888.752      2.981     36.108
         INT  0.344E+16            12737.150     80.926    107.974
         TR   0.635E+28             1481.254      4.968     43.436
         TOT                       14218.4043    85.8938   151.4096   633.4978

       T/K    H(0)-H(T)+PV         H(T)/Eh          T*S/Eh         G(T)/Eh
   ------------------------------------------------------------------------
    298.15    0.226585E-01    0.369310E+00    0.719396E-01    0.297370E+00
   ------------------------------------------------------------------------

         :::::::::::::::::::::::::::::::::::::::::::::::::::::
         ::                  THERMODYNAMIC                  ::
         :::::::::::::::::::::::::::::::::::::::::::::::::::::
         :: total free energy         -70.231123293745 Eh   ::
         ::.................................................::
         :: total energy              -70.528493674404 Eh   ::
         :: zero point energy           0.346651497452 Eh   ::
         :: G(RRHO) w/o ZPVE           -0.049281116792 Eh   ::
         :: G(RRHO) contrib.            0.297370380659 Eh   ::
         :::::::::::::::::::::::::::::::::::::::::::::::::::::

           -------------------------------------------------
          | TOTAL ENERGY              -70.528493674404 Eh   |
          | TOTAL ENTHALPY            -70.159183707453 Eh   |
          | TOTAL FREE ENERGY         -70.231123293745 Eh   |
          | GRADIENT NORM               0.000040238247 Eh/α |
          | HOMO-LUMO GAP               2.359307157488 eV   |
           -------------------------------------------------

 * finished run on 2025/09/04 at 13:03:46.074
