   * xtb version 6.7.1 (edcfbbe) compiled by 'albert@albert-system' on 2024-07-22

   ID    Z sym.   atoms
    1    8 O      1
    2    6 C      2-10, 12-31, 33-51, 53-58
    3    7 N      11, 32, 52, 59
    4    1 H      60-95

          program call               : xtb data2507/toluene/3-DTPA-BBI/3-DTPA-BBI_toluene_T1_crest.xyz --gfn 2 --uhf 2 --gbsa toluene --ohess vtight --parallel 40 --molden --ceasefiles --namespace data2507/toluene/3-DTPA-BBI/3-DTPA-BBI_toluene_T1_finalOpt
      * Solvation model:               GBSA
        Solvent                        toluene
        Solvent mass                       9.2140E+01 g/mol
          :  Hamiltonian                  GFN2-xTB          :
 * total energy  :  -149.8435732 Eh     change       -0.9079002E-08 Eh
 * total energy  :  -149.8438094 Eh     change       -0.2362022E-03 Eh
 * total energy  :  -149.8439114 Eh     change       -0.1019757E-03 Eh
 * total energy  :  -149.8439353 Eh     change       -0.2397595E-04 Eh
 * total energy  :  -149.8439653 Eh     change       -0.2992859E-04 Eh
 * total energy  :  -149.8439939 Eh     change       -0.2865348E-04 Eh
 * total energy  :  -149.8440192 Eh     change       -0.2528203E-04 Eh
 * total energy  :  -149.8440413 Eh     change       -0.2210827E-04 Eh
 * total energy  :  -149.8440687 Eh     change       -0.2738913E-04 Eh
 * total energy  :  -149.8440923 Eh     change       -0.2356733E-04 Eh
 * total energy  :  -149.8442660 Eh     change        0.8153879E-07 Eh
 * total energy  :  -149.8442662 Eh     change       -0.2216622E-06 Eh
 * total energy  :  -149.8442665 Eh     change       -0.2344233E-06 Eh
 * total energy  :  -149.8442668 Eh     change       -0.2986870E-06 Eh
 * total energy  :  -149.8442667 Eh     change        0.2085912E-07 Eh
 * total energy  :  -149.8442670 Eh     change       -0.2124208E-06 Eh
 * total energy  :  -149.8442671 Eh     change       -0.1022194E-06 Eh
 * total energy  :  -149.8442670 Eh     change        0.3394152E-07 Eh
 * total energy  :  -149.8442671 Eh     change       -0.7880953E-07 Eh
   *** GEOMETRY OPTIMIZATION CONVERGED AFTER 32 ITERATIONS ***

 final structure:
================
95
 xtb: 6.7.1 (edcfbbe)
O           -6.92301017693746        2.49185061113824        0.99570604723036
C           -6.29770321709232        1.50572128224845        0.59215619179053
C           -4.85503330046753        1.41559730200113        0.53222831596168
C           -4.09282246311994        2.52794075526551        0.93755968513522
C           -2.73000182970445        2.51876393884585        0.79811714651265
C           -2.04733593352274        1.39649900093184        0.30273793320490
C           -0.64040762550342        1.55988528920542       -0.05332513978042
C           -0.16649400467627        1.14272198795781       -1.30276533004939
C            1.14157044319836        1.34467151335114       -1.67468685969383
C            2.04066268377487        1.96994257076958       -0.80248163948558
N            3.37610636530726        2.15474229340114       -1.15373931537073
C            4.04695966533728        1.23082931929993       -1.96034914950057
C            5.02376916894349        1.66323348403168       -2.86041393404594
C            5.70251061059008        0.74911124385252       -3.64216351976324
C            5.42129525299141       -0.60500082465353       -3.54481613053907
C            4.44732047693245       -1.03861782691020       -2.65916662171057
C            3.76369357226428       -0.13332433774151       -1.87179392845597
C            4.06972588071974        3.27749455388111       -0.67660420810306
C            3.45695312660519        4.53078298404472       -0.65718220035669
C            4.14581466780587        5.63102027576519       -0.18380072030405
C            5.44858389097360        5.50007317358271        0.27211352544630
C            6.06096731331946        4.25647387652256        0.25344777313803
C            5.38011556413718        3.14935683434126       -0.21503708514956
C            1.56820338036242        2.40975463933865        0.43861557906375
C            0.25357175747076        2.21604738133930        0.79750637631977
C           -2.77092279797047        0.20134156104273        0.05052956913080
C           -2.14569192084984       -1.04634602941038       -0.23793623990399
C           -0.75810112760136       -1.32412058662199        0.09062359234803
C           -0.21510831544572       -0.91990235244244        1.31995954729687
C            1.07491456616970       -1.23217288305926        1.67009087350554
C            1.89579872241627       -1.95973581112159        0.79632011653923
N            3.21060355403606       -2.26002960171638        1.12556562912739
C            3.97336310574538       -1.40484503648038        1.92794692207751
C            4.90863275737421       -1.93176493210471        2.82145726142086
C            5.67876609132099       -1.08852328936019        3.59820585085143
C            5.53039617287401        0.28665830108625        3.50125663119877
C            4.59914308346037        0.81414297068460        2.62040930739125
C            3.82507389652386       -0.01978524080841        1.83782085656839
C            3.80099618833312       -3.43626990377045        0.63545249553732
C            3.08833585630574       -4.63564737661912        0.63297342541535
C            3.67639633180896       -5.78836522333570        0.14857627508679
C            4.97544851938861       -5.76255819562709       -0.33528430908562
C            5.68697836486048       -4.57267292154561       -0.33211656919929
C            5.10799548000458       -3.41380394515455        0.14831504531884
C            1.35502054635731       -2.38323791604113       -0.42512469045269
C            0.05709289295167       -2.08168197030473       -0.76094250974473
C           -2.92453989158054       -2.11041360077503       -0.73519188363091
C           -4.28666433267920       -2.03103794161420       -0.81473591749191
C           -4.94575959935633       -0.86919551027516       -0.35887460675341
C           -4.19433693812603        0.25188533706292        0.07818960139179
C           -6.35107401249284       -0.77862079114354       -0.32864229759924
N           -7.22258164402385       -1.70826104813278       -0.70088006275145
C           -8.44900448597764       -1.17169196885163       -0.47864339184387
C           -9.71574260320582       -1.71742338705489       -0.69501555831338
C          -10.81170336628614       -0.94509262897336       -0.37753353925597
C          -10.67638613910148        0.34367957199202        0.14480044804295
C           -9.43127782829395        0.90806366291629        0.36887456954607
C           -8.32781556921906        0.14175618748468        0.05301149913856
N           -6.96647216332806        0.37577139363611        0.14138093940062
H           -4.61991411475618        3.39367155602119        1.30989253994655
H           -2.16618046972956        3.41157383083090        1.02626281671439
H           -0.85314691383051        0.68099211129009       -1.99658283286293
H            1.47618062651251        1.03981427153972       -2.65500976051052
H            5.23768236512065        2.71814083490817       -2.94831157530104
H            6.45160856871418        1.09759194929247       -4.33770086370310
H            5.95505328234226       -1.31618686721139       -4.15659930178349
H            4.22643170272970       -2.09207787061653       -2.57306966428471
H            3.00916735763382       -0.47643582060897       -1.18134776681237
H            2.44621995276725        4.63425383381130       -1.02387354026161
H            3.66485811799650        6.59797375032700       -0.17849328977442
H            5.98304403657093        6.36290441516085        0.63970677556184
H            7.07273718221485        4.14594956269067        0.61421430924305
H            5.85141749814636        2.17783609947047       -0.21720850025337
H            2.24610675544308        2.89358125571243        1.12592040414727
H           -0.08252727673560        2.54249115149134        1.77028987819488
H           -0.84282212022874       -0.38706487162022        2.01829309724700
H            1.45628699184640       -0.93998033229651        2.63701291105876
H            5.01831994958466       -3.00252182598869        2.90847439661038
H            6.39467058677915       -1.50818434352143        4.28921514584498
H            6.13503297156101        0.94230581302233        4.10912378980688
H            4.48268178756999        1.88411970958444        2.53390958253499
H            3.10651797125404        0.39539111733490        1.14870623233258
H            2.08101808077031       -4.65658353153654        1.02224246720820
H            3.11959859962013       -6.71352653476471        0.15605422339358
H            5.43041135068577       -6.66581238594197       -0.71242315729818
H            6.69655910660024       -4.54468083883524       -0.71409385999379
H            5.65566375296455       -2.48331536203122        0.13885942698254
H            1.97286982465471       -2.93622671891416       -1.11656456141458
H           -0.32539811077187       -2.39386398296426       -1.72077781502181
H           -2.42959612346274       -3.03343717368589       -0.99842989357781
H           -4.89027296666350       -2.84861339821187       -1.17380176972285
H           -9.81600556263987       -2.71284399981728       -1.09840618199845
H          -11.80433334841576       -1.34177058904554       -0.53457221425778
H          -11.56284649592641        0.91393689261001        0.37962751246729
H           -9.31644204784345        1.90238451393820        0.77180733054048

          :  Hamiltonian                  GFN2-xTB          :
         :: gradient norm              0.000100789363 Eh/a0 ::
         :: HOMO-LUMO gap              1.168275603086 eV    ::
         :: SCC energy              -152.581421980046 Eh    ::
         :: -> dispersion             -0.152210578335 Eh    ::
         :: -> Gsolv                  -0.072524976195 Eh    ::
         :: repulsion energy           2.737154835610 Eh    ::

    * Orbital Energies and Occupations

         #    Occupation            Energy/Eh            Energy/eV
      -------------------------------------------------------------
         1        2.0000           -0.6907300             -18.7957
       ...           ...                  ...                  ...
       128        2.0000           -0.4146957             -11.2844
       129        2.0000           -0.4137322             -11.2582
       130        2.0000           -0.4112463             -11.1906
       131        2.0000           -0.4050960             -11.0232
       132        2.0000           -0.4004045             -10.8956
       133        2.0000           -0.3912722             -10.6471
       134        2.0000           -0.3899235             -10.6104
       135        2.0000           -0.3884149             -10.5693
       136        2.0000           -0.3790292             -10.3139
       137        2.0000           -0.3708766             -10.0921
       138        1.7605           -0.3591690              -9.7735
       139        1.2395           -0.3569737              -9.7138
       140        1.0000           -0.2986701              -8.1272 (HOMO)
       141                         -0.2557371              -6.9590 (LUMO)
       142                         -0.2436160              -6.6291
       143                         -0.2429189              -6.6102
       144                         -0.2412140              -6.5638
       145                         -0.2390057              -6.5037
       146                         -0.2365067              -6.4357
       147                         -0.2358400              -6.4175
       148                         -0.2327886              -6.3345
       149                         -0.2313532              -6.2954
       150                         -0.2304035              -6.2696
       151                         -0.2271351              -6.1807
       ...                                ...                  ...
       272                          0.7172704              19.5179
      -------------------------------------------------------------
                  HL-Gap            0.0429330 Eh            1.1683 eV

     #   Z          covCN         q      C6AA      α(0)
     1   8 O        0.858    -0.512    24.060     6.576
     2   6 C        2.766     0.253    22.755     7.812
     3   6 C        2.978    -0.045    29.100     8.849
     4   6 C        2.917    -0.036    28.907     8.817
     5   6 C        2.919    -0.037    28.928     8.820
     6   6 C        2.973    -0.007    28.201     8.711
     7   6 C        2.976     0.013    27.715     8.635
     8   6 C        2.923    -0.031    28.770     8.796
     9   6 C        2.918    -0.046    29.138     8.852
    10   6 C        2.923     0.059    26.673     8.469
    11   7 N        2.752    -0.045    22.117     6.985
    12   6 C        2.924     0.063    26.582     8.455
    13   6 C        2.922    -0.043    29.079     8.843
    14   6 C        2.919    -0.027    28.671     8.781
    15   6 C        2.919    -0.033    28.817     8.803
    16   6 C        2.919    -0.026    28.658     8.779
    17   6 C        2.922    -0.045    29.120     8.849
    18   6 C        2.927     0.063    26.580     8.455
    19   6 C        2.921    -0.042    29.033     8.836
    20   6 C        2.919    -0.027    28.667     8.780
    21   6 C        2.919    -0.032    28.791     8.799
    22   6 C        2.919    -0.027    28.668     8.780
    23   6 C        2.921    -0.042    29.033     8.836
    24   6 C        2.919    -0.046    29.150     8.854
    25   6 C        2.923    -0.034    28.859     8.810
    26   6 C        2.978     0.004    27.931     8.669
    27   6 C        2.973    -0.006    28.166     8.705
    28   6 C        2.976     0.016    27.641     8.624
    29   6 C        2.923    -0.029    28.729     8.790
    30   6 C        2.918    -0.045    29.113     8.848
    31   6 C        2.923     0.061    26.643     8.465
    32   7 N        2.752    -0.037    21.962     6.960
    33   6 C        2.925     0.063    26.598     8.458
    34   6 C        2.922    -0.042    29.049     8.839
    35   6 C        2.919    -0.026    28.656     8.778
    36   6 C        2.919    -0.031    28.781     8.798
    37   6 C        2.919    -0.026    28.640     8.776
    38   6 C        2.921    -0.044    29.084     8.844
    39   6 C        2.928     0.063    26.600     8.458
    40   6 C        2.921    -0.040    29.006     8.832
    41   6 C        2.919    -0.026    28.651     8.778
    42   6 C        2.919    -0.030    28.756     8.794
    43   6 C        2.919    -0.026    28.648     8.777
    44   6 C        2.921    -0.040    28.999     8.831
    45   6 C        2.919    -0.045    29.121     8.849
    46   6 C        2.922    -0.034    28.835     8.806
    47   6 C        2.920    -0.034    28.850     8.808
    48   6 C        2.913    -0.042    29.050     8.838
    49   6 C        2.978    -0.019    28.482     8.754
    50   6 C        2.992     0.000    28.014     8.682
    51   6 C        3.176     0.144    24.499     8.083
    52   7 N        1.874    -0.332    29.456     8.045
    53   6 C        3.181     0.076    25.898     8.307
    54   6 C        2.910    -0.051    29.278     8.872
    55   6 C        2.920    -0.040    28.992     8.830
    56   6 C        2.926    -0.040    28.998     8.831
    57   6 C        2.907    -0.049    29.215     8.863
    58   6 C        3.068     0.052    26.770     8.484
    59   7 N        2.817    -0.091    23.006     7.124
    60   1 H        0.926     0.032     2.561     2.502
    61   1 H        0.926     0.037     2.489     2.467
    62   1 H        0.926     0.037     2.492     2.469
    63   1 H        0.926     0.042     2.419     2.432
    64   1 H        0.926     0.039     2.462     2.453
    65   1 H        0.926     0.041     2.442     2.444
    66   1 H        0.926     0.040     2.448     2.447
    67   1 H        0.926     0.040     2.452     2.449
    68   1 H        0.926     0.040     2.455     2.450
    69   1 H        0.926     0.039     2.456     2.451
    70   1 H        0.926     0.040     2.445     2.445
    71   1 H        0.926     0.040     2.447     2.446
    72   1 H        0.926     0.043     2.408     2.427
    73   1 H        0.926     0.043     2.415     2.430
    74   1 H        0.926     0.043     2.405     2.425
    75   1 H        0.926     0.041     2.436     2.441
    76   1 H        0.926     0.038     2.469     2.457
    77   1 H        0.926     0.044     2.397     2.421
    78   1 H        0.926     0.041     2.431     2.438
    79   1 H        0.926     0.042     2.417     2.431
    80   1 H        0.926     0.041     2.431     2.438
    81   1 H        0.926     0.041     2.442     2.444
    82   1 H        0.926     0.042     2.426     2.436
    83   1 H        0.926     0.042     2.419     2.432
    84   1 H        0.926     0.043     2.412     2.429
    85   1 H        0.926     0.042     2.422     2.434
    86   1 H        0.926     0.044     2.390     2.417
    87   1 H        0.926     0.044     2.401     2.423
    88   1 H        0.926     0.047     2.363     2.404
    89   1 H        0.926     0.046     2.372     2.409
    90   1 H        0.926     0.044     2.397     2.421
    91   1 H        0.926     0.044     2.391     2.418
    92   1 H        0.926     0.041     2.431     2.438
    93   1 H        0.926     0.039     2.467     2.456
    94   1 H        0.926     0.037     2.490     2.468
    95   1 H        0.926     0.041     2.437     2.441

molecular dipole:
                 x           y           z       tot (Debye)
 q only:        9.980      -1.544      -0.402
   full:        9.638      -1.168      -0.258      24.686

 projected vibrational frequencies (cm⁻¹)
eigval :       -0.00    -0.00     0.00     0.00     0.00     0.00
eigval :       16.68    17.65    18.06    21.65    27.90    30.62
eigval :       41.66    49.87    52.10    55.79    57.63    61.39
eigval :       69.99    70.45    76.00    77.41    80.53    87.78
eigval :      110.14   114.26   118.79   123.47   130.24   156.71
eigval :      160.04   164.00   184.08   190.63   209.28   225.21
eigval :      230.16   235.38   237.25   258.72   271.48   287.76
eigval :      293.07   300.63   311.22   319.65   323.89   337.22
eigval :      345.04   352.68   355.04   376.16   377.88   379.75
eigval :      381.82   384.99   391.75   394.07   399.39   410.17
eigval :      416.40   417.74   430.50   446.41   456.30   469.64
eigval :      481.95   486.16   493.19   499.35   506.66   513.04
eigval :      526.67   536.08   541.03   552.67   580.43   580.81
eigval :      583.66   585.34   585.76   590.72   593.38   594.34
eigval :      605.01   612.41   615.80   617.15   620.56   641.20
eigval :      657.64   659.50   660.93   663.62   667.18   677.19
eigval :      682.48   683.60   696.80   706.41   708.90   728.66
eigval :      738.66   753.66   756.55   758.35   759.52   768.42
eigval :      776.61   785.31   801.77   810.00   822.07   826.39
eigval :      850.74   859.33   862.60   865.69   867.81   869.86
eigval :      873.02   873.69   875.29   893.87   895.02   895.17
eigval :      897.72   899.22   899.65   901.12   901.86   908.25
eigval :      909.08   913.51   914.96   919.02   921.29   922.34
eigval :      925.97   927.65   928.82   929.00   930.01   930.56
eigval :      931.43   932.02   933.64   935.04   975.93   983.37
eigval :      997.50  1003.02  1003.35  1010.67  1028.96  1052.25
eigval :     1063.73  1079.70  1080.12  1082.28  1083.89  1099.00
eigval :     1119.50  1119.83  1122.16  1125.35  1126.64  1130.52
eigval :     1141.57  1143.33  1144.86  1173.06  1174.59  1175.95
eigval :     1177.11  1177.83  1178.01  1178.54  1181.47  1190.24
eigval :     1191.56  1192.46  1193.19  1196.88  1211.65  1214.15
eigval :     1229.33  1243.01  1261.95  1266.64  1267.27  1273.34
eigval :     1273.82  1274.77  1278.37  1280.11  1284.77  1289.13
eigval :     1295.70  1298.66  1308.57  1312.52  1313.02  1313.86
eigval :     1315.16  1321.99  1323.26  1324.28  1325.12  1329.57
eigval :     1350.42  1360.24  1374.13  1382.48  1399.47  1407.78
eigval :     1414.90  1420.84  1431.38  1432.01  1437.05  1437.86
eigval :     1452.82  1458.81  1459.87  1460.25  1460.71  1461.99
eigval :     1472.69  1475.06  1477.77  1493.10  1509.71  1517.71
eigval :     1530.41  1547.88  1566.00  1568.87  1569.11  1572.64
eigval :     1573.35  1577.14  1578.41  1581.51  1582.44  1588.19
eigval :     1589.85  1595.80  1601.95  3073.85  3074.56  3078.89
eigval :     3079.12  3080.01  3080.31  3080.68  3081.04  3081.32
eigval :     3081.91  3082.27  3082.56  3083.02  3083.87  3085.26
eigval :     3086.15  3088.01  3089.48  3089.79  3090.39  3091.00
eigval :     3091.93  3093.02  3093.47  3094.08  3095.08  3097.28
eigval :     3097.63  3098.02  3098.33  3099.20  3100.06  3101.38
eigval :     3106.95  3109.32  3111.93

   temp. (K)  partition function   enthalpy   heat capacity  entropy
                                   cal/mol     cal/K/mol   cal/K/mol   J/K/mol
 298.15  VIB  0.395E+21            27365.502    174.845    169.661
         ROT  0.137E+09              888.752      2.981     40.216
         INT  0.542E+29            28254.254    177.826    209.877
         TR   0.201E+29             1481.254      4.968     45.731
         TOT                       29735.5080   182.7942   255.6079  1069.4635

       T/K    H(0)-H(T)+PV         H(T)/Eh          T*S/Eh         G(T)/Eh
   ------------------------------------------------------------------------
    298.15    0.473865E-01    0.772100E+00    0.121448E+00    0.650652E+00
   ------------------------------------------------------------------------

         :::::::::::::::::::::::::::::::::::::::::::::::::::::
         ::                  THERMODYNAMIC                  ::
         :::::::::::::::::::::::::::::::::::::::::::::::::::::
         :: total free energy        -149.193615195410 Eh   ::
         ::.................................................::
         :: total energy             -149.844267146479 Eh   ::
         :: zero point energy           0.724712968175 Eh   ::
         :: G(RRHO) w/o ZPVE           -0.074061017106 Eh   ::
         :: G(RRHO) contrib.            0.650651951069 Eh   ::
         :::::::::::::::::::::::::::::::::::::::::::::::::::::

           -------------------------------------------------
          | TOTAL ENERGY             -149.844267146479 Eh   |
          | TOTAL ENTHALPY           -149.072167630037 Eh   |
          | TOTAL FREE ENERGY        -149.193615195410 Eh   |
          | GRADIENT NORM               0.000103045660 Eh/α |
          | HOMO-LUMO GAP               1.168267508477 eV   |
           -------------------------------------------------

 * finished run on 2025/07/20 at 01:11:29.288
