   * xtb version 6.7.1 (edcfbbe) compiled by 'albert@albert-system' on 2024-07-22

   ID    Z sym.   atoms
    1    8 O      1
    2    6 C      2-10, 12-31, 33-51, 53-58
    3    7 N      11, 32, 52, 59
    4    1 H      60-95

          program call               : xtb data2507/toluene/3-DTPA-BBI/3-DTPA-BBI_toluene_S0_crest.xyz --gfn 2 --gbsa toluene --ohess vtight --parallel 40 --molden --ceasefiles --namespace data2507/toluene/3-DTPA-BBI/3-DTPA-BBI_toluene_S0_finalOpt
      * Solvation model:               GBSA
        Solvent                        toluene
        Solvent mass                       9.2140E+01 g/mol
          :  Hamiltonian                  GFN2-xTB          :
 * total energy  :  -149.8977687 Eh     change       -0.2354113E-08 Eh
 * total energy  :  -149.8978727 Eh     change       -0.1040629E-03 Eh
 * total energy  :  -149.8979178 Eh     change       -0.4510094E-04 Eh
 * total energy  :  -149.8979381 Eh     change       -0.2028494E-04 Eh
 * total energy  :  -149.8979556 Eh     change       -0.1750654E-04 Eh
 * total energy  :  -149.8979799 Eh     change       -0.2428226E-04 Eh
 * total energy  :  -149.8980024 Eh     change       -0.2248747E-04 Eh
 * total energy  :  -149.8980153 Eh     change       -0.1290774E-04 Eh
 * total energy  :  -149.8980328 Eh     change       -0.1749114E-04 Eh
 * total energy  :  -149.8980535 Eh     change       -0.2070995E-04 Eh
 * total energy  :  -149.8981322 Eh     change       -0.5053714E-06 Eh
 * total energy  :  -149.8981328 Eh     change       -0.6392007E-06 Eh
 * total energy  :  -149.8981335 Eh     change       -0.6899870E-06 Eh
 * total energy  :  -149.8981339 Eh     change       -0.4462459E-06 Eh
 * total energy  :  -149.8981342 Eh     change       -0.2739211E-06 Eh
 * total energy  :  -149.8981345 Eh     change       -0.2383573E-06 Eh
 * total energy  :  -149.8981346 Eh     change       -0.1677080E-06 Eh
 * total energy  :  -149.8981347 Eh     change       -0.1223908E-06 Eh
 * total energy  :  -149.8981348 Eh     change       -0.9916278E-07 Eh
   *** GEOMETRY OPTIMIZATION CONVERGED AFTER 36 ITERATIONS ***

 final structure:
================
95
 xtb: 6.7.1 (edcfbbe)
O           -6.94249436208372        2.51697493769647        0.88439428366897
C           -6.33455026397639        1.52221447060956        0.52210487952460
C           -4.87392013317231        1.42347150918504        0.47599096589223
C           -4.12731099812955        2.53397577830261        0.83435710278860
C           -2.74746161003986        2.52001180801480        0.70884169545034
C           -2.06920278625964        1.38801517506445        0.28410740757971
C           -0.64755296517338        1.53346723344323       -0.04169954625035
C           -0.16274707808001        1.12614647273294       -1.28566258440520
C            1.15034808678402        1.33805279833954       -1.64020859170571
C            2.03788942851126        1.95637770530118       -0.75379118193834
N            3.37168915446961        2.15508312465132       -1.09151822262438
C            4.04954444674078        1.26505109082004       -1.93748632895177
C            4.99715484277411        1.74377943396341       -2.84214647465838
C            5.68524063582910        0.86689611172208       -3.65895380291792
C            5.43772583048920       -0.49492861346007       -3.59371629902237
C            4.49204870598129       -0.97427220235312       -2.70197428481652
C            3.80365885670169       -0.10573182905283       -1.87717951984195
C            4.07646062062327        3.25067354468862       -0.56223400861597
C            3.48613630905659        4.51218239171410       -0.50478066890866
C            4.18818374170792        5.58401760267169        0.01361374722999
C            5.48503173482271        5.41692397453461        0.47270020660323
C            6.07653772092097        4.16513071446468        0.41355827002010
C            5.37968110667516        3.08601730518539       -0.09631127122359
C            1.54968066343015        2.37619444270831        0.48793601340288
C            0.22969728827102        2.18039753197063        0.82748804734548
C           -2.79210444132942        0.17964370497572        0.06725195854028
C           -2.16868009375251       -1.08039371186670       -0.16580693182679
C           -0.75385009587691       -1.33286570630441        0.12848596219378
C           -0.21267534993808       -0.97069022995548        1.36267287171782
C            1.08950295854821       -1.28025446273927        1.68599992694302
C            1.90811135475819       -1.95664201832218        0.77674766312706
N            3.23177268601032       -2.25741038901116        1.08330705071951
C            3.99555062098194       -1.42096494480815        1.90900059184956
C            4.93166702108986       -1.96789371653455        2.78683388173673
C            5.70337649978113       -1.14449085699599        3.58415903370028
C            5.55173642300237        0.23170548020677        3.52711222905190
C            4.61766605729853        0.77925883978709        2.66282125333014
C            3.84647820331601       -0.03575161078624        1.85700943408902
C            3.83174863497346       -3.40846250080440        0.54332035385013
C            3.13673393876885       -4.61624352679755        0.50342859518375
C            3.73279750416259       -5.74302593267057       -0.03053841754137
C            5.02689715896999       -5.68516058371420       -0.52290045107072
C            5.72318848270969       -4.48786471572536       -0.47949480225195
C            5.13253962292475       -3.35405885431766        0.04563427032730
C            1.36296806665771       -2.33136216729987       -0.45517192020336
C            0.05369331406086       -2.03609385087169       -0.76375284895264
C           -2.93954106612195       -2.15722994431552       -0.57487948145589
C           -4.31957349995207       -2.07104421704541       -0.67693253274949
C           -4.96439814685491       -0.90385405256991       -0.30499844142134
C           -4.21408952771780        0.23380910657015        0.08040432614217
C           -6.39242948799842       -0.80462073071470       -0.29450542013672
N           -7.24751069824220       -1.72698674069988       -0.63503014197380
C           -8.49202862543053       -1.17331886044854       -0.45771701804225
C           -9.74933656030125       -1.72367553709118       -0.67354518171687
C          -10.84881826112691       -0.93174144912676       -0.40572600512689
C          -10.71360415858148        0.37406279112960        0.06407063643672
C           -9.47028493729180        0.94127694407255        0.28443878595309
C           -8.36763252945540        0.15261371812239        0.01752089715173
N           -7.00149268073462        0.37936959912741        0.11574679671926
H           -4.64824383650042        3.42366928014660        1.15665322209516
H           -2.19108107638592        3.42642596688095        0.89431795935978
H           -0.83807879237426        0.66784497204327       -1.99290362016167
H            1.49823206010361        1.03638875190278       -2.61671585824649
H            5.18964108310799        2.80522378044256       -2.90017968467756
H            6.41558661057560        1.25162034136456       -4.35588944385331
H            5.97735186544819       -1.17718632019434       -4.23322199096153
H            4.29828311179574       -2.03501062850052       -2.63735208730503
H            3.07231137905264       -0.48496100984981       -1.18070165817210
H            2.47884358583100        4.64525926316395       -0.87212757015565
H            3.72208323932012        6.55790468611082        0.05081341585643
H            6.03131708885184        6.25735084596753        0.87391434980160
H            7.08462265697230        4.02470612910289        0.77530684606075
H            5.83674882917494        2.10805197575626       -0.13339641860070
H            2.21734598419299        2.85552895998877        1.18805060251386
H           -0.11918221094382        2.49676658723773        1.79932315540857
H           -0.83568424592395       -0.46744834602304        2.08738436492292
H            1.48147567547404       -1.01058200728333        2.65525030958612
H            5.04931900276378       -3.04046638053183        2.83958829105211
H            6.42370864780857       -1.58220305227017        4.25998695542835
H            6.15633028040468        0.87217242600213        4.15156777562592
H            4.49734526699455        1.85123925541345        2.60507170741924
H            3.12435351781590        0.39678812257085        1.18223998747609
H            2.13119374587433       -4.66411594578845        0.89568629050537
H            3.18575557710741       -6.67422523384621       -0.05430308306029
H            5.48985788144506       -6.56838269243662       -0.93682898449408
H            6.73047644973811       -4.43274849137039       -0.86586216414211
H            5.67146582130017       -2.41831612567456        0.07006178949373
H            1.97707486414531       -2.85593451993634       -1.17172011564471
H           -0.34007129174681       -2.32144532024412       -1.72793587368048
H           -2.45447257625624       -3.10158171995605       -0.77089369117420
H           -4.91366366917681       -2.91496979231506       -0.98964005655526
H           -9.84893857702094       -2.73406428896629       -1.03694513543599
H          -11.83999069686372       -1.33079542980166       -0.56292770008666
H          -11.59980084692755        0.95845151881062        0.26131719761024
H           -9.35759603096864        1.95057215741510        0.64758618845548

          :  Hamiltonian                  GFN2-xTB          :
         :: gradient norm              0.000037974137 Eh/a0 ::
         :: HOMO-LUMO gap              1.101682353444 eV    ::
         :: SCC energy              -152.649165566841 Eh    ::
         :: -> dispersion             -0.152612217180 Eh    ::
         :: -> Gsolv                  -0.059715722143 Eh    ::
         :: repulsion energy           2.751030726169 Eh    ::

    * Orbital Energies and Occupations

         #    Occupation            Energy/Eh            Energy/eV
      -------------------------------------------------------------
         1        2.0000           -0.7192740             -19.5724
       ...           ...                  ...                  ...
       127        2.0000           -0.4097813             -11.1507
       128        2.0000           -0.4094340             -11.1413
       129        2.0000           -0.4084004             -11.1131
       130        2.0000           -0.4068295             -11.0704
       131        2.0000           -0.4064928             -11.0612
       132        2.0000           -0.4061152             -11.0510
       133        2.0000           -0.4038076             -10.9882
       134        2.0000           -0.4006553             -10.9024
       135        2.0000           -0.3981932             -10.8354
       136        2.0000           -0.3925186             -10.6810
       137        2.0000           -0.3817358             -10.3876
       138        2.0000           -0.3544869              -9.6461
       139        2.0000           -0.3512893              -9.5591 (HOMO)
       140                         -0.3108033              -8.4574 (LUMO)
       141                         -0.2609285              -7.1002
       142                         -0.2467717              -6.7150
       143                         -0.2455957              -6.6830
       144                         -0.2379305              -6.4744
       145                         -0.2333453              -6.3496
       146                         -0.2327159              -6.3325
       147                         -0.2307892              -6.2801
       148                         -0.2294765              -6.2444
       149                         -0.2268262              -6.1723
       150                         -0.2262320              -6.1561
       ...                                ...                  ...
       272                          0.7120693              19.3764
      -------------------------------------------------------------
                  HL-Gap            0.0404861 Eh            1.1017 eV

     #   Z          covCN         q      C6AA      α(0)
     1   8 O        0.858    -0.454    22.800     6.402
     2   6 C        2.765     0.273    22.388     7.749
     3   6 C        2.977    -0.039    28.954     8.826
     4   6 C        2.920    -0.014    28.368     8.734
     5   6 C        2.923    -0.036    28.898     8.816
     6   6 C        2.973     0.025    27.439     8.592
     7   6 C        2.979     0.003    27.945     8.671
     8   6 C        2.924    -0.029    28.722     8.789
     9   6 C        2.920    -0.050    29.236     8.867
    10   6 C        2.921     0.067    26.510     8.443
    11   7 N        2.752    -0.071    22.613     7.063
    12   6 C        2.924     0.064    26.567     8.453
    13   6 C        2.922    -0.047    29.166     8.856
    14   6 C        2.919    -0.030    28.739     8.791
    15   6 C        2.919    -0.038    28.938     8.821
    16   6 C        2.919    -0.028    28.704     8.786
    17   6 C        2.922    -0.048    29.186     8.859
    18   6 C        2.926     0.065    26.551     8.450
    19   6 C        2.922    -0.046    29.134     8.851
    20   6 C        2.919    -0.029    28.733     8.790
    21   6 C        2.919    -0.036    28.908     8.817
    22   6 C        2.919    -0.029    28.720     8.788
    23   6 C        2.922    -0.044    29.087     8.844
    24   6 C        2.921    -0.050    29.235     8.867
    25   6 C        2.923    -0.033    28.813     8.803
    26   6 C        2.981     0.008    27.845     8.656
    27   6 C        2.973     0.020    27.557     8.611
    28   6 C        2.979     0.003    27.941     8.671
    29   6 C        2.924    -0.030    28.742     8.792
    30   6 C        2.920    -0.050    29.238     8.867
    31   6 C        2.921     0.066    26.529     8.446
    32   7 N        2.752    -0.072    22.637     7.066
    33   6 C        2.923     0.064    26.562     8.452
    34   6 C        2.922    -0.047    29.177     8.858
    35   6 C        2.919    -0.030    28.743     8.792
    36   6 C        2.919    -0.038    28.950     8.823
    37   6 C        2.919    -0.028    28.711     8.787
    38   6 C        2.922    -0.048    29.196     8.861
    39   6 C        2.926     0.065    26.549     8.450
    40   6 C        2.922    -0.046    29.137     8.852
    41   6 C        2.919    -0.029    28.734     8.790
    42   6 C        2.919    -0.037    28.914     8.818
    43   6 C        2.919    -0.029    28.725     8.789
    44   6 C        2.922    -0.044    29.095     8.846
    45   6 C        2.921    -0.050    29.236     8.867
    46   6 C        2.923    -0.033    28.831     8.805
    47   6 C        2.925    -0.034    28.852     8.809
    48   6 C        2.917    -0.022    28.563     8.764
    49   6 C        2.978    -0.017    28.440     8.748
    50   6 C        2.994     0.003    27.939     8.671
    51   6 C        3.173     0.150    24.410     8.070
    52   7 N        1.877    -0.306    28.788     7.954
    53   6 C        3.188     0.070    25.973     8.314
    54   6 C        2.911    -0.046    29.143     8.852
    55   6 C        2.922    -0.037    28.922     8.819
    56   6 C        2.927    -0.037    28.919     8.819
    57   6 C        2.908    -0.046    29.146     8.852
    58   6 C        3.066     0.047    26.876     8.501
    59   7 N        2.820    -0.082    22.830     7.096
    60   1 H        0.926     0.055     2.261     2.352
    61   1 H        0.926     0.054     2.271     2.356
    62   1 H        0.926     0.036     2.501     2.473
    63   1 H        0.926     0.039     2.466     2.456
    64   1 H        0.926     0.032     2.554     2.499
    65   1 H        0.926     0.034     2.527     2.486
    66   1 H        0.926     0.033     2.542     2.493
    67   1 H        0.926     0.033     2.544     2.494
    68   1 H        0.926     0.036     2.507     2.476
    69   1 H        0.926     0.035     2.520     2.483
    70   1 H        0.926     0.036     2.507     2.476
    71   1 H        0.926     0.034     2.524     2.484
    72   1 H        0.926     0.036     2.501     2.473
    73   1 H        0.926     0.034     2.524     2.485
    74   1 H        0.926     0.039     2.456     2.451
    75   1 H        0.926     0.041     2.441     2.443
    76   1 H        0.926     0.034     2.533     2.489
    77   1 H        0.926     0.037     2.487     2.466
    78   1 H        0.926     0.032     2.558     2.501
    79   1 H        0.926     0.034     2.534     2.489
    80   1 H        0.926     0.032     2.553     2.498
    81   1 H        0.926     0.032     2.558     2.501
    82   1 H        0.926     0.035     2.519     2.482
    83   1 H        0.926     0.035     2.519     2.482
    84   1 H        0.926     0.036     2.506     2.476
    85   1 H        0.926     0.034     2.528     2.486
    86   1 H        0.926     0.036     2.508     2.476
    87   1 H        0.926     0.034     2.531     2.488
    88   1 H        0.926     0.039     2.459     2.452
    89   1 H        0.926     0.041     2.431     2.438
    90   1 H        0.926     0.055     2.253     2.347
    91   1 H        0.926     0.061     2.185     2.312
    92   1 H        0.926     0.048     2.344     2.394
    93   1 H        0.926     0.044     2.393     2.419
    94   1 H        0.926     0.043     2.410     2.428
    95   1 H        0.926     0.047     2.358     2.401

molecular dipole:
                 x           y           z       tot (Debye)
 q only:        4.264      -0.812      -0.344
   full:        4.091      -0.461      -0.214      10.478

 projected vibrational frequencies (cm⁻¹)
eigval :       -0.00     0.00     0.00     0.00     0.00     0.00
eigval :       16.88    17.25    18.29    20.54    27.61    30.06
eigval :       41.09    47.27    51.28    56.09    57.56    61.00
eigval :       68.73    69.29    73.89    77.96    78.61    84.97
eigval :      103.71   114.33   115.53   126.88   131.25   154.99
eigval :      158.84   162.57   184.25   188.62   205.01   227.10
eigval :      230.95   236.30   237.92   256.12   273.07   289.18
eigval :      296.09   301.19   311.98   321.92   326.19   344.42
eigval :      347.18   354.06   368.69   377.43   378.97   381.43
eigval :      382.07   383.63   393.23   395.02   400.47   406.83
eigval :      418.47   422.43   431.99   454.64   456.31   474.25
eigval :      484.84   490.90   492.34   498.24   504.31   514.71
eigval :      527.35   544.90   547.53   555.12   582.39   584.55
eigval :      586.42   587.03   591.84   594.15   598.68   603.33
eigval :      610.20   617.18   620.12   626.46   633.03   644.79
eigval :      660.79   661.15   665.82   668.26   678.01   682.20
eigval :      687.66   699.53   708.63   711.05   714.27   739.38
eigval :      747.93   755.44   757.88   759.76   761.44   772.72
eigval :      781.34   788.47   815.64   820.12   845.56   848.85
eigval :      855.74   863.60   868.27   869.55   872.09   873.46
eigval :      875.39   875.95   877.94   893.31   894.10   896.98
eigval :      897.09   897.58   904.48   908.89   909.52   915.57
eigval :      917.80   919.51   919.69   922.79   924.04   924.18
eigval :      927.13   928.38   928.82   928.99   929.88   931.30
eigval :      932.26   933.50   934.23   941.39   977.58   986.08
eigval :      999.95  1004.75  1005.21  1016.49  1034.55  1056.33
eigval :     1073.71  1081.07  1081.15  1083.85  1085.27  1108.67
eigval :     1119.75  1120.14  1122.30  1125.39  1126.58  1141.83
eigval :     1143.43  1145.84  1151.41  1174.81  1177.57  1178.63
eigval :     1178.84  1180.04  1183.56  1185.43  1185.69  1191.80
eigval :     1194.53  1195.23  1196.40  1199.90  1213.47  1215.88
eigval :     1230.96  1254.90  1263.47  1269.54  1269.78  1276.23
eigval :     1276.96  1278.92  1279.76  1283.05  1291.43  1299.37
eigval :     1303.28  1305.85  1313.01  1314.01  1320.08  1321.85
eigval :     1323.33  1324.02  1325.31  1326.41  1328.45  1333.81
eigval :     1351.98  1361.22  1366.81  1396.43  1410.28  1413.97
eigval :     1414.88  1433.29  1434.31  1434.51  1439.95  1440.37
eigval :     1468.15  1468.80  1471.89  1472.44  1476.80  1485.70
eigval :     1489.35  1501.00  1529.49  1541.91  1544.83  1548.06
eigval :     1552.20  1560.06  1576.38  1576.53  1580.06  1580.39
eigval :     1586.31  1590.25  1590.77  1590.97  1592.31  1598.39
eigval :     1599.00  1614.32  1654.37  3072.94  3073.03  3073.67
eigval :     3074.01  3075.40  3075.57  3075.90  3076.25  3078.26
eigval :     3079.93  3079.98  3081.43  3082.17  3083.37  3083.62
eigval :     3084.17  3084.51  3085.18  3087.28  3087.56  3090.12
eigval :     3090.51  3091.64  3092.66  3092.95  3093.41  3094.64
eigval :     3094.77  3095.19  3095.54  3096.33  3103.70  3106.65
eigval :     3107.47  3109.18  3110.48

   temp. (K)  partition function   enthalpy   heat capacity  entropy
                                   cal/mol     cal/K/mol   cal/K/mol   J/K/mol
 298.15  VIB  0.478E+21            27256.622    173.620    169.335
         ROT  0.137E+09              888.752      2.981     40.215
         INT  0.655E+29            28145.374    176.601    209.551
         TR   0.201E+29             1481.254      4.968     45.731
         TOT                       29626.6283   181.5689   255.2812  1068.0965

       T/K    H(0)-H(T)+PV         H(T)/Eh          T*S/Eh         G(T)/Eh
   ------------------------------------------------------------------------
    298.15    0.472130E-01    0.774506E+00    0.121292E+00    0.653214E+00
   ------------------------------------------------------------------------

         :::::::::::::::::::::::::::::::::::::::::::::::::::::
         ::                  THERMODYNAMIC                  ::
         :::::::::::::::::::::::::::::::::::::::::::::::::::::
         :: total free energy        -149.244921228943 Eh   ::
         ::.................................................::
         :: total energy             -149.898134842396 Eh   ::
         :: zero point energy           0.727292910130 Eh   ::
         :: G(RRHO) w/o ZPVE           -0.074079296677 Eh   ::
         :: G(RRHO) contrib.            0.653213613453 Eh   ::
         :::::::::::::::::::::::::::::::::::::::::::::::::::::

           -------------------------------------------------
          | TOTAL ENERGY             -149.898134842396 Eh   |
          | TOTAL ENTHALPY           -149.123628894886 Eh   |
          | TOTAL FREE ENERGY        -149.244921228943 Eh   |
          | GRADIENT NORM               0.000038006041 Eh/α |
          | HOMO-LUMO GAP               1.101681870339 eV   |
           -------------------------------------------------

 * finished run on 2025/07/20 at 01:01:43.261
