   * xtb version 6.7.1 (edcfbbe) compiled by 'albert@albert-system' on 2024-07-22

   ID    Z sym.   atoms
    1    8 O      1
    2    6 C      2-10, 12-31, 33-51, 53-58
    3    7 N      11, 32, 52, 59
    4    1 H      60-95

          program call               : xtb data2507/toluene/3-DTPA-BBI/3-DTPA-BBI_toluene_S0_finalOpt.xtbopt.xyz --gfn 2 --uhf 2 --gbsa toluene --ohess vtight --parallel 40 --molden --ceasefiles --namespace data2507/toluene/3-DTPA-BBI/3-DTPA-BBI_toluene_T1_preOpt
      * Solvation model:               GBSA
        Solvent                        toluene
        Solvent mass                       9.2140E+01 g/mol
          :  Hamiltonian                  GFN2-xTB          :
 * total energy  :  -149.8406299 Eh     change       -0.8836423E-08 Eh
 * total energy  :  -149.8432189 Eh     change       -0.2588993E-02 Eh
 * total energy  :  -149.8439399 Eh     change       -0.7210000E-03 Eh
 * total energy  :  -149.8440129 Eh     change       -0.7303861E-04 Eh
 * total energy  :  -149.8440621 Eh     change       -0.4914530E-04 Eh
 * total energy  :  -149.8440865 Eh     change       -0.2443765E-04 Eh
 * total energy  :  -149.8441088 Eh     change       -0.2231106E-04 Eh
 * total energy  :  -149.8441269 Eh     change       -0.1802789E-04 Eh
 * total energy  :  -149.8441416 Eh     change       -0.1474095E-04 Eh
 * total energy  :  -149.8441548 Eh     change       -0.1318653E-04 Eh
 * total energy  :  -149.8442521 Eh     change       -0.9723063E-06 Eh
 * total energy  :  -149.8442527 Eh     change       -0.6228314E-06 Eh
 * total energy  :  -149.8442535 Eh     change       -0.7999424E-06 Eh
 * total energy  :  -149.8442545 Eh     change       -0.1023065E-05 Eh
 * total energy  :  -149.8442553 Eh     change       -0.8290745E-06 Eh
 * total energy  :  -149.8442558 Eh     change       -0.4721848E-06 Eh
 * total energy  :  -149.8442561 Eh     change       -0.3136846E-06 Eh
 * total energy  :  -149.8442564 Eh     change       -0.2510254E-06 Eh
 * total energy  :  -149.8442564 Eh     change       -0.3267348E-07 Eh
   *** GEOMETRY OPTIMIZATION CONVERGED AFTER 34 ITERATIONS ***

 final structure:
================
95
 xtb: 6.7.1 (edcfbbe)
O           -6.92436772466730        2.46789007962765        1.03040197728899
C           -6.29756182107507        1.48853662619264        0.61274770087268
C           -4.85478604557767        1.39983890639883        0.55531903831589
C           -4.09404956616800        2.50568265406559        0.98084516012131
C           -2.73095707731918        2.49959095580187        0.84416072759678
C           -2.04669441782546        1.38636983356464        0.33090825402207
C           -0.63957777504317        1.55745727792320       -0.02077720671546
C           -0.16472796775046        1.16448125754668       -1.27771239352070
C            1.14296427586466        1.37589428402356       -1.64563473635537
C            2.04095265420706        1.98599032497760       -0.76157710626925
N            3.37604675157039        2.17952527998612       -1.10938577933469
C            4.04811308974955        1.27218906615221       -1.93377379563113
C            5.02425220308114        1.72349449606339       -2.82523907996233
C            5.70469794382483        0.82582242049252       -3.62439208770123
C            5.42579827567176       -0.53038024954151       -3.55317527533517
C            4.45247196123988       -0.98264033975307       -2.67615730590565
C            3.76710750820006       -0.09388031268514       -1.87161908025304
C            4.06952738578436        3.29179605239254       -0.60800361253009
C            3.45649350395023        4.54422345417243       -0.56057241178151
C            4.14512948292768        5.63371500243616       -0.06259896713527
C            5.44794630691524        5.49293635061124        0.39023395776276
C            6.06071874859050        4.25025803959181        0.34350504734679
C            5.38008231753604        3.15378339237888       -0.14966474888216
C            1.56760727459029        2.40114199716828        0.48764962117178
C            0.25317568074931        2.19874629172896        0.84253842229303
C           -2.76895163863614        0.19512537999346        0.05734385519672
C           -2.14229070465877       -1.04685099148312       -0.25140266694925
C           -0.75423045399693       -1.32824764355271        0.07229536138820
C           -0.21232381671849       -0.94615804798472        1.30912726917403
C            1.07817105409001       -1.26283347717693        1.65358705320493
C            1.90043350454416       -1.97220693806537        0.76626133699763
N            3.21563317435851       -2.27667667393035        1.09059251373715
C            3.97671955101072       -1.43333676734547        1.90707078064890
C            4.91275688017481       -1.97267463523748        2.79232488755735
C            5.68207022105915       -1.14046529988144        3.58167793104962
C            5.53186254591099        0.23583218226786        3.50594082979064
C            4.59917817639580        0.77553897552164        2.63407397919306
C            3.82597516372942       -0.04729843226740        1.83899810408373
C            3.80752877497285       -3.44371800828235        0.58129806858038
C            3.09397773867409       -4.64229714846060        0.55184888253118
C            3.68395163227887       -5.78617935749077        0.04923849770588
C            4.98603786568564       -5.75271889265362       -0.42588043000990
C            5.69847815110998       -4.56373597908612       -0.39610650219922
C            5.11733216778747       -3.41346557120488        0.10193962765175
C            1.36089435358541       -2.37322828851953       -0.46323700035487
C            0.06235808663692       -2.06800474249370       -0.79340815945632
C           -2.91952824193616       -2.10369432255269       -0.76617367282167
C           -4.28163629950981       -2.02436348047041       -0.84588280639685
C           -4.94226307415574       -0.87028957504150       -0.37284996448613
C           -4.19246143749942        0.24411184302089        0.08361691382902
C           -6.34768276392324       -0.78086938198274       -0.34432391861309
N           -7.21790568663241       -1.70486271265238       -0.73341610823180
C           -8.44506390598798       -1.17209647978955       -0.50632944413812
C           -9.71116240976419       -1.71436846940606       -0.73496658006228
C          -10.80808416903983       -0.94703767814411       -0.40884134485618
C          -10.67451137741014        0.33349875686553        0.13384096728419
C           -9.43013219523148        0.89427474204649        0.37053446619002
C           -8.32573843682684        0.13291560620814        0.04607513213264
N           -6.96471532116119        0.36579253077692        0.14201315417222
H           -4.62249167066184        3.36475435464336        1.36644689334359
H           -2.16805803463756        3.38873376549077        1.08837102640388
H           -0.85051321875803        0.71444852360269       -1.98004685874289
H            1.47817015693064        1.09047590582800       -2.63157877710833
H            5.23645497620108        2.78024102252544       -2.89260371169918
H            6.45346348291381        1.18897251653718       -4.31272928591479
H            5.96102135775395       -1.22872318197301       -4.17832569944333
H            4.23326567518157       -2.03791738966801       -2.61054857916615
H            3.01308560366124       -0.45160870440360       -1.18806485647344
H            2.44564387495529        4.65569475113232       -0.92461421465377
H            3.66387296272559        6.60014894659852       -0.03537106658282
H            5.98214536320787        6.34735102200959        0.77731851269809
H            7.07259106040389        4.13194120162106        0.70152808153603
H            5.85160575907741        2.18265895633728       -0.17366004278215
H            2.24456118540561        2.87291405447833        1.18417612398543
H           -0.08363942132051        2.50696109566293        1.82099713665108
H           -0.84123057162220       -0.42751306956342        2.01701692337816
H            1.45905532120700       -0.98853043827500        2.62592996601116
H            5.02391440084747       -3.04447865316221        2.86272280123822
H            6.39880955997800       -1.56980597468048        4.26583785756083
H            6.13606520455469        0.88285723126957        4.12338781468625
H            4.48095491110004        1.84655264203505        2.56442073331127
H            3.10624409545863        0.37741407815527        1.15697684811235
H            2.08447231278643       -4.66993997160502        0.93489452966255
H            3.12630720874862       -6.71075296903979        0.03606459614159
H            5.44269733859782       -6.64935481657468       -0.81653716750027
H            6.71033718673745       -4.52943117056487       -0.77141044074779
H            5.66558768381208       -2.48336051251735        0.11237610062201
H            1.98000507078866       -2.91179919059300       -1.16483776938382
H           -0.31974942918329       -2.36297933739347       -1.75881735772010
H           -2.42316934958159       -3.02184323455728       -1.04345553152914
H           -4.88424861461822       -2.83662916250730       -1.21844256581807
H           -9.81023500969310       -2.70339223767561       -1.15409651880316
H          -11.80023394576104       -1.34115674290134       -0.57513021970573
H          -11.56176129300085        0.89998109305515        0.37472661179948
H           -9.31628984335201        1.88228551768619        0.78898489546707

          :  Hamiltonian                  GFN2-xTB          :
         :: gradient norm              0.000155509049 Eh/a0 ::
         :: HOMO-LUMO gap              1.169140623763 eV    ::
         :: SCC energy              -152.581428060700 Eh    ::
         :: -> dispersion             -0.152215420361 Eh    ::
         :: -> Gsolv                  -0.072527936572 Eh    ::
         :: repulsion energy           2.737171645141 Eh    ::

    * Orbital Energies and Occupations

         #    Occupation            Energy/Eh            Energy/eV
      -------------------------------------------------------------
         1        2.0000           -0.6907000             -18.7949
       ...           ...                  ...                  ...
       128        2.0000           -0.4146885             -11.2842
       129        2.0000           -0.4137465             -11.2586
       130        2.0000           -0.4112505             -11.1907
       131        2.0000           -0.4050984             -11.0233
       132        2.0000           -0.4004094             -10.8957
       133        2.0000           -0.3912640             -10.6468
       134        2.0000           -0.3899113             -10.6100
       135        2.0000           -0.3883998             -10.5689
       136        2.0000           -0.3790139             -10.3135
       137        2.0000           -0.3708479             -10.0913
       138        1.7600           -0.3591796              -9.7738
       139        1.2400           -0.3569896              -9.7142
       140        1.0000           -0.2986605              -8.1270 (HOMO)
       141                         -0.2556955              -6.9578 (LUMO)
       142                         -0.2436279              -6.6295
       143                         -0.2429263              -6.6104
       144                         -0.2412384              -6.5644
       145                         -0.2390205              -6.5041
       146                         -0.2365062              -6.4357
       147                         -0.2358534              -6.4179
       148                         -0.2327658              -6.3339
       149                         -0.2313740              -6.2960
       150                         -0.2304236              -6.2701
       151                         -0.2271392              -6.1808
       ...                                ...                  ...
       272                          0.7172738              19.5180
      -------------------------------------------------------------
                  HL-Gap            0.0429651 Eh            1.1691 eV

     #   Z          covCN         q      C6AA      α(0)
     1   8 O        0.858    -0.512    24.061     6.577
     2   6 C        2.766     0.253    22.756     7.812
     3   6 C        2.978    -0.045    29.100     8.849
     4   6 C        2.917    -0.036    28.907     8.817
     5   6 C        2.919    -0.037    28.928     8.820
     6   6 C        2.973    -0.007    28.201     8.711
     7   6 C        2.976     0.013    27.715     8.635
     8   6 C        2.923    -0.031    28.770     8.796
     9   6 C        2.918    -0.046    29.138     8.852
    10   6 C        2.923     0.059    26.673     8.469
    11   7 N        2.752    -0.045    22.116     6.985
    12   6 C        2.924     0.063    26.582     8.455
    13   6 C        2.922    -0.043    29.078     8.843
    14   6 C        2.919    -0.027    28.670     8.781
    15   6 C        2.919    -0.033    28.816     8.803
    16   6 C        2.919    -0.026    28.658     8.779
    17   6 C        2.922    -0.045    29.119     8.849
    18   6 C        2.927     0.063    26.580     8.455
    19   6 C        2.921    -0.042    29.033     8.836
    20   6 C        2.919    -0.027    28.668     8.780
    21   6 C        2.919    -0.032    28.791     8.799
    22   6 C        2.919    -0.027    28.667     8.780
    23   6 C        2.921    -0.042    29.033     8.836
    24   6 C        2.919    -0.046    29.151     8.854
    25   6 C        2.923    -0.034    28.859     8.810
    26   6 C        2.978     0.004    27.931     8.669
    27   6 C        2.973    -0.006    28.166     8.705
    28   6 C        2.976     0.016    27.641     8.624
    29   6 C        2.923    -0.029    28.728     8.790
    30   6 C        2.918    -0.045    29.112     8.848
    31   6 C        2.923     0.060    26.645     8.465
    32   7 N        2.752    -0.037    21.960     6.960
    33   6 C        2.925     0.063    26.598     8.458
    34   6 C        2.922    -0.042    29.049     8.839
    35   6 C        2.919    -0.026    28.656     8.778
    36   6 C        2.919    -0.031    28.781     8.798
    37   6 C        2.919    -0.025    28.639     8.776
    38   6 C        2.921    -0.044    29.084     8.844
    39   6 C        2.928     0.063    26.599     8.458
    40   6 C        2.921    -0.041    29.008     8.832
    41   6 C        2.919    -0.026    28.651     8.778
    42   6 C        2.919    -0.030    28.756     8.794
    43   6 C        2.919    -0.026    28.648     8.777
    44   6 C        2.921    -0.040    29.001     8.831
    45   6 C        2.919    -0.045    29.120     8.849
    46   6 C        2.922    -0.034    28.835     8.806
    47   6 C        2.920    -0.034    28.850     8.808
    48   6 C        2.913    -0.042    29.050     8.838
    49   6 C        2.978    -0.019    28.483     8.754
    50   6 C        2.992     0.000    28.014     8.682
    51   6 C        3.176     0.144    24.499     8.082
    52   7 N        1.874    -0.332    29.457     8.045
    53   6 C        3.181     0.076    25.898     8.307
    54   6 C        2.910    -0.051    29.278     8.873
    55   6 C        2.920    -0.040    28.992     8.830
    56   6 C        2.926    -0.040    28.999     8.831
    57   6 C        2.907    -0.049    29.215     8.863
    58   6 C        3.068     0.052    26.770     8.484
    59   7 N        2.817    -0.091    23.006     7.124
    60   1 H        0.926     0.032     2.561     2.502
    61   1 H        0.926     0.037     2.489     2.467
    62   1 H        0.926     0.037     2.493     2.469
    63   1 H        0.926     0.042     2.419     2.432
    64   1 H        0.926     0.039     2.461     2.453
    65   1 H        0.926     0.041     2.441     2.443
    66   1 H        0.926     0.040     2.448     2.447
    67   1 H        0.926     0.040     2.452     2.449
    68   1 H        0.926     0.040     2.454     2.450
    69   1 H        0.926     0.039     2.455     2.450
    70   1 H        0.926     0.040     2.445     2.445
    71   1 H        0.926     0.040     2.447     2.446
    72   1 H        0.926     0.043     2.408     2.427
    73   1 H        0.926     0.043     2.415     2.430
    74   1 H        0.926     0.043     2.405     2.425
    75   1 H        0.926     0.041     2.436     2.441
    76   1 H        0.926     0.038     2.469     2.457
    77   1 H        0.926     0.044     2.397     2.421
    78   1 H        0.926     0.041     2.430     2.438
    79   1 H        0.926     0.042     2.417     2.431
    80   1 H        0.926     0.041     2.431     2.438
    81   1 H        0.926     0.040     2.442     2.444
    82   1 H        0.926     0.042     2.427     2.436
    83   1 H        0.926     0.042     2.419     2.432
    84   1 H        0.926     0.043     2.412     2.429
    85   1 H        0.926     0.042     2.423     2.434
    86   1 H        0.926     0.044     2.390     2.418
    87   1 H        0.926     0.044     2.401     2.423
    88   1 H        0.926     0.047     2.362     2.403
    89   1 H        0.926     0.046     2.372     2.409
    90   1 H        0.926     0.044     2.398     2.421
    91   1 H        0.926     0.044     2.391     2.418
    92   1 H        0.926     0.041     2.431     2.438
    93   1 H        0.926     0.039     2.468     2.456
    94   1 H        0.926     0.037     2.491     2.468
    95   1 H        0.926     0.041     2.437     2.441

molecular dipole:
                 x           y           z       tot (Debye)
 q only:        9.988      -1.524      -0.416
   full:        9.645      -1.150      -0.267      24.699

 projected vibrational frequencies (cm⁻¹)
eigval :       -0.00    -0.00    -0.00     0.00     0.00     0.00
eigval :       15.52    16.43    17.69    20.84    26.62    30.24
eigval :       41.18    49.12    51.30    54.72    56.97    60.02
eigval :       69.83    70.20    74.95    77.22    80.63    86.74
eigval :      109.24   114.07   117.71   122.97   130.39   156.59
eigval :      159.89   163.92   183.97   190.96   208.51   224.69
eigval :      229.40   235.70   237.24   258.44   271.40   287.75
eigval :      293.16   300.49   311.12   319.50   323.76   337.13
eigval :      344.89   352.86   354.92   375.85   377.26   379.30
eigval :      381.53   384.90   390.96   394.10   399.23   409.82
eigval :      416.34   417.62   430.34   446.48   456.14   469.77
eigval :      481.64   486.09   493.09   499.06   506.48   513.01
eigval :      526.79   536.10   541.09   552.58   580.48   580.91
eigval :      583.69   585.29   585.81   590.70   593.33   594.27
eigval :      605.03   612.40   615.73   617.11   620.51   641.08
eigval :      657.46   659.32   660.74   663.46   666.90   677.22
eigval :      682.19   683.72   696.81   706.37   709.02   728.80
eigval :      738.61   754.13   756.61   758.82   760.61   769.24
eigval :      776.65   785.31   804.48   811.87   822.61   827.40
eigval :      850.78   859.40   863.73   865.80   865.95   868.79
eigval :      873.01   873.11   874.60   894.25   895.21   899.15
eigval :      899.27   899.57   899.72   901.80   903.10   908.26
eigval :      909.09   913.46   915.47   919.90   921.86   922.15
eigval :      925.93   927.97   928.64   928.97   929.71   930.62
eigval :      931.90   932.74   933.47   934.57   975.92   983.45
eigval :      997.43  1003.01  1003.36  1010.26  1028.49  1051.99
eigval :     1063.52  1079.53  1080.22  1082.21  1083.70  1098.93
eigval :     1119.51  1120.05  1122.09  1125.17  1126.39  1130.12
eigval :     1140.63  1142.87  1144.24  1172.78  1173.38  1176.44
eigval :     1177.23  1177.34  1177.63  1179.03  1181.01  1189.60
eigval :     1191.51  1192.36  1193.03  1196.46  1211.63  1213.78
eigval :     1229.25  1243.46  1261.39  1265.70  1267.06  1272.69
eigval :     1273.89  1274.58  1277.67  1279.97  1284.86  1288.91
eigval :     1295.70  1298.36  1308.80  1312.40  1312.89  1313.82
eigval :     1315.21  1321.93  1323.25  1324.31  1325.01  1329.50
eigval :     1350.46  1360.34  1374.16  1382.55  1399.47  1407.75
eigval :     1414.60  1420.75  1431.43  1432.06  1437.08  1437.87
eigval :     1452.87  1458.96  1459.96  1460.16  1460.44  1461.87
eigval :     1472.67  1474.99  1477.46  1493.11  1509.77  1517.73
eigval :     1530.31  1547.82  1565.94  1568.82  1569.11  1572.66
eigval :     1573.35  1577.03  1578.38  1581.55  1582.31  1588.17
eigval :     1589.77  1595.78  1601.81  3073.75  3074.63  3078.80
eigval :     3079.06  3080.30  3080.42  3080.65  3080.93  3081.39
eigval :     3081.88  3082.41  3082.74  3083.01  3083.66  3085.20
eigval :     3086.09  3087.90  3089.51  3089.76  3090.35  3091.25
eigval :     3091.95  3092.85  3093.87  3094.10  3094.84  3097.21
eigval :     3097.59  3097.87  3098.40  3099.23  3100.35  3101.22
eigval :     3106.87  3109.43  3111.80

   temp. (K)  partition function   enthalpy   heat capacity  entropy
                                   cal/mol     cal/K/mol   cal/K/mol   J/K/mol
 298.15  VIB  0.581E+21            27388.946    174.710    170.020
         ROT  0.137E+09              888.752      2.981     40.216
         INT  0.798E+29            28277.698    177.691    210.237
         TR   0.201E+29             1481.254      4.968     45.731
         TOT                       29758.9522   182.6594   255.9671  1070.9662

       T/K    H(0)-H(T)+PV         H(T)/Eh          T*S/Eh         G(T)/Eh
   ------------------------------------------------------------------------
    298.15    0.474239E-01    0.772092E+00    0.121618E+00    0.650474E+00
   ------------------------------------------------------------------------

         :::::::::::::::::::::::::::::::::::::::::::::::::::::
         ::                  THERMODYNAMIC                  ::
         :::::::::::::::::::::::::::::::::::::::::::::::::::::
         :: total free energy        -149.193782431454 Eh   ::
         ::.................................................::
         :: total energy             -149.844256416296 Eh   ::
         :: zero point energy           0.724668286990 Eh   ::
         :: G(RRHO) w/o ZPVE           -0.074194302148 Eh   ::
         :: G(RRHO) contrib.            0.650473984842 Eh   ::
         :::::::::::::::::::::::::::::::::::::::::::::::::::::

           -------------------------------------------------
          | TOTAL ENERGY             -149.844256416296 Eh   |
          | TOTAL ENTHALPY           -149.072164220279 Eh   |
          | TOTAL FREE ENERGY        -149.193782431454 Eh   |
          | GRADIENT NORM               0.000154527657 Eh/α |
          | HOMO-LUMO GAP               1.169138915573 eV   |
           -------------------------------------------------

 * finished run on 2025/07/20 at 01:01:54.415
