   * xtb version 6.7.1 (edcfbbe) compiled by 'albert@albert-system' on 2024-07-22

   ID    Z sym.   atoms
    1    8 O      1
    2    6 C      2-10, 12-31, 33-51, 53-58
    3    7 N      11, 32, 52, 59
    4    1 H      60-95

          program call               : xtb data2507/toluene/3-DTPA-BBI/3-DTPA-BBI.xyz --gfn 2 --gbsa toluene --ohess vtight --parallel 40 --molden --ceasefiles --namespace data2507/toluene/3-DTPA-BBI/3-DTPA-BBI_toluene_S0_preOpt
      * Solvation model:               GBSA
        Solvent                        toluene
        Solvent mass                       9.2140E+01 g/mol
          :  Hamiltonian                  GFN2-xTB          :
 * total energy  :  -149.8581292 Eh     change       -0.2539025E-08 Eh
 * total energy  :  -149.8767765 Eh     change       -0.1864725E-01 Eh
 * total energy  :  -149.8839778 Eh     change       -0.7201274E-02 Eh
 * total energy  :  -149.8863826 Eh     change       -0.2404843E-02 Eh
 * total energy  :  -149.8877775 Eh     change       -0.1394896E-02 Eh
 * total energy  :  -149.8883817 Eh     change       -0.6042115E-03 Eh
 * total energy  :  -149.8887586 Eh     change       -0.3769090E-03 Eh
 * total energy  :  -149.8891535 Eh     change       -0.3948749E-03 Eh
 * total energy  :  -149.8895495 Eh     change       -0.3959717E-03 Eh
 * total energy  :  -149.8899003 Eh     change       -0.3508401E-03 Eh
 * total energy  :  -149.8936663 Eh     change       -0.4010527E-06 Eh
 * total energy  :  -149.8936666 Eh     change       -0.3523137E-06 Eh
 * total energy  :  -149.8936670 Eh     change       -0.3403809E-06 Eh
 * total energy  :  -149.8936673 Eh     change       -0.3504422E-06 Eh
 * total energy  :  -149.8936677 Eh     change       -0.3757150E-06 Eh
 * total energy  :  -149.8936681 Eh     change       -0.3817791E-06 Eh
 * total energy  :  -149.8936684 Eh     change       -0.2933880E-06 Eh
 * total energy  :  -149.8936686 Eh     change       -0.1922704E-06 Eh
 * total energy  :  -149.8936686 Eh     change       -0.3162796E-08 Eh
   *** GEOMETRY OPTIMIZATION CONVERGED AFTER 68 ITERATIONS ***

 final structure:
================
95
 xtb: 6.7.1 (edcfbbe)
O           -7.26228914596146        1.66753586359359        2.19323767702087
C           -6.64141988234566        1.13028611864813        1.28989210866039
C           -5.18092101207597        1.04923341784271        1.22917687704665
C           -4.43426372472376        1.64324734587905        2.23533456838874
C           -3.05056449404865        1.70185318286836        2.14637443747476
C           -2.37800052632310        1.10380865624579        1.09436360165991
C           -0.97466041869046        1.43934398705477        0.84327365783236
C           -0.63425247252076        1.94465797970640       -0.41356830092533
C            0.64345509544473        2.37359054495052       -0.68475193501735
C            1.64724176464949        2.27311529750120        0.28333388513406
N            2.94880928481715        2.67900028492247        0.01219580344158
C            3.74571751876355        3.19532036645814        1.05239373160310
C            3.21422950072661        4.10635626448189        1.96355557485150
C            4.00309714072723        4.61396372541839        2.97857595551955
C            5.32896615336847        4.22806191580674        3.09528802569603
C            5.86193128198959        3.32495038544352        2.18960492499623
C            5.07808236941982        2.80738986506277        1.17566464388225
C            3.46973532855249        2.64896835449022       -1.28889745546727
C            3.11062700318352        1.64097939899438       -2.18467924743831
C            3.64320138933454        1.61872911390013       -3.45929287380157
C            4.54403840096127        2.59043427482414       -3.86374785747991
C            4.90452053592486        3.59379358655526       -2.97899626944114
C            4.37137615754135        3.62946497463905       -1.70460317273625
C            1.30816889709439        1.76324549554411        1.54093314471114
C            0.01433197955369        1.37939596976386        1.82154100133684
C           -3.10425173011775        0.31347408183875        0.16024361817001
C           -2.46510933815464       -0.53710627741790       -0.78582950571972
C           -1.09597740484145       -1.02127855443984       -0.56776690755513
C           -0.77443445615998       -1.55793352294251        0.68099129179535
C            0.43399064209803       -2.17941139834300        0.89763514516669
C            1.37555966435501       -2.28015367092446       -0.12974379726441
N            2.57093287324778       -2.96649650469891        0.07551575067368
C            2.59962180485668       -4.11657048669272        0.87603172685498
C            1.53272114295549       -5.01521823560604        0.87373056130766
C            1.57461268802692       -6.14698238580126        1.66517128776754
C            2.67874760646571       -6.40791521409763        2.46083170208088
C            3.74489910732078       -5.52292763894717        2.46004594854889
C            3.70858884407517       -4.38397482673814        1.67863630548970
C            3.75195264760194       -2.54250955599260       -0.55345192447760
C            4.61375601544372       -3.47011958115123       -1.13729507281516
C            5.77846861213658       -3.04640996998395       -1.74816173871549
C            6.09657363523182       -1.69821789613672       -1.79102563980016
C            5.24363577168925       -0.77446720915637       -1.20990220515127
C            4.08066753313731       -1.18917158071038       -0.58943365588739
C            1.07606536584849       -1.70429581832759       -1.36684621608769
C           -0.14637833298225       -1.10156333999266       -1.58378728182192
C           -3.20975043982618       -1.07219657931555       -1.82356286620773
C           -4.58417580941408       -0.88686518188752       -1.89931566663095
C           -5.25092244341494       -0.22312785666029       -0.88245847401141
C           -4.52054019169112        0.37975642759076        0.17008595290489
C           -6.67798909936618       -0.11762055031184       -0.84504642454817
N           -7.52612436961124       -0.57911247027974       -1.71954618531102
C           -8.77289801659118       -0.23844789776719       -1.25444657757452
C          -10.02502713051580       -0.48800593386868       -1.80241704640565
C          -11.12888585284120       -0.02826236453083       -1.11121379239641
C          -11.00260469110953        0.66263811339488        0.09324909118145
C           -9.76456126479223        0.92215560061636        0.65526739668540
C           -8.65729582766179        0.46360876321019       -0.03254308016765
N           -7.29413068883241        0.53775497638565        0.22070470740270
H           -4.95843976546283        2.12013169924280        3.05069661000990
H           -2.49330717165809        2.27273026681482        2.87384330159439
H           -1.39850197612334        2.03669120698646       -1.17137180344936
H            0.87062100706741        2.80475402251136       -1.64786307467582
H            2.18333580318064        4.41493826350789        1.86651765765065
H            3.58152115236264        5.32213428349358        3.67697367468396
H            5.94336432330906        4.62987042423586        3.88700500367566
H            6.89325475677960        3.01574409606469        2.27641632667781
H            5.49330197553924        2.10088558928822        0.47262634180730
H            2.41846710309573        0.87241316321180       -1.87650854830697
H            3.35951253250084        0.82827583827659       -4.13854375873972
H            4.96077117862651        2.56678185932386       -4.85941031188248
H            5.60082021671615        4.36130344984262       -3.28439282185803
H            4.64972318384757        4.42114599713528       -1.02446576354241
H            2.07061350424282        1.67195295868915        2.30029456510256
H           -0.22496332531907        0.98756782474858        2.79889898768141
H           -1.49863625234260       -1.51027276167541        1.48114109702731
H            0.65583190886447       -2.60624518562014        1.86451393950015
H            0.67457791465345       -4.82223338928702        0.24647345932655
H            0.74227176225915       -6.83566705304969        1.65257668043584
H            2.70848050861758       -7.29525301155668        3.07519452063012
H            4.60936028734769       -5.71659816639491        3.07845174556788
H            4.53831988836615       -3.69227289611625        1.68553363742409
H            4.36184055750545       -4.52035091307314       -1.10895389117906
H            6.43759923361833       -3.77300737440735       -2.20054572308143
H            7.00487439431420       -1.36924515964926       -2.27311492447551
H            5.48671982052324        0.27695713587413       -1.24124196941065
H            3.42076678139669       -0.47392070130706       -0.12164978875134
H            1.79967094570640       -1.76390686596578       -2.16690268843907
H           -0.36769328728748       -0.68083927107248       -2.55362579939926
H           -2.71822719640007       -1.69393633975494       -2.55673647934257
H           -5.16165546106372       -1.31089687562958       -2.70554370040374
H          -10.11744392768444       -1.02268889530572       -2.73430893892748
H          -12.11630626831743       -0.20668997501439       -1.51053421528041
H          -11.89190168185215        1.00418944842327        0.60140858460454
H           -9.65943741886061        1.45580447631606        1.58659513327267

          :  Hamiltonian                  GFN2-xTB          :
         :: gradient norm              0.000038963774 Eh/a0 ::
         :: HOMO-LUMO gap              1.095052257630 eV    ::
         :: SCC energy              -152.644872212061 Eh    ::
         :: -> dispersion             -0.148201022667 Eh    ::
         :: -> Gsolv                  -0.061600087115 Eh    ::
         :: repulsion energy           2.751203637329 Eh    ::

    * Orbital Energies and Occupations

         #    Occupation            Energy/Eh            Energy/eV
      -------------------------------------------------------------
         1        2.0000           -0.7192793             -19.5726
       ...           ...                  ...                  ...
       127        2.0000           -0.4096774             -11.1479
       128        2.0000           -0.4095172             -11.1435
       129        2.0000           -0.4085188             -11.1164
       130        2.0000           -0.4072613             -11.0821
       131        2.0000           -0.4060190             -11.0483
       132        2.0000           -0.4051346             -11.0243
       133        2.0000           -0.4035898             -10.9822
       134        2.0000           -0.4011009             -10.9145
       135        2.0000           -0.3990257             -10.8580
       136        2.0000           -0.3926391             -10.6843
       137        2.0000           -0.3810103             -10.3678
       138        2.0000           -0.3544170              -9.6442
       139        2.0000           -0.3510825              -9.5534 (HOMO)
       140                         -0.3108401              -8.4584 (LUMO)
       141                         -0.2611009              -7.1049
       142                         -0.2471790              -6.7261
       143                         -0.2460279              -6.6948
       144                         -0.2368339              -6.4446
       145                         -0.2335800              -6.3560
       146                         -0.2319881              -6.3127
       147                         -0.2311277              -6.2893
       148                         -0.2294498              -6.2436
       149                         -0.2270392              -6.1781
       150                         -0.2261789              -6.1546
       ...                                ...                  ...
       272                          0.7129842              19.4013
      -------------------------------------------------------------
                  HL-Gap            0.0402424 Eh            1.0951 eV

     #   Z          covCN         q      C6AA      α(0)
     1   8 O        0.858    -0.454    22.794     6.401
     2   6 C        2.764     0.273    22.386     7.748
     3   6 C        2.976    -0.039    28.961     8.827
     4   6 C        2.920    -0.014    28.360     8.733
     5   6 C        2.920    -0.036    28.893     8.815
     6   6 C        2.977     0.026    27.421     8.590
     7   6 C        2.978     0.004    27.939     8.670
     8   6 C        2.927    -0.029    28.735     8.791
     9   6 C        2.920    -0.050    29.238     8.867
    10   6 C        2.922     0.067    26.509     8.443
    11   7 N        2.751    -0.070    22.597     7.060
    12   6 C        2.926     0.064    26.560     8.452
    13   6 C        2.922    -0.045    29.116     8.849
    14   6 C        2.919    -0.029    28.726     8.789
    15   6 C        2.919    -0.036    28.891     8.814
    16   6 C        2.919    -0.029    28.723     8.789
    17   6 C        2.922    -0.044    29.088     8.844
    18   6 C        2.922     0.064    26.565     8.452
    19   6 C        2.922    -0.047    29.171     8.857
    20   6 C        2.920    -0.029    28.713     8.787
    21   6 C        2.918    -0.038    28.948     8.823
    22   6 C        2.919    -0.030    28.743     8.792
    23   6 C        2.923    -0.048    29.199     8.861
    24   6 C        2.922    -0.050    29.236     8.867
    25   6 C        2.921    -0.032    28.789     8.799
    26   6 C        2.988     0.007    27.853     8.657
    27   6 C        2.975     0.021    27.540     8.608
    28   6 C        2.977     0.004    27.925     8.668
    29   6 C        2.926    -0.030    28.749     8.793
    30   6 C        2.921    -0.048    29.194     8.860
    31   6 C        2.922     0.066    26.519     8.445
    32   7 N        2.752    -0.074    22.684     7.074
    33   6 C        2.924     0.065    26.552     8.450
    34   6 C        2.922    -0.048    29.191     8.860
    35   6 C        2.919    -0.030    28.746     8.792
    36   6 C        2.919    -0.039    28.959     8.825
    37   6 C        2.919    -0.030    28.743     8.792
    38   6 C        2.922    -0.047    29.179     8.858
    39   6 C        2.925     0.065    26.553     8.451
    40   6 C        2.922    -0.046    29.137     8.852
    41   6 C        2.919    -0.029    28.728     8.789
    42   6 C        2.919    -0.037    28.919     8.819
    43   6 C        2.920    -0.027    28.676     8.781
    44   6 C        2.922    -0.045    29.116     8.849
    45   6 C        2.920    -0.049    29.212     8.863
    46   6 C        2.921    -0.033    28.818     8.803
    47   6 C        2.922    -0.034    28.846     8.808
    48   6 C        2.917    -0.022    28.557     8.763
    49   6 C        2.977    -0.018    28.441     8.748
    50   6 C        2.995     0.003    27.941     8.671
    51   6 C        3.172     0.150    24.411     8.071
    52   7 N        1.876    -0.306    28.778     7.952
    53   6 C        3.188     0.070    25.977     8.315
    54   6 C        2.911    -0.046    29.143     8.852
    55   6 C        2.922    -0.037    28.923     8.819
    56   6 C        2.927    -0.037    28.919     8.819
    57   6 C        2.908    -0.046    29.148     8.853
    58   6 C        3.066     0.047    26.872     8.500
    59   7 N        2.819    -0.082    22.841     7.098
    60   1 H        0.926     0.055     2.260     2.351
    61   1 H        0.926     0.054     2.272     2.357
    62   1 H        0.926     0.035     2.517     2.481
    63   1 H        0.926     0.041     2.435     2.440
    64   1 H        0.926     0.035     2.521     2.483
    65   1 H        0.926     0.036     2.501     2.473
    66   1 H        0.926     0.035     2.515     2.480
    67   1 H        0.926     0.037     2.489     2.467
    68   1 H        0.926     0.036     2.499     2.472
    69   1 H        0.926     0.038     2.470     2.458
    70   1 H        0.926     0.034     2.537     2.491
    71   1 H        0.926     0.032     2.558     2.501
    72   1 H        0.926     0.033     2.545     2.495
    73   1 H        0.926     0.031     2.570     2.507
    74   1 H        0.926     0.038     2.474     2.459
    75   1 H        0.926     0.041     2.440     2.443
    76   1 H        0.926     0.033     2.539     2.492
    77   1 H        0.926     0.038     2.481     2.463
    78   1 H        0.926     0.033     2.551     2.497
    79   1 H        0.926     0.033     2.538     2.491
    80   1 H        0.926     0.032     2.557     2.501
    81   1 H        0.926     0.034     2.530     2.487
    82   1 H        0.926     0.033     2.547     2.496
    83   1 H        0.926     0.033     2.541     2.493
    84   1 H        0.926     0.035     2.513     2.479
    85   1 H        0.926     0.034     2.535     2.490
    86   1 H        0.926     0.031     2.569     2.506
    87   1 H        0.926     0.034     2.534     2.490
    88   1 H        0.926     0.038     2.476     2.460
    89   1 H        0.926     0.042     2.423     2.434
    90   1 H        0.926     0.055     2.254     2.348
    91   1 H        0.926     0.061     2.183     2.311
    92   1 H        0.926     0.048     2.344     2.394
    93   1 H        0.926     0.044     2.393     2.419
    94   1 H        0.926     0.043     2.411     2.428
    95   1 H        0.926     0.047     2.356     2.400

molecular dipole:
                 x           y           z       tot (Debye)
 q only:        4.192      -0.424      -0.646
   full:        3.999      -0.226      -0.325      10.213

 projected vibrational frequencies (cm⁻¹)
eigval :       -0.00    -0.00     0.00     0.00     0.00     0.00
eigval :       10.12    15.35    19.21    20.65    23.67    30.04
eigval :       36.38    45.17    49.55    53.22    57.53    58.94
eigval :       65.64    69.46    73.80    74.19    78.84    92.70
eigval :      108.12   110.41   116.50   120.57   132.34   149.30
eigval :      160.03   168.74   177.88   189.52   207.42   215.81
eigval :      232.51   235.91   240.20   257.11   275.81   287.62
eigval :      294.91   301.70   310.58   320.81   329.85   334.81
eigval :      346.31   350.02   373.15   377.97   379.95   380.83
eigval :      381.33   383.24   388.19   395.37   402.58   405.35
eigval :      416.68   421.65   435.75   453.56   455.75   474.71
eigval :      484.85   491.44   492.56   500.16   502.76   514.58
eigval :      526.08   545.66   547.65   554.01   582.31   583.66
eigval :      586.06   587.23   591.56   592.50   598.58   604.52
eigval :      611.53   615.63   620.32   623.51   632.69   647.84
eigval :      659.68   662.45   667.29   668.17   679.11   682.98
eigval :      686.38   699.46   707.84   711.50   715.88   739.61
eigval :      748.22   756.07   759.42   761.57   762.99   774.01
eigval :      781.64   790.33   815.63   818.92   842.70   844.80
eigval :      856.02   867.87   870.24   870.79   872.48   873.26
eigval :      874.57   876.23   879.19   891.47   894.40   897.05
eigval :      900.76   900.84   905.53   909.06   909.23   915.34
eigval :      915.79   918.25   920.15   920.27   921.44   925.50
eigval :      926.46   928.07   928.79   929.57   929.77   930.59
eigval :      931.29   933.22   940.39   945.69   978.12   985.36
eigval :      999.50  1003.89  1004.83  1017.11  1034.61  1057.40
eigval :     1072.27  1080.65  1081.56  1082.51  1085.79  1108.55
eigval :     1117.18  1119.79  1120.97  1124.85  1125.21  1139.61
eigval :     1142.22  1145.73  1151.38  1175.24  1177.86  1178.12
eigval :     1179.51  1179.62  1180.11  1183.14  1184.92  1190.95
eigval :     1191.79  1194.41  1195.46  1198.68  1213.37  1214.74
eigval :     1229.15  1253.82  1264.01  1269.46  1270.80  1275.67
eigval :     1276.49  1278.55  1279.57  1281.31  1290.09  1298.22
eigval :     1302.91  1306.32  1313.64  1314.17  1320.60  1321.75
eigval :     1322.82  1323.82  1324.35  1328.19  1330.05  1334.57
eigval :     1352.01  1360.21  1369.74  1394.93  1409.84  1411.40
eigval :     1414.70  1433.98  1434.59  1435.16  1440.09  1440.22
eigval :     1468.07  1468.59  1471.49  1471.78  1476.65  1485.22
eigval :     1488.73  1497.69  1530.97  1542.00  1547.79  1549.86
eigval :     1552.24  1561.28  1576.15  1576.19  1580.00  1580.28
eigval :     1587.59  1590.33  1590.86  1591.15  1592.19  1598.65
eigval :     1598.94  1614.27  1654.87  3072.21  3073.17  3073.36
eigval :     3073.52  3073.81  3076.12  3076.19  3076.69  3077.69
eigval :     3078.46  3079.63  3081.03  3081.35  3082.81  3083.74
eigval :     3084.63  3084.74  3085.43  3085.70  3088.02  3089.33
eigval :     3089.58  3090.08  3090.80  3091.18  3092.17  3092.88
eigval :     3094.09  3094.20  3095.42  3096.38  3097.74  3099.72
eigval :     3104.04  3107.04  3109.01

   temp. (K)  partition function   enthalpy   heat capacity  entropy
                                   cal/mol     cal/K/mol   cal/K/mol   J/K/mol
 298.15  VIB  0.133E+22            27309.370    173.327    170.188
         ROT  0.147E+09              888.752      2.981     40.350
         INT  0.195E+30            28198.122    176.308    210.538
         TR   0.201E+29             1481.254      4.968     45.731
         TOT                       29679.3764   181.2757   256.2687  1072.2281

       T/K    H(0)-H(T)+PV         H(T)/Eh          T*S/Eh         G(T)/Eh
   ------------------------------------------------------------------------
    298.15    0.472971E-01    0.774373E+00    0.121762E+00    0.652611E+00
   ------------------------------------------------------------------------

         :::::::::::::::::::::::::::::::::::::::::::::::::::::
         ::                  THERMODYNAMIC                  ::
         :::::::::::::::::::::::::::::::::::::::::::::::::::::
         :: total free energy        -149.241057520604 Eh   ::
         ::.................................................::
         :: total energy             -149.893668578874 Eh   ::
         :: zero point energy           0.727075472849 Eh   ::
         :: G(RRHO) w/o ZPVE           -0.074464414579 Eh   ::
         :: G(RRHO) contrib.            0.652611058270 Eh   ::
         :::::::::::::::::::::::::::::::::::::::::::::::::::::

           -------------------------------------------------
          | TOTAL ENERGY             -149.893668578874 Eh   |
          | TOTAL ENTHALPY           -149.119296009219 Eh   |
          | TOTAL FREE ENERGY        -149.241057520604 Eh   |
          | GRADIENT NORM               0.000038965082 Eh/α |
          | HOMO-LUMO GAP               1.095052703012 eV   |
           -------------------------------------------------

 * finished run on 2025/07/20 at 00:53:48.453
