   * xtb version 6.7.1 (edcfbbe) compiled by 'albert@albert-system' on 2024-07-22

   ID    Z sym.   atoms
    1    6 C      1-14, 16-22, 25-31, 33-46
    2    7 N      15, 23, 24, 32
    3    8 O      47
    4    1 H      48-79

          program call               : xtb data2507/gas/3,6-MeCzOXD/3,6-MeCzOXD_gas_T1_crest.xyz --gfn 2 --spinpol --tblite --uhf 2 --ohess vtight --parallel 40 --molden --ceasefiles --namespace data2507/gas/3,6-MeCzOXD/3,6-MeCzOXD_gas_T1_finalOpt
 * total energy  :  -122.0441213 Eh     change       -0.5540234E-07 Eh
 * total energy  :  -122.0441279 Eh     change       -0.6548285E-05 Eh
 * total energy  :  -122.0441316 Eh     change       -0.3754799E-05 Eh
 * total energy  :  -122.0441327 Eh     change       -0.1093352E-05 Eh
 * total energy  :  -122.0441336 Eh     change       -0.8606224E-06 Eh
 * total energy  :  -122.0441346 Eh     change       -0.9874651E-06 Eh
 * total energy  :  -122.0441359 Eh     change       -0.1356940E-05 Eh
 * total energy  :  -122.0441373 Eh     change       -0.1406722E-05 Eh
 * total energy  :  -122.0441388 Eh     change       -0.1505481E-05 Eh
 * total energy  :  -122.0441407 Eh     change       -0.1812897E-05 Eh
 * total energy  :  -122.0441472 Eh     change       -0.4215892E-06 Eh
 * total energy  :  -122.0441477 Eh     change       -0.5112725E-06 Eh
 * total energy  :  -122.0441482 Eh     change       -0.4877443E-06 Eh
 * total energy  :  -122.0441485 Eh     change       -0.3302686E-06 Eh
 * total energy  :  -122.0441488 Eh     change       -0.2739601E-06 Eh
 * total energy  :  -122.0441490 Eh     change       -0.1921274E-06 Eh
 * total energy  :  -122.0441492 Eh     change       -0.1825179E-06 Eh
 * total energy  :  -122.0441493 Eh     change       -0.1277446E-06 Eh
 * total energy  :  -122.0441493 Eh     change       -0.1751977E-07 Eh
   *** GEOMETRY OPTIMIZATION CONVERGED AFTER 33 ITERATIONS ***

 final structure:
================
79
 xtb: 6.7.1 (edcfbbe)
C           -6.71520794346623        3.48234862198689        1.27532385717590
C           -5.87216708245138        2.27928900631894        0.97900671997604
C           -5.95047537375214        1.16212164179558        1.81759609744954
C           -5.19944066455698        0.02442739958074        1.59931337273398
C           -4.35243391888660        0.00795331429733        0.49968772679305
C           -4.24393790459333        1.13419435597534       -0.34976468680582
C           -5.00635625618056        2.26520381929591       -0.10500880341361
C           -3.25460485450350        0.80142546843566       -1.34069360018969
C           -2.69576591626578        1.49289491615415       -2.40298422069825
C           -1.72631445071717        0.87509890712400       -3.18057055332342
C           -1.05796873549223        1.61983956046289       -4.29593973407526
C           -1.35546898080229       -0.44523341928194       -2.90460521443631
C           -1.89363539049770       -1.15605398054917       -1.85142360698912
C           -2.82404360859032       -0.51290665332702       -1.04477341833403
N           -3.48435284730307       -0.97338325879633        0.07375257252515
C           -3.23339220728607       -2.18682703438350        0.72182323148196
C           -4.27747521946032       -3.06326113740228        0.97051962730391
C           -4.04346276360707       -4.30311381468183        1.53789206384899
C           -2.73306910399140       -4.68735184971986        1.85113866517127
C           -1.68739448288319       -3.83205579509296        1.63867317435853
C           -1.90301295431846       -2.53686104852496        1.10936698452449
C           -0.82795504372909       -1.63311488643840        1.04722462159062
N            0.46690013814205       -1.93126642549012        1.18693678334710
N            1.16335125435884       -0.86091309664794        0.96062594042683
C            0.32736436245699        0.14293415502167        0.68430854890960
C            0.62010539372254        1.46758358144218        0.32600778948440
C           -0.42124686764773        2.42508536421163        0.24509565117248
C           -0.14484076619640        3.75129148955625        0.05671591865666
C            1.17763230247289        4.19332558086778       -0.06671627867779
C            2.21240469075527        3.27284739310680       -0.04077257010020
C            1.95869695459768        1.92079916206483        0.11736354924507
N            3.00902281532259        1.00482803497280        0.03680610295799
C            3.08011510217908       -0.05532494428822       -0.84175081876919
C            2.19799276548791       -0.43235625808585       -1.84505887534521
C            2.53072669013966       -1.52807542164721       -2.61449130575646
C            3.71748996290605       -2.24274855145400       -2.42117811207137
C            4.00622335818298       -3.43860747779180       -3.27677561960595
C            4.60977046784342       -1.83939635995176       -1.43775715017265
C            4.29808632800993       -0.74412165785212       -0.64925628261528
C            4.99007108175399       -0.05550256930122        0.40948011032725
C            6.20213390717610       -0.25478994259880        1.04798147138780
C            6.58462407473045        0.60868059991109        2.06638739098660
C            7.88655896344495        0.42204834039817        2.78376932259495
C            5.73740491799273        1.65715853903426        2.44201039983816
C            4.52334368014365        1.87725943440564        1.82391163678719
C            4.15536768423174        1.02113053059458        0.79346882345770
O           -0.97946528175811       -0.29432812186812        0.76116062248473
H           -6.59498428264149        4.24200110950858        0.50727020575246
H           -6.43486650692209        3.91365799750021        2.23613580569763
H           -7.76733516840028        3.20597000903760        1.33138316601992
H           -6.61897382820378        1.19737853223627        2.66560560104746
H           -5.26188106667366       -0.82030370965804        2.26826122757913
H           -4.92240108708885        3.12742431935676       -0.75022378839394
H           -3.00432234280064        2.50526275091639       -2.61830806951614
H           -1.69835581643231        2.41372998496415       -4.67283948008718
H           -0.13382129856552        2.07504048623540       -3.93552090082923
H           -0.80407819494700        0.95058232134922       -5.11517503048745
H           -0.62122881933810       -0.92164150627421       -3.53798717322164
H           -1.58538969424351       -2.17132621753803       -1.65001553200303
H           -5.27717192717554       -2.77984743754135        0.67293680968820
H           -4.86386764978662       -4.98249231403962        1.70789231505999
H           -2.55313056360209       -5.66708625709975        2.26778888844534
H           -0.67313516255208       -4.10208451014429        1.88599622383242
H           -1.43776977371476        2.08130930658477        0.35809381297610
H           -0.95218635517890        4.46684808097156        0.00702209005302
H            1.38947169046044        5.24058675237471       -0.21434915097784
H            3.23254675233410        3.59703016383564       -0.19076006351206
H            1.27721242798515        0.10671167575889       -2.01070416064848
H            1.85655481310388       -1.85083825427494       -3.39493607011275
H            3.33563102183586       -4.25668862441603       -3.01331994919364
H            5.02984194070455       -3.77792992217246       -3.14090755150268
H            3.84945646782551       -3.20684913226189       -4.32915686889399
H            5.53718233118960       -2.37260731941586       -1.28919068509112
H            6.84097571054360       -1.07686574869761        0.76095736244465
H            8.48272283185308       -0.35642297713987        2.31497289062415
H            7.70743285605046        0.14155312897761        3.82168862655896
H            8.45880796256326        1.34871599123069        2.78602003886589
H            6.04680643637618        2.30977486733826        3.24555973767089
H            3.87562883243108        2.68183786976240        2.13706392903518

 projected vibrational frequencies (cm⁻¹)
eigval :       -0.00    -0.00     0.00     0.00     0.00     0.00
eigval :       10.84    16.22    18.32    21.91    23.41    27.52
eigval :       31.81    33.61    36.19    45.56    55.24    62.88
eigval :       69.75    86.00    90.31    93.48    98.57   101.71
eigval :      111.22   118.35   135.60   136.78   148.89   170.20
eigval :      183.99   194.70   216.78   220.98   222.30   246.43
eigval :      259.15   274.04   283.73   297.91   303.30   311.56
eigval :      316.75   322.62   333.37   358.03   362.88   388.85
eigval :      390.36   392.69   396.17   402.52   414.08   418.27
eigval :      420.61   421.53   433.43   446.20   456.12   460.08
eigval :      486.74   487.60   490.62   521.19   543.74   555.89
eigval :      563.33   572.18   573.94   574.59   576.74   582.48
eigval :      583.33   617.50   619.42   623.41   636.22   658.05
eigval :      666.68   673.06   673.46   677.21   678.25   703.01
eigval :      707.27   707.83   736.89   740.40   749.60   754.53
eigval :      797.88   798.22   812.44   813.65   814.42   816.06
eigval :      847.18   855.58   869.50   869.66   870.36   871.02
eigval :      892.35   897.15   898.96   900.71   908.80   910.94
eigval :      911.12   912.26   913.25   913.99   914.47   915.12
eigval :      925.97   926.51   953.68   954.32  1008.67  1008.92
eigval :     1012.91  1015.54  1017.09  1027.64  1027.76  1028.99
eigval :     1029.40  1029.53  1038.18  1038.77  1066.33  1074.12
eigval :     1097.92  1108.53  1141.65  1144.59  1147.68  1150.78
eigval :     1165.15  1170.26  1170.49  1172.90  1183.75  1190.24
eigval :     1203.31  1203.74  1204.49  1212.43  1229.14  1236.17
eigval :     1246.18  1249.31  1252.53  1253.50  1277.23  1283.32
eigval :     1285.01  1285.94  1291.74  1322.19  1331.07  1339.61
eigval :     1344.56  1352.31  1357.61  1359.38  1369.46  1370.18
eigval :     1389.70  1391.65  1402.00  1402.60  1403.82  1404.20
eigval :     1414.07  1414.83  1417.11  1421.26  1436.26  1437.68
eigval :     1461.43  1463.16  1473.68  1474.72  1477.78  1479.11
eigval :     1479.58  1482.22  1485.12  1485.68  1487.11  1487.35
eigval :     1498.38  1499.29  1522.39  1548.31  1561.87  1562.82
eigval :     1566.36  1575.42  1576.45  1581.44  1584.39  1601.59
eigval :     1605.40  2985.75  3000.43  3001.48  3001.90  3017.23
eigval :     3018.60  3019.86  3032.03  3038.43  3045.36  3046.03
eigval :     3046.85  3074.50  3074.69  3074.87  3078.38  3079.50
eigval :     3079.59  3080.30  3080.71  3081.47  3083.64  3083.99
eigval :     3084.95  3088.43  3090.03  3093.33  3094.03  3097.66
eigval :     3098.69  3103.19  3110.08

   temp. (K)  partition function   enthalpy   heat capacity  entropy
                                   cal/mol     cal/K/mol   cal/K/mol   J/K/mol
 298.15  VIB  0.381E+20            23803.211    143.339    150.224
         ROT  0.563E+08              888.752      2.981     38.445
         INT  0.215E+28            24691.963    146.320    188.669
         TR   0.145E+29             1481.254      4.968     45.081
         TOT                       26173.2169   151.2884   233.7506   978.0125

       T/K    H(0)-H(T)+PV         H(T)/Eh          T*S/Eh         G(T)/Eh
   ------------------------------------------------------------------------
    298.15    0.417097E-01    0.650857E+00    0.111062E+00    0.539795E+00
   ------------------------------------------------------------------------

         :::::::::::::::::::::::::::::::::::::::::::::::::::::
         ::                  THERMODYNAMIC                  ::
         :::::::::::::::::::::::::::::::::::::::::::::::::::::
         :: total free energy        -121.504354448484 Eh   ::
         ::.................................................::
         :: total energy             -122.044149296990 Eh   ::
         :: zero point energy           0.609147627060 Eh   ::
         :: G(RRHO) w/o ZPVE           -0.069352778555 Eh   ::
         :: G(RRHO) contrib.            0.539794848505 Eh   ::
         :::::::::::::::::::::::::::::::::::::::::::::::::::::

           -------------------------------------------------
          | TOTAL ENERGY             -122.044149296990 Eh   |
          | TOTAL ENTHALPY           -121.393291993813 Eh   |
          | TOTAL FREE ENERGY        -121.504354448484 Eh   |
          | GRADIENT NORM               0.000090890861 Eh/α |
           -------------------------------------------------

 * finished run on 2025/08/25 at 07:12:12.415
