   * xtb version 6.7.1 (edcfbbe) compiled by 'albert@albert-system' on 2024-07-22

   ID    Z sym.   atoms
    1    6 C      1-14, 16-22, 25-31, 33-46
    2    7 N      15, 23, 24, 32
    3    8 O      47
    4    1 H      48-79

          program call               : xtb data2507/gas/3,6-MeCzOXD/3,6-MeCzOXD.xyz --gfn 2 --ohess vtight --parallel 40 --molden --ceasefiles --namespace data2507/gas/3,6-MeCzOXD/3,6-MeCzOXD_gas_S0_preOpt
          :  Hamiltonian                  GFN2-xTB          :
 * total energy  :  -122.0985640 Eh     change       -0.1601606E-08 Eh
 * total energy  :  -122.1151723 Eh     change       -0.1660835E-01 Eh
 * total energy  :  -122.1190756 Eh     change       -0.3903245E-02 Eh
 * total energy  :  -122.1200373 Eh     change       -0.9617604E-03 Eh
 * total energy  :  -122.1208578 Eh     change       -0.8204665E-03 Eh
 * total energy  :  -122.1213543 Eh     change       -0.4964874E-03 Eh
 * total energy  :  -122.1217880 Eh     change       -0.4336948E-03 Eh
 * total energy  :  -122.1220284 Eh     change       -0.2404365E-03 Eh
 * total energy  :  -122.1221611 Eh     change       -0.1326853E-03 Eh
 * total energy  :  -122.1222674 Eh     change       -0.1062913E-03 Eh
 * total energy  :  -122.1243315 Eh     change       -0.5295586E-06 Eh
 * total energy  :  -122.1243319 Eh     change       -0.4930602E-06 Eh
 * total energy  :  -122.1243324 Eh     change       -0.4154960E-06 Eh
 * total energy  :  -122.1243327 Eh     change       -0.3157704E-06 Eh
 * total energy  :  -122.1243330 Eh     change       -0.2857135E-06 Eh
 * total energy  :  -122.1243333 Eh     change       -0.3313194E-06 Eh
 * total energy  :  -122.1243337 Eh     change       -0.4392716E-06 Eh
 * total energy  :  -122.1243342 Eh     change       -0.4844263E-06 Eh
 * total energy  :  -122.1243342 Eh     change       -0.2708788E-08 Eh
   *** GEOMETRY OPTIMIZATION CONVERGED AFTER 122 ITERATIONS ***

 final structure:
================
79
 xtb: 6.7.1 (edcfbbe)
C           -6.79811925779120       -0.03022741544281        3.48905645481357
C           -5.91056568806011       -0.31612998021110        2.31406265239136
C           -5.63285242959848       -1.64400620421576        1.97184508339403
C           -4.82722755721029       -1.97606272061098        0.90132420899736
C           -4.29386457671950       -0.94149958137962        0.14724607365882
C           -4.54513409991713        0.40550217413566        0.48633873621120
C           -5.35680968642081        0.71109742039992        1.57120196077112
C           -3.81531119849246        1.20655580220078       -0.45664588319113
C           -3.66298916554126        2.57709326210904       -0.62869868735003
C           -2.85892301124722        3.04704928106889       -1.65155988822336
C           -2.63273483878513        4.51724211616864       -1.84142970803087
C           -2.23822129466185        2.13853248479472       -2.51597258595174
C           -2.38133296429201        0.77311689027941       -2.37564259953186
C           -3.15443102294780        0.30722587698550       -1.32177651575292
N           -3.44524407308476       -0.98948962597424       -0.94288832701725
C           -2.97726183680568       -2.15725222622907       -1.55412508368089
C           -3.89683403464734       -3.10584240200929       -1.99448447644701
C           -3.47486095658569       -4.25598190806664       -2.63225165943034
C           -2.12247892134429       -4.47095411713880       -2.85796257989086
C           -1.19772374460863       -3.54573839521676       -2.42086023640869
C           -1.60728528586169       -2.39236750120013       -1.74948508506175
C           -0.57895651484183       -1.49551313856670       -1.26906151501656
N            0.65872560289477       -1.47474397278203       -1.67477656954792
N            1.28701185622428       -0.51524395893465       -0.99030084904850
C            0.41713607531451        0.01936549031974       -0.18308475562051
C            0.59446332010315        1.15172653278832        0.69712962093749
C           -0.52765246309560        1.88308346615004        1.08522288017761
C           -0.38977763575309        3.04337181805765        1.81909427565897
C            0.87455831757132        3.48444547866728        2.18126540954802
C            1.99256420587244        2.74944624849570        1.83604982042353
C            1.87295272058459        1.57202716645974        1.10130187913279
N            3.00960543270478        0.82281181895793        0.80917614762655
C            4.15974670151963        1.30052438541796        0.20869534269069
C            4.45111133383908        2.56933114028981       -0.26824912479856
C            5.68748373981219        2.77328995986028       -0.84842919813907
C            6.63099491021248        1.74869762588021       -0.97255828708603
C            7.95724240771197        2.04280644999860       -1.60964540995409
C            6.32396154104759        0.47869445943559       -0.51661241822693
C            5.08828269642026        0.24662311081412        0.07213626287663
C            4.46295381890200       -0.92292582618142        0.62457310613110
C            4.88122976329677       -2.23590892415164        0.79332508305211
C            4.03469771133009       -3.14495549688870        1.40212453236846
C            4.43994871077413       -4.57791968782170        1.58534041555803
C            2.78236994384002       -2.72255527578454        1.85905515363461
C            2.34460047261087       -1.42262787138314        1.70660446571331
C            3.18273081946034       -0.52493071762989        1.06290071142929
O           -0.79513885242307       -0.56777215246474       -0.31051381267667
H           -7.78069430413550       -0.47721495956306        3.34135121594973
H           -6.92269339470096        1.04021302226345        3.63116124653349
H           -6.37397954871625       -0.45408296116163        4.39882657724800
H           -6.06300919181713       -2.43375681844095        2.57103566774788
H           -4.61475460885806       -3.00858304902371        0.66683093132752
H           -5.54932942360533        1.74197043854653        1.83026927141988
H           -4.16420291927453        3.26478208524557        0.03679162385367
H           -1.60733694943405        4.77546966168321       -1.57502128534847
H           -2.78801335140759        4.79964039198229       -2.88132821608219
H           -3.30656630158823        5.09854585675919       -1.21700239030769
H           -1.62584922273868        2.52180435843158       -3.31931176411121
H           -1.89763289194100        0.09310307917690       -3.06247219222153
H           -4.94956712740974       -2.91640290980255       -1.84558093012051
H           -4.20299601615471       -4.97890618144651       -2.96812223671231
H           -1.79366383439155       -5.36180719288874       -3.37019667750406
H           -0.14014654230450       -3.69146320038637       -2.57301205353313
H           -1.50555500678704        1.54364641281616        0.78083421381265
H           -1.26574960705066        3.60620423259071        2.10184887500685
H            0.98799189575568        4.39519361035644        2.75021142296581
H            2.97492933051945        3.06867571667488        2.15039538749209
H            3.73314366284899        3.37316597089646       -0.20135257508534
H            5.93704347191575        3.75554528635871       -1.22407959226248
H            8.58515640274014        1.15573761634382       -1.62667445398767
H            8.47864702924444        2.82677293868652       -1.06114564637984
H            7.81909359988736        2.38918079016052       -2.63341660614643
H            7.03468847023035       -0.32794667931536       -0.62064890361574
H            5.85961396868412       -2.54104540488047        0.45222224540163
H            4.34773876017165       -4.87246727451720        2.63007070833053
H            5.46804524221988       -4.73416601269107        1.26898436721507
H            3.79516383666012       -5.23076348729832        0.99723433137435
H            2.13957093526882       -3.44069419806591        2.34876182040800
H            1.37827464486896       -1.11936249888851        2.08448259615899

          :  Hamiltonian                  GFN2-xTB          :
         :: gradient norm              0.000035939892 Eh/a0 ::
         :: HOMO-LUMO gap              1.895336979407 eV    ::
         :: SCC energy              -124.270233816109 Eh    ::
         :: -> dispersion             -0.113290859586 Eh    ::
         :: repulsion energy           2.145899596420 Eh    ::

    * Orbital Energies and Occupations

         #    Occupation            Energy/Eh            Energy/eV
      -------------------------------------------------------------
         1        2.0000           -0.7650182             -20.8172
       ...           ...                  ...                  ...
       101        2.0000           -0.4153661             -11.3027
       102        2.0000           -0.4117883             -11.2053
       103        2.0000           -0.4101367             -11.1604
       104        2.0000           -0.4082356             -11.1087
       105        2.0000           -0.4054949             -11.0341
       106        2.0000           -0.3980332             -10.8310
       107        2.0000           -0.3954713             -10.7613
       108        2.0000           -0.3875245             -10.5451
       109        2.0000           -0.3819803             -10.3942
       110        2.0000           -0.3755590             -10.2195
       111        2.0000           -0.3648858              -9.9290
       112        2.0000           -0.3597354              -9.7889
       113        2.0000           -0.3501376              -9.5277 (HOMO)
       114                         -0.2804852              -7.6324 (LUMO)
       115                         -0.2572780              -7.0009
       116                         -0.2458916              -6.6911
       117                         -0.2396722              -6.5218
       118                         -0.2392985              -6.5116
       119                         -0.2310883              -6.2882
       120                         -0.2187539              -5.9526
       121                         -0.2082842              -5.6677
       122                         -0.1919885              -5.2243
       123                         -0.1902356              -5.1766
       124                         -0.1856451              -5.0517
       ...                                ...                  ...
       220                          0.7549660              20.5437
      -------------------------------------------------------------
                  HL-Gap            0.0696523 Eh            1.8953 eV

     #   Z          covCN         q      C6AA      α(0)
     1   6 C        3.758    -0.107    22.604     6.778
     2   6 C        2.966     0.007    27.858     8.657
     3   6 C        2.930    -0.043    29.065     8.841
     4   6 C        2.908    -0.052    29.291     8.874
     5   6 C        3.078     0.044    26.933     8.508
     6   6 C        3.066    -0.018    28.394     8.738
     7   6 C        2.917    -0.043    29.076     8.842
     8   6 C        3.067    -0.018    28.400     8.738
     9   6 C        2.917    -0.044    29.090     8.844
    10   6 C        2.966     0.007    27.865     8.658
    11   6 C        3.758    -0.107    22.594     6.777
    12   6 C        2.930    -0.042    29.048     8.839
    13   6 C        2.908    -0.048    29.201     8.861
    14   6 C        3.076     0.048    26.855     8.496
    15   7 N        2.802    -0.043    22.067     6.977
    16   6 C        2.912     0.069    26.462     8.435
    17   6 C        2.923    -0.041    29.026     8.835
    18   6 C        2.918    -0.025    28.627     8.774
    19   6 C        2.917    -0.029    28.733     8.790
    20   6 C        2.928    -0.028    28.698     8.785
    21   6 C        2.974    -0.017    28.420     8.745
    22   6 C        3.176     0.219    23.059     7.842
    23   7 N        2.052    -0.200    26.072     7.574
    24   7 N        2.049    -0.197    26.000     7.564
    25   6 C        3.176     0.221    23.022     7.835
    26   6 C        2.974    -0.018    28.460     8.751
    27   6 C        2.926    -0.027    28.667     8.781
    28   6 C        2.918    -0.032    28.806     8.801
    29   6 C        2.918    -0.025    28.636     8.775
    30   6 C        2.923    -0.042    29.034     8.836
    31   6 C        2.913     0.070    26.434     8.431
    32   7 N        2.803    -0.034    21.896     6.950
    33   6 C        3.078     0.045    26.899     8.503
    34   6 C        2.909    -0.051    29.265     8.871
    35   6 C        2.930    -0.043    29.077     8.843
    36   6 C        2.966     0.007    27.857     8.657
    37   6 C        3.758    -0.108    22.606     6.779
    38   6 C        2.918    -0.042    29.036     8.836
    39   6 C        3.067    -0.013    28.268     8.718
    40   6 C        3.068    -0.011    28.221     8.711
    41   6 C        2.918    -0.041    29.010     8.832
    42   6 C        2.966     0.009    27.826     8.652
    43   6 C        3.758    -0.107    22.598     6.777
    44   6 C        2.930    -0.042    29.035     8.837
    45   6 C        2.909    -0.047    29.162     8.855
    46   6 C        3.077     0.048    26.842     8.494
    47   8 O        1.723    -0.225    17.722     5.684
    48   1 H        0.925     0.043     2.409     2.427
    49   1 H        0.925     0.039     2.459     2.452
    50   1 H        0.925     0.043     2.409     2.427
    51   1 H        0.926     0.030     2.584     2.514
    52   1 H        0.926     0.025     2.653     2.547
    53   1 H        0.926     0.030     2.587     2.515
    54   1 H        0.926     0.029     2.594     2.519
    55   1 H        0.924     0.043     2.410     2.428
    56   1 H        0.925     0.043     2.408     2.427
    57   1 H        0.925     0.039     2.456     2.451
    58   1 H        0.926     0.031     2.574     2.509
    59   1 H        0.926     0.021     2.718     2.578
    60   1 H        0.926     0.048     2.346     2.395
    61   1 H        0.926     0.044     2.392     2.419
    62   1 H        0.926     0.046     2.366     2.405
    63   1 H        0.926     0.065     2.136     2.285
    64   1 H        0.926     0.052     2.296     2.369
    65   1 H        0.926     0.043     2.414     2.429
    66   1 H        0.926     0.043     2.409     2.427
    67   1 H        0.926     0.050     2.326     2.385
    68   1 H        0.926     0.025     2.660     2.551
    69   1 H        0.926     0.029     2.596     2.520
    70   1 H        0.925     0.039     2.459     2.452
    71   1 H        0.925     0.042     2.428     2.437
    72   1 H        0.925     0.043     2.408     2.427
    73   1 H        0.926     0.032     2.558     2.501
    74   1 H        0.926     0.033     2.547     2.496
    75   1 H        0.925     0.041     2.436     2.441
    76   1 H        0.925     0.040     2.453     2.449
    77   1 H        0.925     0.044     2.400     2.423
    78   1 H        0.926     0.028     2.622     2.532
    79   1 H        0.926     0.014     2.827     2.630

molecular dipole:
                 x           y           z       tot (Debye)
 q only:       -0.568       0.090       0.345
   full:       -1.201       0.180       0.566       3.405

 projected vibrational frequencies (cm⁻¹)
eigval :       -0.00    -0.00    -0.00     0.00     0.00     0.00
eigval :        4.99    10.56    17.94    20.57    31.18    37.03
eigval :       38.96    41.37    45.17    49.64    57.57    63.64
eigval :       65.77    82.79    90.98    92.21    97.75   101.70
eigval :      106.03   115.28   133.47   140.89   153.44   172.74
eigval :      178.73   204.29   224.66   225.51   227.05   243.98
eigval :      271.74   279.45   283.31   300.75   303.16   321.96
eigval :      323.77   333.85   340.12   357.00   361.42   382.68
eigval :      394.08   394.85   397.86   404.48   423.83   427.11
eigval :      430.35   431.95   444.76   460.93   464.56   479.16
eigval :      490.87   503.55   503.72   526.91   545.06   548.42
eigval :      573.41   573.78   575.24   578.18   582.62   583.12
eigval :      624.26   624.46   633.13   645.86   671.11   671.17
eigval :      677.56   680.80   688.21   706.92   707.43   710.36
eigval :      720.35   726.20   739.15   743.08   784.44   786.88
eigval :      803.19   803.85   812.00   812.39   814.96   815.59
eigval :      873.01   873.37   875.62   876.23   887.05   890.64
eigval :      909.74   911.61   912.69   914.63   916.89   917.23
eigval :      918.12   922.35   927.47   928.58   930.39   930.72
eigval :      954.39   955.89   974.39   975.71  1010.21  1010.47
eigval :     1017.03  1017.47  1033.56  1033.68  1033.86  1033.88
eigval :     1040.62  1040.70  1048.25  1071.13  1088.99  1093.85
eigval :     1123.13  1128.74  1146.15  1154.04  1157.71  1157.81
eigval :     1174.77  1175.01  1176.80  1179.09  1187.94  1201.64
eigval :     1202.75  1204.55  1204.63  1233.11  1245.43  1250.45
eigval :     1251.53  1257.41  1257.95  1274.70  1294.38  1296.22
eigval :     1305.26  1310.99  1311.97  1318.62  1324.65  1353.80
eigval :     1355.48  1362.52  1364.00  1370.87  1373.20  1404.54
eigval :     1405.20  1405.80  1406.19  1414.85  1415.90  1423.45
eigval :     1430.68  1437.96  1440.96  1464.86  1476.98  1478.82
eigval :     1479.73  1480.04  1480.62  1483.30  1483.60  1483.95
eigval :     1484.11  1496.52  1497.31  1505.36  1505.68  1527.56
eigval :     1538.80  1562.35  1563.98  1573.25  1575.22  1584.88
eigval :     1586.22  1587.31  1587.76  1608.67  1609.15  1620.49
eigval :     1621.11  2996.94  3001.03  3001.96  3002.87  3014.91
eigval :     3015.48  3015.94  3022.18  3042.67  3044.87  3044.99
eigval :     3045.18  3062.90  3071.53  3072.22  3074.62  3076.90
eigval :     3077.47  3079.03  3081.16  3082.29  3083.31  3084.48
eigval :     3085.59  3086.44  3087.23  3093.80  3094.82  3100.09
eigval :     3100.82  3110.54  3114.79

   temp. (K)  partition function   enthalpy   heat capacity  entropy
                                   cal/mol     cal/K/mol   cal/K/mol   J/K/mol
 298.15  VIB  0.316E+20            23462.478    141.911    149.640
         ROT  0.600E+08              888.752      2.981     38.574
         INT  0.190E+28            24351.231    144.891    188.214
         TR   0.145E+29             1481.254      4.968     45.081
         TOT                       25832.4846   149.8596   233.2953   976.1074

       T/K    H(0)-H(T)+PV         H(T)/Eh          T*S/Eh         G(T)/Eh
   ------------------------------------------------------------------------
    298.15    0.411667E-01    0.655400E+00    0.110846E+00    0.544554E+00
   ------------------------------------------------------------------------

         :::::::::::::::::::::::::::::::::::::::::::::::::::::
         ::                  THERMODYNAMIC                  ::
         :::::::::::::::::::::::::::::::::::::::::::::::::::::
         :: total free energy        -121.579780271749 Eh   ::
         ::.................................................::
         :: total energy             -122.124334219688 Eh   ::
         :: zero point energy           0.614233376326 Eh   ::
         :: G(RRHO) w/o ZPVE           -0.069679428387 Eh   ::
         :: G(RRHO) contrib.            0.544553947939 Eh   ::
         :::::::::::::::::::::::::::::::::::::::::::::::::::::

           -------------------------------------------------
          | TOTAL ENERGY             -122.124334219688 Eh   |
          | TOTAL ENTHALPY           -121.468934158775 Eh   |
          | TOTAL FREE ENERGY        -121.579780271749 Eh   |
          | GRADIENT NORM               0.000035946777 Eh/α |
          | HOMO-LUMO GAP               1.895336213893 eV   |
           -------------------------------------------------

 * finished run on 2025/08/25 at 07:00:59.351
