   * xtb version 6.7.1 (edcfbbe) compiled by 'albert@albert-system' on 2024-07-22

   ID    Z sym.   atoms
    1    6 C      1-14, 16-22, 25-31, 33-46
    2    7 N      15, 23, 24, 32
    3    8 O      47
    4    1 H      48-79

          program call               : xtb data2507/gas/3,6-MeCzOXD/3,6-MeCzOXD_gas_S0_crest.xyz --gfn 2 --ohess vtight --parallel 40 --molden --ceasefiles --namespace data2507/gas/3,6-MeCzOXD/3,6-MeCzOXD_gas_S0_finalOpt
          :  Hamiltonian                  GFN2-xTB          :
 * total energy  :  -122.1260565 Eh     change       -0.1135376E-08 Eh
 * total energy  :  -122.1260577 Eh     change       -0.1243577E-05 Eh
 * total energy  :  -122.1260589 Eh     change       -0.1206376E-05 Eh
 * total energy  :  -122.1260614 Eh     change       -0.2462792E-05 Eh
 * total energy  :  -122.1260624 Eh     change       -0.9809506E-06 Eh
 * total energy  :  -122.1260640 Eh     change       -0.1584333E-05 Eh
 * total energy  :  -122.1260655 Eh     change       -0.1555472E-05 Eh
 * total energy  :  -122.1260670 Eh     change       -0.1436761E-05 Eh
 * total energy  :  -122.1260687 Eh     change       -0.1759884E-05 Eh
 * total energy  :  -122.1260703 Eh     change       -0.1614884E-05 Eh
 * total energy  :  -122.1260765 Eh     change       -0.1640494E-05 Eh
 * total energy  :  -122.1260778 Eh     change       -0.1321617E-05 Eh
 * total energy  :  -122.1260787 Eh     change       -0.8456058E-06 Eh
 * total energy  :  -122.1260774 Eh     change        0.1306356E-05 Eh
 * total energy  :  -122.1260797 Eh     change       -0.2310139E-05 Eh
 * total energy  :  -122.1260795 Eh     change        0.1594209E-06 Eh
 * total energy  :  -122.1260801 Eh     change       -0.5343224E-06 Eh
 * total energy  :  -122.1260803 Eh     change       -0.2584372E-06 Eh
 * total energy  :  -122.1260803 Eh     change       -0.4465250E-08 Eh
   *** GEOMETRY OPTIMIZATION CONVERGED AFTER 22 ITERATIONS ***

 final structure:
================
79
 xtb: 6.7.1 (edcfbbe)
C           -6.00956205265570        4.11432987838515        0.65028987977464
C           -5.36557201056288        2.76496880473626        0.52678858158953
C           -5.61802751461988        1.79318473891722        1.50124197954182
C           -5.05738406584329        0.53272510618258        1.44677740278768
C           -4.22529363266547        0.24169851808534        0.37689477915236
C           -3.94578896344157        1.21063209658220       -0.61190858662936
C           -4.52213180714860        2.47174619292007       -0.53012841221641
C           -3.02639547943193        0.60217658262149       -1.53350651099317
C           -2.37610031849271        1.05178339832063       -2.67577738869913
C           -1.51806816013013        0.19879097441129       -3.34632465153858
C           -0.78007212432316        0.64732899809722       -4.57283623351178
C           -1.33261451080128       -1.10683459522669       -2.87724524312398
C           -1.95671110842291       -1.57696890074021       -1.74020918948796
C           -2.79460748868109       -0.70634417025655       -1.05930506549888
N           -3.52479666678544       -0.91509871077609        0.09536145432017
C           -3.39022652274538       -2.01922277123458        0.94776576178373
C           -4.50646969834695       -2.78031136779824        1.27501365281473
C           -4.38112166892864       -3.89937249519260        2.07718648941516
C           -3.13401402718662       -4.28422323194586        2.54828163631970
C           -2.01880968979084       -3.52826645570181        2.24783254147644
C           -2.13563427851380       -2.37878592079092        1.46745498137245
C           -0.95915580116839       -1.56580540112673        1.24603377270166
N            0.28265929511412       -1.92284329231189        1.40828423407750
N            1.04426846750372       -0.86868413182958        1.09746494867985
C            0.24543257586807        0.10283273474900        0.75859622951875
C            0.55655812391171        1.45178116772087        0.34745639058227
C           -0.47830781065991        2.38781612937411        0.29508412927135
C           -0.22032261645658        3.70636719627726       -0.01571851915186
C            1.08123478220145        4.11263552652760       -0.27284369363404
C            2.11148269303834        3.19290607055603       -0.25109866652054
C            1.86747611939292        1.85237478821798        0.04013358871910
N            2.92094518202143        0.94226317443508       -0.00365749592226
C            2.97463579255565       -0.20808944220426       -0.76732386379561
C            2.05621507842637       -0.71407185825637       -1.67428230767917
C            2.38525664258561       -1.87556511757913       -2.34286858212592
C            3.60139006464757       -2.53531314366733       -2.14117826763917
C            3.88356589115527       -3.80401270479748       -2.89107651095364
C            4.52546685945357       -2.00804721779174       -1.25722315691805
C            4.22005468608188       -0.84087895668708       -0.57053733348787
C            4.94800146984697       -0.03131421653573        0.36697879989767
C            6.20247266736191       -0.14103244097846        0.95148824843681
C            6.62120566058816        0.82696513243871        1.84763552947151
C            7.97058788844226        0.74653044568182        2.49895125151809
C            5.77123670911381        1.89228058977200        2.16109061393486
C            4.51821974902756        2.02457316129944        1.59602080394013
C            4.11394924365540        1.06210742949137        0.68370903083827
O           -1.04833212428965       -0.27768409705601        0.85116070001239
H           -7.09474900164749        4.01843600033343        0.66162792266276
H           -5.72793227225610        4.75706023040200       -0.17996264922906
H           -5.70938037969400        4.59655985929790        1.58024402892640
H           -6.27182008199401        2.04323624841722        2.32450604090354
H           -5.25515298605406       -0.19832838029874        2.21683344724506
H           -4.30752129086231        3.21420540725394       -1.28498032359766
H           -2.53721902041273        2.05920487213056       -3.03068871141959
H            0.29372048283300        0.51622036318590       -4.44064779611026
H           -1.08317055475709        0.05585526826897       -5.43657435781516
H           -0.97851197878308        1.69501267017326       -4.78443616449655
H           -0.67365015360777       -1.76451694129573       -3.42472924382203
H           -1.78685868082455       -2.58441472296081       -1.38791100712676
H           -5.46871764146908       -2.49103862054597        0.87908870420157
H           -5.25638958301109       -4.48168795472605        2.32298118355482
H           -3.03617434726670       -5.16931982501942        3.15767522236049
H           -1.04104758550401       -3.79410572568718        2.61695352451277
H           -1.48620579458738        2.06942669285871        0.51430009143695
H           -1.03063864666333        4.41813998759509       -0.04941999673601
H            1.29023487967609        5.14576292918343       -0.50719296622853
H            3.12128075755868        3.49700307765037       -0.48338308284256
H            1.11188848304588       -0.22048497927487       -1.85551770923052
H            1.68305168962551       -2.29515418139846       -3.04905785779758
H            3.75699427218079       -3.65367394773756       -3.96265774996034
H            3.19226809497011       -4.58722407140405       -2.58051631846693
H            4.89798676113709       -4.14755723096294       -2.70548659417542
H            5.47694482129029       -2.49537421092515       -1.10231134007799
H            6.84138413239872       -0.97792651139605        0.71054754791347
H            7.86649540575386        0.66767469109308        3.58074770510074
H            8.55184073565369        1.64310840312170        2.28566096507419
H            8.52351117377140       -0.11826743612989        2.14134887945765
H            6.10882857958999        2.63243541572724        2.87270780509827
H            3.87317271300908        2.84763904045899        1.86621088926211

          :  Hamiltonian                  GFN2-xTB          :
         :: gradient norm              0.000044800799 Eh/a0 ::
         :: HOMO-LUMO gap              1.840381526471 eV    ::
         :: SCC energy              -124.271943772153 Eh    ::
         :: -> dispersion             -0.116688242125 Eh    ::
         :: repulsion energy           2.145863436135 Eh    ::

    * Orbital Energies and Occupations

         #    Occupation            Energy/Eh            Energy/eV
      -------------------------------------------------------------
         1        2.0000           -0.7657540             -20.8372
       ...           ...                  ...                  ...
       101        2.0000           -0.4146906             -11.2843
       102        2.0000           -0.4116566             -11.2017
       103        2.0000           -0.4090453             -11.1307
       104        2.0000           -0.4073463             -11.0845
       105        2.0000           -0.4043622             -11.0033
       106        2.0000           -0.3974630             -10.8155
       107        2.0000           -0.3955939             -10.7647
       108        2.0000           -0.3871450             -10.5348
       109        2.0000           -0.3815224             -10.3818
       110        2.0000           -0.3745869             -10.1930
       111        2.0000           -0.3637865              -9.8991
       112        2.0000           -0.3593380              -9.7781
       113        2.0000           -0.3493459              -9.5062 (HOMO)
       114                         -0.2817131              -7.6658 (LUMO)
       115                         -0.2588398              -7.0434
       116                         -0.2458277              -6.6893
       117                         -0.2401855              -6.5358
       118                         -0.2392789              -6.5111
       119                         -0.2303622              -6.2685
       120                         -0.2178021              -5.9267
       121                         -0.2071983              -5.6382
       122                         -0.1920160              -5.2250
       123                         -0.1904333              -5.1820
       124                         -0.1849452              -5.0326
       ...                                ...                  ...
       220                          0.7562089              20.5775
      -------------------------------------------------------------
                  HL-Gap            0.0676328 Eh            1.8404 eV

     #   Z          covCN         q      C6AA      α(0)
     1   6 C        3.758    -0.107    22.596     6.777
     2   6 C        2.966     0.006    27.882     8.661
     3   6 C        2.930    -0.043    29.072     8.842
     4   6 C        2.908    -0.053    29.304     8.876
     5   6 C        3.078     0.045    26.901     8.503
     6   6 C        3.068    -0.018    28.386     8.736
     7   6 C        2.917    -0.044    29.090     8.844
     8   6 C        3.065    -0.017    28.377     8.735
     9   6 C        2.917    -0.044    29.090     8.845
    10   6 C        2.966     0.006    27.889     8.662
    11   6 C        3.758    -0.106    22.572     6.774
    12   6 C        2.931    -0.041    29.009     8.833
    13   6 C        2.908    -0.050    29.239     8.867
    14   6 C        3.082     0.048    26.824     8.491
    15   7 N        2.801    -0.048    22.161     6.992
    16   6 C        2.914     0.070    26.442     8.432
    17   6 C        2.922    -0.040    29.000     8.831
    18   6 C        2.919    -0.025    28.623     8.773
    19   6 C        2.918    -0.029    28.718     8.788
    20   6 C        2.926    -0.027    28.687     8.784
    21   6 C        2.974    -0.016    28.396     8.741
    22   6 C        3.172     0.219    23.082     7.848
    23   7 N        2.048    -0.199    26.047     7.570
    24   7 N        2.049    -0.196    25.972     7.559
    25   6 C        3.170     0.219    23.078     7.848
    26   6 C        2.973    -0.018    28.451     8.749
    27   6 C        2.927    -0.025    28.624     8.774
    28   6 C        2.917    -0.032    28.792     8.799
    29   6 C        2.918    -0.025    28.626     8.774
    30   6 C        2.923    -0.041    29.013     8.833
    31   6 C        2.913     0.070    26.430     8.430
    32   7 N        2.804    -0.035    21.912     6.952
    33   6 C        3.077     0.049    26.819     8.490
    34   6 C        2.908    -0.045    29.124     8.849
    35   6 C        2.931    -0.040    29.003     8.832
    36   6 C        2.966     0.008    27.826     8.653
    37   6 C        3.758    -0.107    22.594     6.777
    38   6 C        2.918    -0.041    29.013     8.833
    39   6 C        3.069    -0.011    28.228     8.712
    40   6 C        3.067    -0.013    28.278     8.720
    41   6 C        2.918    -0.042    29.042     8.837
    42   6 C        2.966     0.007    27.866     8.659
    43   6 C        3.758    -0.107    22.604     6.778
    44   6 C        2.930    -0.044    29.085     8.844
    45   6 C        2.908    -0.052    29.279     8.873
    46   6 C        3.079     0.045    26.918     8.506
    47   8 O        1.724    -0.224    17.718     5.683
    48   1 H        0.925     0.043     2.412     2.429
    49   1 H        0.925     0.039     2.467     2.456
    50   1 H        0.925     0.042     2.419     2.432
    51   1 H        0.926     0.030     2.593     2.518
    52   1 H        0.926     0.024     2.675     2.558
    53   1 H        0.926     0.029     2.599     2.521
    54   1 H        0.926     0.028     2.609     2.526
    55   1 H        0.925     0.044     2.402     2.424
    56   1 H        0.925     0.043     2.404     2.425
    57   1 H        0.925     0.038     2.480     2.463
    58   1 H        0.926     0.032     2.560     2.502
    59   1 H        0.926     0.021     2.719     2.579
    60   1 H        0.926     0.049     2.338     2.391
    61   1 H        0.926     0.045     2.383     2.414
    62   1 H        0.926     0.047     2.359     2.402
    63   1 H        0.926     0.065     2.145     2.290
    64   1 H        0.926     0.051     2.305     2.374
    65   1 H        0.926     0.043     2.413     2.429
    66   1 H        0.926     0.043     2.404     2.425
    67   1 H        0.926     0.050     2.326     2.385
    68   1 H        0.926     0.016     2.790     2.612
    69   1 H        0.926     0.028     2.620     2.531
    70   1 H        0.925     0.040     2.445     2.445
    71   1 H        0.925     0.044     2.393     2.419
    72   1 H        0.925     0.039     2.460     2.453
    73   1 H        0.926     0.032     2.555     2.499
    74   1 H        0.926     0.032     2.560     2.502
    75   1 H        0.925     0.043     2.412     2.429
    76   1 H        0.925     0.041     2.431     2.438
    77   1 H        0.925     0.039     2.460     2.453
    78   1 H        0.926     0.029     2.602     2.523
    79   1 H        0.926     0.024     2.678     2.559

molecular dipole:
                 x           y           z       tot (Debye)
 q only:       -0.569       0.324      -0.128
   full:       -1.213       0.616      -0.142       3.476

 projected vibrational frequencies (cm⁻¹)
eigval :       -0.00    -0.00    -0.00    -0.00     0.00     0.00
eigval :        8.20    13.83    19.55    23.36    34.89    37.19
eigval :       42.23    44.11    45.48    53.74    55.87    59.64
eigval :       68.79    85.12    89.82    92.25    96.51   102.42
eigval :      107.37   117.51   132.11   137.92   150.07   167.11
eigval :      192.67   201.01   221.73   224.93   226.63   250.67
eigval :      265.81   277.10   294.59   299.79   303.01   321.87
eigval :      325.02   333.24   338.74   357.22   362.14   385.98
eigval :      394.11   394.93   397.47   404.05   424.04   426.76
eigval :      428.54   431.42   450.73   455.82   460.62   480.60
eigval :      490.50   496.21   511.55   526.16   545.39   550.58
eigval :      573.49   573.70   574.95   577.84   582.81   583.31
eigval :      623.76   624.09   634.16   647.81   670.71   671.90
eigval :      678.11   681.76   685.43   707.02   707.52   708.70
eigval :      721.23   726.77   739.33   743.16   784.66   786.12
eigval :      803.47   803.75   810.92   811.93   813.82   815.42
eigval :      872.09   873.26   874.81   875.86   886.96   889.08
eigval :      909.56   909.99   912.73   913.58   916.30   917.20
eigval :      919.50   921.14   927.72   927.97   930.09   930.16
eigval :      954.35   955.52   975.44   977.76  1010.33  1010.62
eigval :     1016.98  1017.80  1033.34  1033.91  1033.92  1035.45
eigval :     1040.08  1041.51  1053.26  1072.85  1085.41  1095.33
eigval :     1122.50  1127.81  1144.58  1153.90  1155.33  1157.55
eigval :     1173.02  1174.92  1176.09  1179.00  1181.64  1200.55
eigval :     1202.38  1204.21  1204.80  1230.54  1246.83  1249.55
eigval :     1251.57  1256.00  1257.95  1272.30  1293.19  1295.68
eigval :     1303.85  1311.37  1312.81  1314.67  1325.09  1353.95
eigval :     1355.70  1362.27  1364.44  1369.21  1373.87  1404.35
eigval :     1405.27  1406.41  1407.79  1414.80  1416.77  1422.26
eigval :     1433.30  1436.22  1441.02  1463.78  1477.62  1478.93
eigval :     1479.64  1480.16  1480.89  1483.30  1483.72  1484.11
eigval :     1484.65  1496.95  1497.43  1505.55  1505.87  1530.84
eigval :     1538.23  1561.88  1563.35  1572.97  1575.24  1585.88
eigval :     1586.03  1587.28  1588.02  1609.07  1609.17  1620.95
eigval :     1621.23  3000.03  3000.98  3001.76  3002.18  3013.21
eigval :     3014.57  3014.78  3015.58  3043.52  3043.79  3044.60
eigval :     3045.04  3067.35  3071.42  3073.38  3074.01  3077.27
eigval :     3077.85  3080.16  3081.16  3081.91  3083.12  3084.32
eigval :     3084.49  3086.26  3089.60  3092.14  3093.23  3097.21
eigval :     3100.39  3104.41  3113.76

   temp. (K)  partition function   enthalpy   heat capacity  entropy
                                   cal/mol     cal/K/mol   cal/K/mol   J/K/mol
 298.15  VIB  0.915E+19            23427.979    142.174    148.649
         ROT  0.550E+08              888.752      2.981     38.399
         INT  0.503E+27            24316.731    145.155    187.048
         TR   0.145E+29             1481.254      4.968     45.081
         TOT                       25797.9853   150.1230   232.1292   971.2287

       T/K    H(0)-H(T)+PV         H(T)/Eh          T*S/Eh         G(T)/Eh
   ------------------------------------------------------------------------
    298.15    0.411117E-01    0.655328E+00    0.110292E+00    0.545036E+00
   ------------------------------------------------------------------------

         :::::::::::::::::::::::::::::::::::::::::::::::::::::
         ::                  THERMODYNAMIC                  ::
         :::::::::::::::::::::::::::::::::::::::::::::::::::::
         :: total free energy        -121.581044506118 Eh   ::
         ::.................................................::
         :: total energy             -122.126080336015 Eh   ::
         :: zero point energy           0.614216209965 Eh   ::
         :: G(RRHO) w/o ZPVE           -0.069180380068 Eh   ::
         :: G(RRHO) contrib.            0.545035829897 Eh   ::
         :::::::::::::::::::::::::::::::::::::::::::::::::::::

           -------------------------------------------------
          | TOTAL ENERGY             -122.126080336015 Eh   |
          | TOTAL ENTHALPY           -121.470752419625 Eh   |
          | TOTAL FREE ENERGY        -121.581044506118 Eh   |
          | GRADIENT NORM               0.000044803887 Eh/α |
          | HOMO-LUMO GAP               1.840381083321 eV   |
           -------------------------------------------------

 * finished run on 2025/08/25 at 07:06:10.305
