   * xtb version 6.7.1 (edcfbbe) compiled by 'albert@albert-system' on 2024-07-22

   ID    Z sym.   atoms
    1    6 C      1-14, 16-22, 25-31, 33-46
    2    7 N      15, 23, 24, 32
    3    8 O      47
    4    1 H      48-79

          program call               : xtb data2507/gas/3,6-MeCzOXD/3,6-MeCzOXD_gas_S0_finalOpt.xtbopt.xyz --gfn 2 --spinpol --tblite --uhf 2 --ohess vtight --parallel 40 --molden --ceasefiles --namespace data2507/gas/3,6-MeCzOXD/3,6-MeCzOXD_gas_T1_preOpt
 * total energy  :  -122.0366808 Eh     change       -0.1269289E-07 Eh
 * total energy  :  -122.0412172 Eh     change       -0.4536405E-02 Eh
 * total energy  :  -122.0431368 Eh     change       -0.1919597E-02 Eh
 * total energy  :  -122.0433131 Eh     change       -0.1763481E-03 Eh
 * total energy  :  -122.0434955 Eh     change       -0.1823688E-03 Eh
 * total energy  :  -122.0435566 Eh     change       -0.6112852E-04 Eh
 * total energy  :  -122.0436302 Eh     change       -0.7354021E-04 Eh
 * total energy  :  -122.0436877 Eh     change       -0.5752816E-04 Eh
 * total energy  :  -122.0437204 Eh     change       -0.3273194E-04 Eh
 * total energy  :  -122.0437572 Eh     change       -0.3676138E-04 Eh
 * total energy  :  -122.0441408 Eh     change       -0.1540493E-06 Eh
 * total energy  :  -122.0441413 Eh     change       -0.5154389E-06 Eh
 * total energy  :  -122.0441417 Eh     change       -0.3824076E-06 Eh
 * total energy  :  -122.0441418 Eh     change       -0.1447542E-06 Eh
 * total energy  :  -122.0441420 Eh     change       -0.1579495E-06 Eh
 * total energy  :  -122.0441423 Eh     change       -0.3105969E-06 Eh
 * total energy  :  -122.0441422 Eh     change        0.1355598E-06 Eh
 * total energy  :  -122.0441424 Eh     change       -0.2330863E-06 Eh
 * total energy  :  -122.0441425 Eh     change       -0.6691921E-07 Eh
   *** GEOMETRY OPTIMIZATION CONVERGED AFTER 99 ITERATIONS ***

 final structure:
================
79
 xtb: 6.7.1 (edcfbbe)
C           -6.55795688101330        3.84603665021109        0.65542957781083
C           -5.75705533693439        2.58385121601271        0.54899315535887
C           -5.87807320452690        1.60785746683118        1.54415777267781
C           -5.16858965276233        0.42424245528649        1.50367243528699
C           -4.31994160944663        0.21391249130638        0.42551264553793
C           -4.16912850135255        1.19561795426008       -0.58215487312040
C           -4.89062719937296        2.37689076930845       -0.51464569510605
C           -3.18997174843392        0.68359633967973       -1.50435422101339
C           -2.60707564645570        1.18649161412932       -2.65666854190863
C           -1.65938161916343        0.42555580570128       -3.32511179818140
C           -0.97173301683617        0.95437739021480       -4.54700252399439
C           -1.33092404042003       -0.84831525543861       -2.84704982724618
C           -1.89355984623239       -1.37221969367760       -1.70189117487742
C           -2.80553626331422       -0.58425996714255       -1.01021988676370
N           -3.48578514229866       -0.84926109839731        0.15858052707701
C           -3.27858340257555       -1.96028664259540        0.98217588824931
C           -4.35112422534003       -2.75819564573782        1.34634399754543
C           -4.15891368662968       -3.90788345323564        2.09166928083408
C           -2.86282955489512       -4.28167098736314        2.47031590216207
C           -1.78955203606895       -3.49879072440166        2.14560288077621
C           -1.96205610627013       -2.28921984914033        1.43064779604518
C           -0.86126713416464       -1.43390410799386        1.24948120423251
N            0.42381605383368       -1.74123134517330        1.44694802558255
N            1.15041058396323       -0.73142234567616        1.08025780717598
C            0.34379672491614        0.24355626007864        0.65393342488666
C            0.67428784870244        1.49894960875401        0.12161908394572
C           -0.34089932178924        2.46138518321369       -0.10390135841682
C           -0.02775090596679        3.74290984594416       -0.46482148456005
C            1.30720262309064        4.13206895594991       -0.62654404177217
C            2.31727913104694        3.19870816788012       -0.46181699667378
C            2.02652033274826        1.88697858893143       -0.12672897072841
N            3.05286835728410        0.94278112846574       -0.06782753459487
C            3.10459009047224       -0.22841395740602       -0.79352720123409
C            2.22209840558036       -0.71727494350076       -1.74704597742498
C            2.53408715878297       -1.91470636669991       -2.35715351255463
C            3.70076534560656       -2.62442900069124       -2.05447948184368
C            3.96701525697156       -3.93187238586760       -2.73651695650865
C            4.59381950527727       -2.11300399469635       -1.12341906981064
C            4.30275949591746       -0.91387101751206       -0.49426135582840
C            5.00215683764136       -0.10517486319525        0.47054293335374
C            6.20218762403406       -0.24587265531080        1.14629402256015
C            6.59682686745372        0.73773918300526        2.04397028795851
C            7.88582858977287        0.61760910876168        2.79798729962427
C            5.77359503828809        1.84790413096689        2.26307822953023
C            4.57197965667895        2.01208250229513        1.60460216344356
C            4.19199214805972        1.03359833806820        0.69444069942534
O           -0.97464784508127       -0.14634248968877        0.77338035612699
H           -7.62252201234598        3.61839624215930        0.69794979813073
H           -6.37556890652961        4.49702631121254       -0.19565457627539
H           -6.29829666556616        4.38436686929050        1.56655577408688
H           -6.54647541195706        1.79342855243220        2.37244505894395
H           -5.26298977453044       -0.30853341161005        2.29051669847558
H           -4.77416156356542        3.12947249206721       -1.28070366673165
H           -2.88231457248051        2.16379010098342       -3.02494577511824
H            0.06243697205831        1.21080406249876       -4.31319205174565
H           -0.95751279551465        0.20525903395572       -5.33696617956749
H           -1.46816239379831        1.84736041069966       -4.91802148135685
H           -0.61062378998464       -1.43760562543183       -3.39582643936279
H           -1.61906396305306       -2.35398002877992       -1.34534247168057
H           -5.33988682380460       -2.49110344395628        1.00094904618370
H           -5.00107351467419       -4.52974762122057        2.35160367613710
H           -2.71600246051202       -5.19488881635998        3.02740254900270
H           -0.78565745972128       -3.76008617899495        2.44009305618434
H           -1.36734718776882        2.16064921744146        0.03869043096544
H           -0.81548947350402        4.46466364660776       -0.62238844931331
H            1.54790385486376        5.14437176452149       -0.91064376317102
H            3.34713401256866        3.47470479439212       -0.63928512389423
H            1.31609226098153       -0.18457449426325       -1.99484877203673
H            1.85899291531073       -2.32400427263851       -3.09500967188470
H            3.81716517535440       -3.84390048833166       -3.81145856596601
H            3.27944840531896       -4.69255360395534       -2.36634366559230
H            4.98320470633560       -4.26959796475159       -2.55021754451923
H            5.50596422455831       -2.64319610217076       -0.89242264142119
H            6.82220888591620       -1.11462545835970        0.98151283469160
H            7.68834734301685        0.48120013238422        3.86122242216517
H            8.48092565244541        1.52285396544946        2.68598538691600
H            8.46750327523413       -0.22976822253050        2.44470120577002
H            6.09178777825770        2.59539519173586        2.97535805167223
H            3.94237169816230        2.86722225763135        1.79763991532393

 projected vibrational frequencies (cm⁻¹)
eigval :       -0.00    -0.00    -0.00    -0.00     0.00     0.00
eigval :       -7.68    14.94    15.99    18.74    22.98    26.89
eigval :       30.15    31.50    34.84    45.67    55.35    62.85
eigval :       69.34    86.02    90.17    93.63    98.36   100.89
eigval :      110.64   118.15   134.92   136.74   148.60   169.19
eigval :      184.35   194.61   216.74   220.81   222.89   246.53
eigval :      258.93   274.06   283.81   297.61   303.15   311.55
eigval :      316.65   321.69   333.37   357.65   362.16   388.70
eigval :      390.28   393.09   396.31   402.37   414.22   418.19
eigval :      420.66   421.56   433.34   445.83   455.93   459.97
eigval :      486.60   487.07   490.28   521.09   543.34   555.70
eigval :      563.11   572.26   573.89   574.43   576.53   582.02
eigval :      582.99   617.43   619.45   623.42   635.81   658.22
eigval :      666.73   673.15   673.52   677.07   678.26   702.90
eigval :      707.34   707.88   736.89   740.42   749.17   754.13
eigval :      797.86   798.40   812.14   813.23   814.07   815.78
eigval :      846.72   855.04   868.54   869.28   870.01   870.46
eigval :      892.39   896.67   898.36   900.55   908.88   910.71
eigval :      911.21   912.01   912.82   913.54   914.32   915.02
eigval :      925.92   926.55   953.83   954.32  1008.46  1008.64
eigval :     1012.98  1015.12  1016.97  1027.41  1027.70  1028.81
eigval :     1029.33  1029.63  1038.03  1038.70  1065.98  1074.02
eigval :     1096.89  1108.41  1141.02  1144.06  1146.93  1150.55
eigval :     1164.49  1169.62  1169.77  1172.66  1183.81  1189.67
eigval :     1203.05  1203.65  1204.23  1212.41  1228.74  1236.29
eigval :     1245.49  1248.92  1252.12  1252.94  1276.81  1283.26
eigval :     1284.56  1285.80  1291.38  1322.04  1331.08  1339.60
eigval :     1344.43  1352.33  1357.71  1359.33  1369.26  1370.08
eigval :     1389.22  1391.54  1401.40  1402.04  1403.32  1404.27
eigval :     1414.06  1414.78  1417.39  1421.08  1436.15  1437.82
eigval :     1461.26  1463.02  1473.21  1474.12  1477.64  1478.71
eigval :     1478.86  1479.67  1485.21  1485.55  1486.81  1487.78
eigval :     1498.90  1499.67  1522.54  1548.01  1561.74  1562.43
eigval :     1566.34  1575.40  1576.41  1581.40  1584.65  1601.17
eigval :     1605.56  2992.37  2999.90  3001.59  3002.98  3016.73
eigval :     3018.96  3020.45  3020.76  3044.44  3045.68  3045.84
eigval :     3046.94  3074.54  3074.63  3074.66  3078.38  3078.97
eigval :     3079.23  3079.97  3080.09  3080.74  3083.13  3083.41
eigval :     3084.49  3087.30  3089.91  3092.96  3093.44  3097.70
eigval :     3098.83  3102.78  3109.78

   temp. (K)  partition function   enthalpy   heat capacity  entropy
                                   cal/mol     cal/K/mol   cal/K/mol   J/K/mol
 298.15  VIB  0.943E+20            23834.728    143.256    151.030
         ROT  0.563E+08              888.752      2.981     38.445
         INT  0.530E+28            24723.480    146.237    189.476
         TR   0.145E+29             1481.254      4.968     45.081
         TOT                       26204.7338   151.2050   234.5570   981.3866

       T/K    H(0)-H(T)+PV         H(T)/Eh          T*S/Eh         G(T)/Eh
   ------------------------------------------------------------------------
    298.15    0.417599E-01    0.650775E+00    0.111446E+00    0.539330E+00
   ------------------------------------------------------------------------

         :::::::::::::::::::::::::::::::::::::::::::::::::::::
         ::                  THERMODYNAMIC                  ::
         :::::::::::::::::::::::::::::::::::::::::::::::::::::
         :: total free energy        -121.504812718011 Eh   ::
         ::.................................................::
         :: total energy             -122.044142502896 Eh   ::
         :: zero point energy           0.609015491561 Eh   ::
         :: G(RRHO) w/o ZPVE           -0.069685706677 Eh   ::
         :: G(RRHO) contrib.            0.539329784884 Eh   ::
         :::::::::::::::::::::::::::::::::::::::::::::::::::::

           -------------------------------------------------
          | TOTAL ENERGY             -122.044142502896 Eh   |
          | TOTAL ENTHALPY           -121.393367109874 Eh   |
          | TOTAL FREE ENERGY        -121.504812718011 Eh   |
          | GRADIENT NORM               0.000075280245 Eh/α |
           -------------------------------------------------

 * finished run on 2025/08/25 at 07:06:26.831
