   * xtb version 6.7.1 (edcfbbe) compiled by 'albert@albert-system' on 2024-07-22

   ID    Z sym.   atoms
    1    6 C      1-4, 6-16, 18-22, 24-27, 29-44
    2    7 N      5, 17, 23, 28
    3    1 H      45-70

          program call               : xtb data2507/gas/IP-PPI/IP-PPI_gas_S0_finalOpt.xtbopt.xyz --gfn 2 --spinpol --tblite --uhf 2 --ohess vtight --parallel 40 --molden --ceasefiles --namespace data2507/gas/IP-PPI/IP-PPI_gas_T1_preOpt
 * total energy  :  -110.5782025 Eh     change        0.7973426E-08 Eh
 * total energy  :  -110.5843754 Eh     change       -0.6172958E-02 Eh
 * total energy  :  -110.5874804 Eh     change       -0.3104967E-02 Eh
 * total energy  :  -110.5882453 Eh     change       -0.7649067E-03 Eh
 * total energy  :  -110.5892407 Eh     change       -0.9953751E-03 Eh
 * total energy  :  -110.5897805 Eh     change       -0.5398050E-03 Eh
 * total energy  :  -110.5901279 Eh     change       -0.3474525E-03 Eh
 * total energy  :  -110.5903564 Eh     change       -0.2284688E-03 Eh
 * total energy  :  -110.5905042 Eh     change       -0.1478478E-03 Eh
 * total energy  :  -110.5905930 Eh     change       -0.8877225E-04 Eh
 * total energy  :  -110.5911624 Eh     change       -0.7116203E-06 Eh
 * total energy  :  -110.5911631 Eh     change       -0.6686119E-06 Eh
 * total energy  :  -110.5911636 Eh     change       -0.4401934E-06 Eh
 * total energy  :  -110.5911639 Eh     change       -0.3088643E-06 Eh
 * total energy  :  -110.5911642 Eh     change       -0.3037961E-06 Eh
 * total energy  :  -110.5911643 Eh     change       -0.1544506E-06 Eh
 * total energy  :  -110.5911645 Eh     change       -0.1581829E-06 Eh
 * total energy  :  -110.5911647 Eh     change       -0.2386724E-06 Eh
 * total energy  :  -110.5911648 Eh     change       -0.8703590E-07 Eh
   *** GEOMETRY OPTIMIZATION CONVERGED AFTER 60 ITERATIONS ***

 final structure:
================
70
 xtb: 6.7.1 (edcfbbe)
C           -2.49115425735116        4.77233857403561        0.10318427721304
C           -3.00966724964500        4.16539341932599        1.23626045837413
C           -3.32945478345296        2.82044947895895        1.22041944472363
C           -3.12829667901808        2.07819135164506        0.05944052191268
N           -3.44516060480951        0.70607624032816        0.03693803389491
C           -2.52755841744900       -0.35823879424294       -0.00075852488566
C           -1.12895805125833       -0.29359512300680        0.06068696703690
C           -0.40421788700083       -1.50666261837940       -0.16771400691014
C            0.94953486556580       -1.54551611125637       -0.15016966012594
C            1.73817960504312       -0.37898010999366        0.09417086636883
C            3.15820840608649       -0.40398238750578        0.08036258574270
C            3.93063033902406        0.78441561897133       -0.05019356890738
C            5.29327972848577        0.75679685685757       -0.07405769453102
C            6.00397906528315       -0.45617666647644        0.04589927801342
C            7.43303915687032       -0.44930600574264        0.02478634526066
C            8.31419680731103       -1.53170744743115        0.12581744434909
N            9.56099937977237       -1.01875567231161        0.05426787290150
C           10.77966850951243       -1.60741456824795        0.09892690597440
C           11.90062007973273       -0.83612998722143        0.00195645736616
C           11.79383780074985        0.56102082339692       -0.14354758866498
C           10.56511856158011        1.16273662080331       -0.18945840705767
C            9.41221198870490        0.36941089487111       -0.08961306621399
N            8.14314325414218        0.70627480448760       -0.10680793134136
C            5.25467730395083       -1.64297349865334        0.18311173857169
C            3.89053984972737       -1.61851817456251        0.19170648841029
C            1.00626497960623        0.81650434373478        0.36713826384283
C           -0.35056943634497        0.86262373744016        0.36126341407768
N           -3.17944527243764       -1.53105110199966       -0.07265213354379
C           -4.47845894234160       -1.25222970432112       -0.05851826955896
C           -5.56735551372198       -2.17242745962352       -0.07550052626747
C           -5.33754626093559       -3.55029803828840       -0.09089214395727
C           -6.39332330261487       -4.43157786297676       -0.07990465407328
C           -7.69255870417764       -3.93491341550078       -0.04822117977232
C           -7.92955683580250       -2.57731274407084       -0.03717355731465
C           -6.88003154398926       -1.64810867244722       -0.05669004980094
C           -7.09649089059553       -0.21087115628678       -0.07241048501493
C           -8.38309101208742        0.33424288789344       -0.12072942729999
C           -8.60460317666916        1.69296115271390       -0.16645085000594
C           -7.52629923250610        2.57547799526530       -0.17977830210281
C           -6.24700286349598        2.08668577209974       -0.12782740492440
C           -5.99449484309823        0.70192043964209       -0.05911607698031
C           -4.69704751940638        0.14827202567474       -0.00467245485335
C           -2.60971379560225        2.68695650870227       -1.07945555450368
C           -2.29245693617667        4.03252469016669       -1.05138618693120
H           -2.24135019654515        5.82227710913980        0.12094561221504
H           -3.16279652057105        4.74037012846608        2.13714501141930
H           -3.73470328821453        2.33584673175550        2.09655215233551
H           -0.98507728340287       -2.39064621746369       -0.37673261230250
H            1.44434347141312       -2.47831225356493       -0.37069475113675
H            3.42709145580943        1.73046244617866       -0.17481349591942
H            5.86870957445914        1.66185951071382       -0.19094070218135
H            8.13493974812611       -2.58102014231248        0.23904997479701
H           10.80356326029630       -2.68092265337213        0.21154355514320
H           12.87125725093887       -1.30315625350254        0.03741440794351
H           12.69289210151228        1.15236275068095       -0.21849970672532
H           10.44507942595730        2.22707391945737       -0.29975145806857
H            5.77067695610998       -2.58580503882547        0.28882082185223
H            3.35671526928973       -2.54627660100593        0.32711945933841
H            1.54748159977797        1.70947090753066        0.63946979537029
H           -0.84099725632592        1.78491532907762        0.62696861009344
H           -4.31384822896698       -3.89025782794319       -0.10649740097719
H           -6.22007740441119       -5.49721168273379       -0.09120042915889
H           -8.52800623297209       -4.61996454423133       -0.03208709887249
H           -8.95436866567677       -2.24285582900046       -0.00963928156607
H           -9.24148745627554       -0.31792010674730       -0.13084647517867
H           -9.61446461106882        2.07342908668897       -0.20257916210997
H           -7.69724949077167        3.64032744829162       -0.23442216102203
H           -5.41751771488434        2.77418592306584       -0.15416573507314
H           -2.45431305156505        2.09828214675608       -1.97118520129195
H           -1.89017006368263        4.50495744620089       -1.93473907666108

 projected vibrational frequencies (cm⁻¹)
eigval :       -0.00     0.00     0.00     0.00     0.00     0.00
eigval :        9.00    13.21    20.46    21.00    29.27    34.29
eigval :       47.65    56.34    60.32    64.08    71.50    85.50
eigval :       89.96   101.53   122.52   126.01   150.99   165.46
eigval :      197.41   210.78   222.08   227.93   242.39   247.47
eigval :      254.98   266.08   290.19   307.53   320.39   336.55
eigval :      363.53   373.66   375.47   380.09   392.40   394.59
eigval :      406.80   414.66   426.79   431.22   437.17   449.32
eigval :      468.01   484.22   502.97   503.55   504.32   525.13
eigval :      527.45   528.92   574.47   582.77   585.24   586.90
eigval :      598.18   612.84   615.46   630.93   633.82   637.57
eigval :      646.71   657.03   666.48   671.67   673.06   686.95
eigval :      688.95   693.74   703.87   709.95   730.77   745.82
eigval :      756.64   758.66   761.68   777.05   794.42   796.09
eigval :      801.25   812.21   822.74   830.63   838.48   855.68
eigval :      869.82   872.65   873.82   887.19   896.61   900.01
eigval :      901.97   903.22   905.42   905.91   912.64   914.28
eigval :      917.49   919.43   924.00   927.18   928.11   931.06
eigval :      935.87   940.54   979.60   991.28  1005.48  1020.59
eigval :     1055.44  1058.47  1077.56  1078.50  1083.02  1096.45
eigval :     1105.13  1115.06  1129.30  1133.00  1138.32  1148.51
eigval :     1155.07  1159.29  1162.81  1180.08  1181.75  1184.64
eigval :     1186.71  1202.18  1207.65  1214.99  1222.23  1240.83
eigval :     1247.23  1254.17  1259.96  1262.64  1272.60  1273.69
eigval :     1276.01  1285.36  1299.53  1309.70  1317.49  1322.00
eigval :     1333.96  1336.73  1337.91  1340.83  1354.34  1370.61
eigval :     1378.49  1390.48  1395.19  1407.85  1424.87  1431.03
eigval :     1433.84  1438.88  1445.06  1453.76  1465.82  1471.67
eigval :     1475.06  1479.52  1488.73  1490.78  1504.82  1521.58
eigval :     1544.85  1547.89  1550.51  1567.97  1574.62  1576.90
eigval :     1586.33  1588.23  1592.26  1605.48  3074.40  3078.75
eigval :     3079.05  3083.03  3085.34  3085.92  3086.67  3087.32
eigval :     3089.07  3090.93  3091.82  3095.28  3096.51  3097.38
eigval :     3098.49  3100.03  3102.52  3107.21  3107.65  3110.87
eigval :     3112.81  3115.14  3118.83  3124.66  3127.02  3178.42

   temp. (K)  partition function   enthalpy   heat capacity  entropy
                                   cal/mol     cal/K/mol   cal/K/mol   J/K/mol
 298.15  VIB  0.384E+16            19742.103    126.276    122.689
         ROT  0.901E+08              888.752      2.981     39.380
         INT  0.346E+24            20630.855    129.257    162.070
         TR   0.129E+29             1481.254      4.968     44.847
         TOT                       22112.1089   134.2255   206.9168   865.7398

       T/K    H(0)-H(T)+PV         H(T)/Eh          T*S/Eh         G(T)/Eh
   ------------------------------------------------------------------------
    298.15    0.352379E-01    0.565630E+00    0.983128E-01    0.467318E+00
   ------------------------------------------------------------------------

         :::::::::::::::::::::::::::::::::::::::::::::::::::::
         ::                  THERMODYNAMIC                  ::
         :::::::::::::::::::::::::::::::::::::::::::::::::::::
         :: total free energy        -110.123847261139 Eh   ::
         ::.................................................::
         :: total energy             -110.591164809120 Eh   ::
         :: zero point energy           0.530392493899 Eh   ::
         :: G(RRHO) w/o ZPVE           -0.063074945918 Eh   ::
         :: G(RRHO) contrib.            0.467317547981 Eh   ::
         :::::::::::::::::::::::::::::::::::::::::::::::::::::

           -------------------------------------------------
          | TOTAL ENERGY             -110.591164809120 Eh   |
          | TOTAL ENTHALPY           -110.025534426623 Eh   |
          | TOTAL FREE ENERGY        -110.123847261139 Eh   |
          | GRADIENT NORM               0.000046281936 Eh/α |
           -------------------------------------------------

 * finished run on 2025/07/16 at 13:40:57.942
