   * xtb version 6.7.1 (edcfbbe) compiled by 'albert@albert-system' on 2024-07-22

   ID    Z sym.   atoms
    1    6 C      1-4, 6-16, 18-22, 24-27, 29-44
    2    7 N      5, 17, 23, 28
    3    1 H      45-70

          program call               : xtb data2507/gas/IP-PPI/IP-PPI.xyz --gfn 2 --ohess vtight --parallel 40 --molden --ceasefiles --namespace data2507/gas/IP-PPI/IP-PPI_gas_S0_preOpt
          :  Hamiltonian                  GFN2-xTB          :
 * total energy  :  -110.6531566 Eh     change       -0.4383082E-08 Eh
 * total energy  :  -110.6647482 Eh     change       -0.1159156E-01 Eh
 * total energy  :  -110.6680343 Eh     change       -0.3286114E-02 Eh
 * total energy  :  -110.6689504 Eh     change       -0.9160758E-03 Eh
 * total energy  :  -110.6695651 Eh     change       -0.6146810E-03 Eh
 * total energy  :  -110.6698224 Eh     change       -0.2573624E-03 Eh
 * total energy  :  -110.6700323 Eh     change       -0.2098829E-03 Eh
 * total energy  :  -110.6702332 Eh     change       -0.2008708E-03 Eh
 * total energy  :  -110.6704491 Eh     change       -0.2158752E-03 Eh
 * total energy  :  -110.6706939 Eh     change       -0.2448027E-03 Eh
 * total energy  :  -110.6727160 Eh     change       -0.2038836E-06 Eh
 * total energy  :  -110.6727161 Eh     change       -0.1648826E-06 Eh
 * total energy  :  -110.6727163 Eh     change       -0.1559208E-06 Eh
 * total energy  :  -110.6727165 Eh     change       -0.1656858E-06 Eh
 * total energy  :  -110.6727166 Eh     change       -0.1889347E-06 Eh
 * total energy  :  -110.6727169 Eh     change       -0.2442440E-06 Eh
 * total energy  :  -110.6727171 Eh     change       -0.2240845E-06 Eh
 * total energy  :  -110.6727172 Eh     change       -0.1287559E-06 Eh
 * total energy  :  -110.6727172 Eh     change       -0.2177515E-08 Eh
   *** GEOMETRY OPTIMIZATION CONVERGED AFTER 94 ITERATIONS ***

 final structure:
================
70
 xtb: 6.7.1 (edcfbbe)
C           -2.23422626219078        4.46388459039291       -0.47960373194281
C           -1.93118085268361        3.76715469696279        0.67821708920749
C           -2.33641830012665        2.45299831743407        0.82664539891769
C           -3.04867627734418        1.83379669026364       -0.19351703036453
N           -3.43137577807896        0.48489291366709       -0.05842780918327
C           -2.56303834003462       -0.58182226498543        0.03846696715080
C           -1.11360172688105       -0.48962798228470        0.01112974375176
C           -0.38738280569339       -1.42689990462863        0.74857935710075
C            0.98982813731797       -1.39830372819577        0.76077455692415
C            1.69101646773224       -0.44100957203319        0.02700319788088
C            3.15819053952338       -0.40798171654522        0.04181394101230
C            3.88112094781863       -0.15612155431142       -1.12430824857084
C            5.25879831686315       -0.13252377904695       -1.10896472536249
C            5.96166169155318       -0.35344782980656        0.07594801787826
C            7.41275839001037       -0.32094694645935        0.05984105612234
C            8.29692746270885       -0.52368711035003        1.10906377187886
N            9.54244519759527       -0.39183189467042        0.59082372114581
C           10.76810444012772       -0.48734772108227        1.15584642418873
C           11.87625463673744       -0.30560521592710        0.38669266876905
C           11.75023957675155       -0.01989277861806       -0.98951759721368
C           10.51501192360763        0.07753743010417       -1.56532541431167
C            9.37494955805576       -0.11013235929234       -0.77045767048898
N            8.09786117153457       -0.06847742882544       -1.08413489563155
C            5.24190847208522       -0.60140027943822        1.24440178934329
C            3.86312625837850       -0.63116149016134        1.22412143703112
C            0.96285659680369        0.47469972663023       -0.73026687643431
C           -0.41699286702503        0.45406403457491       -0.74208944614381
N           -3.19818554043089       -1.72190163430168        0.15487213750346
C           -4.52148232665958       -1.42052172363823        0.12936491243067
C           -5.62186506204014       -2.32062837324160        0.18320249328178
C           -5.42323107002708       -3.70274484844382        0.26579947405783
C           -6.49698712918510       -4.55709454938033        0.28441303677240
C           -7.78739004651719       -4.03545697126547        0.21605370372322
C           -7.99405986089162       -2.67794431462243        0.14007705003917
C           -6.92293292964303       -1.77121177815828        0.12785926726703
C           -7.10789481609270       -0.33098519507726        0.08225815758062
C           -8.38570637519325        0.24569438488793        0.10262895119228
C           -8.57257380497236        1.60757892965292        0.10362993871355
C           -7.47492023584188        2.46211521428095        0.10217343728054
C           -6.20603616894130        1.93854647896402        0.07439663745747
C           -5.99367145676986        0.55267220082366        0.04302827552025
C           -4.70139908089966       -0.04321713719449        0.00994001214834
C           -3.35085417861490        2.53077349220567       -1.35997264986005
C           -2.94466485964747        3.84517259691510       -1.49598941600936
H           -1.91632843862198        5.48936382400415       -0.59158310361118
H           -1.37798446014484        4.24799333062303        1.47073569355477
H           -2.10293595899083        1.89911759508339        1.72371687741841
H           -0.93096741689515       -2.17390834854336        1.30575595454382
H            1.53541008746654       -2.13883040358466        1.32704543603103
H            3.35272620545348       -0.00239440121418       -2.05397263169150
H            5.82350590913011        0.05368383520903       -2.00887451707765
H            8.13400086143943       -0.74397251017043        2.14387009345734
H           10.80679086529259       -0.70802653981367        2.21232899679648
H           12.85380177440831       -0.38120145054763        0.83411055450500
H           12.64148378930930        0.12035811150577       -1.58061631667086
H           10.37851434087254        0.29361249781988       -2.61156661735816
H            5.76362577326072       -0.77009781214460        2.17447346872100
H            3.31935530141729       -0.80806502027567        2.14101919393641
H            1.48568482073544        1.22401779939598       -1.30650299943797
H           -0.94782854407707        1.16353550266064       -1.35849537203117
H           -4.40749251860099       -4.06422770507334        0.30650980853139
H           -6.34884471920157       -5.62516273475533        0.34638925053183
H           -8.63604242640681       -4.70440070243145        0.22272912203123
H           -9.01059796037234       -2.32165854407238        0.08599015291053
H           -9.25852190885557       -0.38652735206991        0.12749629516433
H           -9.57304053615995        2.01441426364102        0.11917559139813
H           -7.61845832414941        3.53230948372310        0.12722024698394
H           -5.35898129548220        2.60570697599287        0.09300824725161
H           -3.90322071752619        2.03669118223720       -2.14611150061380
H           -3.17996113607611        4.38601550702414       -2.40034203702216

          :  Hamiltonian                  GFN2-xTB          :
         :: gradient norm              0.000031429869 Eh/a0 ::
         :: HOMO-LUMO gap              2.462160628682 eV    ::
         :: SCC energy              -112.727996601966 Eh    ::
         :: -> dispersion             -0.096243844030 Eh    ::
         :: repulsion energy           2.055279358692 Eh    ::

    * Orbital Energies and Occupations

         #    Occupation            Energy/Eh            Energy/eV
      -------------------------------------------------------------
         1        2.0000           -0.6916896             -18.8218
       ...           ...                  ...                  ...
        91        2.0000           -0.4115418             -11.1986
        92        2.0000           -0.4108214             -11.1790
        93        2.0000           -0.4051762             -11.0254
        94        2.0000           -0.4028617             -10.9624
        95        2.0000           -0.4010379             -10.9128
        96        2.0000           -0.3997300             -10.8772
        97        2.0000           -0.3927962             -10.6885
        98        2.0000           -0.3815474             -10.3824
        99        2.0000           -0.3766559             -10.2493
       100        2.0000           -0.3762248             -10.2376
       101        2.0000           -0.3718191             -10.1177
       102        2.0000           -0.3708237             -10.0906
       103        2.0000           -0.3575525              -9.7295 (HOMO)
       104                         -0.2670697              -7.2673 (LUMO)
       105                         -0.2554276              -6.9505
       106                         -0.2462096              -6.6997
       107                         -0.2412423              -6.5645
       108                         -0.2400285              -6.5315
       109                         -0.2374368              -6.4610
       110                         -0.2273344              -6.1861
       111                         -0.2215555              -6.0288
       112                         -0.2172537              -5.9118
       113                         -0.2154126              -5.8617
       114                         -0.2012790              -5.4771
       ...                                ...                  ...
       202                          0.7327673              19.9396
      -------------------------------------------------------------
                  HL-Gap            0.0904827 Eh            2.4622 eV

     #   Z          covCN         q      C6AA      α(0)
     1   6 C        2.920    -0.030    28.747     8.792
     2   6 C        2.920    -0.026    28.640     8.776
     3   6 C        2.922    -0.037    28.927     8.820
     4   6 C        2.913     0.070    26.441     8.432
     5   7 N        2.841    -0.046    22.131     6.987
     6   6 C        3.190     0.127    24.769     8.118
     7   6 C        2.974    -0.000    28.027     8.684
     8   6 C        2.927    -0.029    28.717     8.788
     9   6 C        2.923    -0.033    28.819     8.804
    10   6 C        2.976     0.012    27.752     8.641
    11   6 C        2.976     0.009    27.816     8.651
    12   6 C        2.923    -0.034    28.835     8.806
    13   6 C        2.925    -0.029    28.732     8.790
    14   6 C        2.973     0.008    27.847     8.656
    15   6 C        3.184     0.070    26.007     8.323
    16   6 C        3.005    -0.042    29.036     8.839
    17   7 N        2.854     0.022    20.857     6.783
    18   6 C        2.853     0.006    27.871     8.653
    19   6 C        2.915    -0.044    29.104     8.847
    20   6 C        2.921    -0.032    28.800     8.801
    21   6 C        2.908    -0.046    29.141     8.852
    22   6 C        3.192     0.127    24.770     8.117
    23   7 N        1.898    -0.297    28.558     7.923
    24   6 C        2.921    -0.037    28.929     8.820
    25   6 C        2.923    -0.035    28.868     8.811
    26   6 C        2.924    -0.034    28.858     8.810
    27   6 C        2.920    -0.035    28.882     8.813
    28   7 N        1.896    -0.291    28.404     7.901
    29   6 C        3.206     0.057    26.141     8.326
    30   6 C        2.986     0.003    27.957     8.673
    31   6 C        2.922    -0.031    28.778     8.797
    32   6 C        2.917    -0.030    28.760     8.794
    33   6 C        2.917    -0.033    28.826     8.804
    34   6 C        2.922    -0.035    28.871     8.811
    35   6 C        2.979    -0.002    28.062     8.689
    36   6 C        2.980     0.002    27.982     8.677
    37   6 C        2.922    -0.034    28.844     8.807
    38   6 C        2.916    -0.034    28.838     8.806
    39   6 C        2.917    -0.032    28.799     8.800
    40   6 C        2.919    -0.040    29.005     8.832
    41   6 C        2.978    -0.002    28.068     8.690
    42   6 C        3.073     0.020    27.497     8.598
    43   6 C        2.921    -0.037    28.909     8.817
    44   6 C        2.920    -0.027    28.677     8.782
    45   1 H        0.926     0.039     2.462     2.453
    46   1 H        0.926     0.040     2.449     2.447
    47   1 H        0.926     0.040     2.451     2.448
    48   1 H        0.926     0.052     2.292     2.368
    49   1 H        0.926     0.037     2.486     2.466
    50   1 H        0.926     0.034     2.534     2.489
    51   1 H        0.926     0.058     2.216     2.328
    52   1 H        0.926     0.029     2.595     2.519
    53   1 H        0.926     0.044     2.394     2.420
    54   1 H        0.926     0.044     2.402     2.424
    55   1 H        0.926     0.040     2.444     2.445
    56   1 H        0.926     0.057     2.234     2.337
    57   1 H        0.926     0.027     2.625     2.533
    58   1 H        0.926     0.031     2.570     2.507
    59   1 H        0.926     0.034     2.533     2.489
    60   1 H        0.926     0.026     2.641     2.541
    61   1 H        0.926     0.050     2.317     2.380
    62   1 H        0.926     0.029     2.596     2.519
    63   1 H        0.926     0.027     2.628     2.535
    64   1 H        0.926     0.030     2.589     2.516
    65   1 H        0.926     0.034     2.535     2.490
    66   1 H        0.926     0.028     2.619     2.531
    67   1 H        0.926     0.026     2.644     2.543
    68   1 H        0.926     0.025     2.658     2.550
    69   1 H        0.926     0.043     2.413     2.429
    70   1 H        0.926     0.040     2.448     2.447

molecular dipole:
                 x           y           z       tot (Debye)
 q only:        1.225       0.824       0.327
   full:        1.327       1.160       0.770       4.889

 projected vibrational frequencies (cm⁻¹)
eigval :       -0.00    -0.00    -0.00     0.00     0.00     0.00
eigval :        9.69    13.67    16.71    24.35    27.31    39.52
eigval :       46.70    51.03    58.34    75.33    78.84    84.74
eigval :       95.39    97.90   113.21   139.69   149.04   166.76
eigval :      197.78   220.49   226.40   227.76   245.28   250.23
eigval :      266.12   284.65   288.61   306.18   334.95   356.16
eigval :      368.15   375.51   378.18   385.85   396.50   399.39
eigval :      420.69   427.63   430.74   438.95   450.23   474.88
eigval :      487.04   501.23   512.64   518.10   525.92   535.19
eigval :      535.72   543.74   573.20   585.02   588.76   598.87
eigval :      604.92   619.45   633.61   642.07   649.10   652.72
eigval :      657.38   668.79   676.60   681.94   692.51   698.32
eigval :      704.50   711.81   714.09   723.01   735.42   758.66
eigval :      765.04   766.05   766.98   782.52   801.80   807.70
eigval :      833.02   836.37   853.02   862.41   868.09   874.58
eigval :      874.83   875.64   885.00   889.09   900.78   907.33
eigval :      912.49   913.78   914.16   920.35   923.75   927.24
eigval :      927.44   928.36   930.69   932.23   932.81   939.26
eigval :      951.73   980.95  1005.66  1016.98  1029.36  1055.75
eigval :     1069.10  1079.18  1080.12  1085.94  1090.17  1108.58
eigval :     1115.24  1133.75  1134.45  1136.13  1144.04  1152.76
eigval :     1155.64  1174.02  1180.48  1183.06  1186.23  1189.15
eigval :     1191.04  1199.65  1209.31  1210.93  1225.20  1253.67
eigval :     1257.98  1262.77  1267.93  1273.38  1275.01  1284.42
eigval :     1290.81  1309.96  1313.53  1314.84  1321.95  1326.63
eigval :     1332.60  1338.99  1343.49  1348.73  1369.62  1374.47
eigval :     1396.06  1407.69  1412.98  1419.57  1431.23  1433.91
eigval :     1437.71  1451.79  1473.52  1478.14  1484.23  1485.99
eigval :     1514.16  1514.64  1527.69  1541.30  1551.66  1556.45
eigval :     1562.40  1566.16  1570.77  1582.59  1589.54  1594.24
eigval :     1595.00  1602.77  1604.95  1625.25  3071.28  3073.87
eigval :     3074.81  3078.10  3081.86  3082.04  3082.63  3082.98
eigval :     3084.48  3084.57  3085.41  3090.25  3090.46  3095.38
eigval :     3096.35  3097.65  3098.94  3101.98  3104.84  3105.13
eigval :     3109.95  3110.23  3114.18  3115.70  3125.49  3179.70

   temp. (K)  partition function   enthalpy   heat capacity  entropy
                                   cal/mol     cal/K/mol   cal/K/mol   J/K/mol
 298.15  VIB  0.216E+16            19387.041    124.204    120.542
         ROT  0.879E+08              888.752      2.981     39.331
         INT  0.190E+24            20275.794    127.185    159.873
         TR   0.129E+29             1481.254      4.968     44.847
         TOT                       21757.0476   132.1529   204.7201   856.5489

       T/K    H(0)-H(T)+PV         H(T)/Eh          T*S/Eh         G(T)/Eh
   ------------------------------------------------------------------------
    298.15    0.346721E-01    0.569332E+00    0.972691E-01    0.472063E+00
   ------------------------------------------------------------------------

         :::::::::::::::::::::::::::::::::::::::::::::::::::::
         ::                  THERMODYNAMIC                  ::
         :::::::::::::::::::::::::::::::::::::::::::::::::::::
         :: total free energy        -110.200654015845 Eh   ::
         ::.................................................::
         :: total energy             -110.672717243273 Eh   ::
         :: zero point energy           0.534660285755 Eh   ::
         :: G(RRHO) w/o ZPVE           -0.062597058328 Eh   ::
         :: G(RRHO) contrib.            0.472063227428 Eh   ::
         :::::::::::::::::::::::::::::::::::::::::::::::::::::

           -------------------------------------------------
          | TOTAL ENERGY             -110.672717243273 Eh   |
          | TOTAL ENTHALPY           -110.103384895199 Eh   |
          | TOTAL FREE ENERGY        -110.200654015845 Eh   |
          | GRADIENT NORM               0.000031429342 Eh/α |
          | HOMO-LUMO GAP               2.462160467337 eV   |
           -------------------------------------------------

 * finished run on 2025/07/16 at 13:37:45.031
