   * xtb version 6.7.1 (edcfbbe) compiled by 'albert@albert-system' on 2024-07-22

   ID    Z sym.   atoms
    1    6 C      1-4, 6-16, 18-22, 24-27, 29-44
    2    7 N      5, 17, 23, 28
    3    1 H      45-70

          program call               : xtb data2507/gas/IP-PPI/IP-PPI_gas_S0_crest.xyz --gfn 2 --ohess vtight --parallel 40 --molden --ceasefiles --namespace data2507/gas/IP-PPI/IP-PPI_gas_S0_finalOpt
          :  Hamiltonian                  GFN2-xTB          :
 * total energy  :  -110.6729087 Eh     change       -0.2817870E-08 Eh
 * total energy  :  -110.6729098 Eh     change       -0.1066723E-05 Eh
 * total energy  :  -110.6729116 Eh     change       -0.1757166E-05 Eh
 * total energy  :  -110.6729124 Eh     change       -0.8028153E-06 Eh
 * total energy  :  -110.6729131 Eh     change       -0.7674935E-06 Eh
 * total energy  :  -110.6729139 Eh     change       -0.7495561E-06 Eh
 * total energy  :  -110.6729145 Eh     change       -0.6362216E-06 Eh
 * total energy  :  -110.6729150 Eh     change       -0.5216004E-06 Eh
 * total energy  :  -110.6729155 Eh     change       -0.4970996E-06 Eh
 * total energy  :  -110.6729161 Eh     change       -0.5207363E-06 Eh
 * total energy  :  -110.6729227 Eh     change       -0.2031442E-06 Eh
 * total energy  :  -110.6729230 Eh     change       -0.2335412E-06 Eh
 * total energy  :  -110.6729232 Eh     change       -0.2151547E-06 Eh
 * total energy  :  -110.6729233 Eh     change       -0.1556656E-06 Eh
 * total energy  :  -110.6729235 Eh     change       -0.1163407E-06 Eh
 * total energy  :  -110.6729236 Eh     change       -0.1048993E-06 Eh
 * total energy  :  -110.6729237 Eh     change       -0.1163493E-06 Eh
 * total energy  :  -110.6729238 Eh     change       -0.1007452E-06 Eh
 * total energy  :  -110.6729239 Eh     change       -0.7868414E-07 Eh
   *** GEOMETRY OPTIMIZATION CONVERGED AFTER 38 ITERATIONS ***

 final structure:
================
70
 xtb: 6.7.1 (edcfbbe)
C           -2.12382688673584        4.55656629195299        0.08640177544550
C           -2.86166458839470        4.05551585948428        1.14709822707803
C           -3.30358931119176        2.74572872348831        1.12943981113254
C           -3.00987075735492        1.93447116252054        0.03708807699520
N           -3.42723969526933        0.58924279821787        0.02443053726917
C           -2.58439643557116       -0.50193187593929        0.02916151656728
C           -1.13326111578927       -0.43728036153022        0.05196045148645
C           -0.42371164477615       -1.44038411889000       -0.61077435187286
C            0.95403835336358       -1.43986625222270       -0.61776510078779
C            1.67116184996860       -0.43856342481837        0.03733462127904
C            3.13868386148364       -0.42937152652313        0.02472785128912
C            3.84508536697337        0.76569763425611       -0.11190225758385
C            5.22302150667252        0.77326937024590       -0.12314769732722
C            5.94242396653994       -0.41483281730458        0.00978830007646
C            7.39338409742449       -0.37364587375830        0.00213202809887
C            8.29155377860478       -1.42304502718779        0.12751744012319
N            9.53018849712300       -0.87649616956844        0.06211556045845
C           10.76339490366825       -1.42908581098769        0.12898634506891
C           11.86136837905900       -0.63031767078161        0.03395688016509
C           11.71707845938499        0.76348499751151       -0.13320217457961
C           10.47414718692575        1.32678837904073       -0.20143446720546
C            9.34458955705713        0.50144907803445       -0.10293239352149
N            8.06324882417378        0.79831375128293       -0.13830724242241
C            5.23907166475354       -1.61104207892893        0.14868124193110
C            3.85984591698352       -1.61595765881478        0.15199047989498
C            0.95890580087237        0.54840498527837        0.71646088389382
C           -0.42086307005908        0.54910458466200        0.73229447241739
N           -3.24556586521124       -1.63279014654518        0.01676519092084
C           -4.56164667604344       -1.29934703776178        0.01024929969348
C           -5.68296303642660       -2.17446228027193        0.03706236881379
C           -5.51714701401590       -3.56255728525816        0.08446676486981
C           -6.61081897473960       -4.38941035603084        0.14277415653817
C           -7.88855114953763       -3.83347461659132        0.15881811061539
C           -8.06302753499457       -2.47032427667057        0.10691166652680
C           -6.97075084722151       -1.59190141109162        0.03687981585309
C           -7.12168617477712       -0.14986823063537       -0.05403431608501
C           -8.38536831544231        0.45208166110784       -0.13501735622587
C           -8.53968534941219        1.81175865404619       -0.26584646652476
C           -7.42200687416821        2.63663515077205       -0.33991465580438
C           -6.16602554577784        2.08844665955552       -0.25650654097070
C           -5.98692114737583        0.70716713801152       -0.09321303531308
C           -4.70919280062483        0.08694424715881        0.00108045694601
C           -2.27013300686392        2.43558116468228       -1.02741605834760
C           -1.82926550826376        3.74629585116769       -0.99735780719512
H           -1.77807570418309        5.57895687163362        0.10612631811909
H           -3.09043611349382        4.68492570635140        1.99400848877937
H           -3.87724647442985        2.34283514001145        1.95156064495340
H           -0.97964712345725       -2.21282913661143       -1.11894237377546
H            1.48642689691013       -2.21042697122443       -1.15578446631098
H            3.30235033267941        1.69229317278079       -0.23198590476639
H            5.77510610152757        1.69311686138644       -0.23510940094291
H            8.14230344297971       -2.47542887306580        0.25423552324307
H           10.81615858928735       -2.50008527776603        0.25746439331806
H           12.84487203020462       -1.06779671465219        0.08709495976552
H           12.60048046387892        1.37802824899131       -0.20627113756561
H           10.32383535407432        2.38567621638125       -0.32837758754503
H            5.77404308056305       -2.54247000101517        0.25736453398506
H            3.32920876246267       -2.54844606033714        0.27944075791056
H            1.49534217591010        1.30994065748239        1.26344194309848
H           -0.94020906849135        1.30691904634925        1.29909271382034
H           -4.51022942361976       -3.95006122401239        0.08044348959237
H           -6.48799129015358       -5.46180047888499        0.18115450846092
H           -8.75279014967857       -4.47995974267080        0.21260369071567
H           -9.07083510067841       -2.08663794563820        0.12498220210490
H           -9.27292743411043       -0.15902403656494       -0.10451956613985
H           -9.53012545068616        2.23862696791912       -0.32501856598631
H           -7.53999201036339        3.70266840308356       -0.46713867643547
H           -5.30316155764913        2.73063013408730       -0.33433490947041
H           -2.04356246004309        1.79402501373777       -1.86593483908602
H           -1.25499906753271        4.13532768019374       -1.82451998692592

          :  Hamiltonian                  GFN2-xTB          :
         :: gradient norm              0.000017025551 Eh/a0 ::
         :: HOMO-LUMO gap              2.465050272891 eV    ::
         :: SCC energy              -112.728274985899 Eh    ::
         :: -> dispersion             -0.096353389626 Eh    ::
         :: repulsion energy           2.055351119127 Eh    ::

    * Orbital Energies and Occupations

         #    Occupation            Energy/Eh            Energy/eV
      -------------------------------------------------------------
         1        2.0000           -0.6917278             -18.8229
       ...           ...                  ...                  ...
        91        2.0000           -0.4109054             -11.1813
        92        2.0000           -0.4107865             -11.1781
        93        2.0000           -0.4052860             -11.0284
        94        2.0000           -0.4026439             -10.9565
        95        2.0000           -0.4013114             -10.9202
        96        2.0000           -0.4000043             -10.8847
        97        2.0000           -0.3926607             -10.6848
        98        2.0000           -0.3815742             -10.3832
        99        2.0000           -0.3766613             -10.2495
       100        2.0000           -0.3763612             -10.2413
       101        2.0000           -0.3716842             -10.1140
       102        2.0000           -0.3710947             -10.0980
       103        2.0000           -0.3576835              -9.7331 (HOMO)
       104                         -0.2670946              -7.2680 (LUMO)
       105                         -0.2554403              -6.9509
       106                         -0.2461723              -6.6987
       107                         -0.2411669              -6.5625
       108                         -0.2398674              -6.5271
       109                         -0.2372356              -6.4555
       110                         -0.2273489              -6.1865
       111                         -0.2216428              -6.0312
       112                         -0.2173096              -5.9133
       113                         -0.2155207              -5.8646
       114                         -0.2012955              -5.4775
       ...                                ...                  ...
       202                          0.7327501              19.9391
      -------------------------------------------------------------
                  HL-Gap            0.0905889 Eh            2.4651 eV

     #   Z          covCN         q      C6AA      α(0)
     1   6 C        2.920    -0.030    28.748     8.792
     2   6 C        2.920    -0.027    28.678     8.782
     3   6 C        2.921    -0.037    28.910     8.817
     4   6 C        2.913     0.070    26.444     8.432
     5   7 N        2.841    -0.046    22.128     6.986
     6   6 C        3.191     0.127    24.761     8.116
     7   6 C        2.974    -0.000    28.026     8.684
     8   6 C        2.927    -0.029    28.715     8.788
     9   6 C        2.923    -0.033    28.820     8.804
    10   6 C        2.976     0.012    27.752     8.641
    11   6 C        2.977     0.009    27.817     8.651
    12   6 C        2.923    -0.034    28.841     8.807
    13   6 C        2.925    -0.029    28.736     8.791
    14   6 C        2.973     0.008    27.847     8.656
    15   6 C        3.184     0.070    26.007     8.323
    16   6 C        3.005    -0.042    29.034     8.839
    17   7 N        2.854     0.022    20.855     6.783
    18   6 C        2.853     0.006    27.870     8.653
    19   6 C        2.915    -0.044    29.104     8.847
    20   6 C        2.921    -0.032    28.800     8.801
    21   6 C        2.908    -0.046    29.142     8.852
    22   6 C        3.192     0.126    24.771     8.117
    23   7 N        1.898    -0.298    28.564     7.924
    24   6 C        2.922    -0.037    28.924     8.820
    25   6 C        2.923    -0.035    28.861     8.810
    26   6 C        2.924    -0.034    28.857     8.809
    27   6 C        2.920    -0.035    28.878     8.812
    28   7 N        1.895    -0.292    28.406     7.902
    29   6 C        3.207     0.057    26.138     8.325
    30   6 C        2.986     0.003    27.957     8.673
    31   6 C        2.922    -0.031    28.779     8.797
    32   6 C        2.917    -0.030    28.761     8.794
    33   6 C        2.917    -0.033    28.826     8.804
    34   6 C        2.922    -0.035    28.870     8.811
    35   6 C        2.979    -0.002    28.062     8.689
    36   6 C        2.980     0.002    27.982     8.677
    37   6 C        2.922    -0.034    28.844     8.807
    38   6 C        2.916    -0.034    28.838     8.806
    39   6 C        2.917    -0.032    28.798     8.800
    40   6 C        2.919    -0.040    29.004     8.831
    41   6 C        2.978    -0.002    28.068     8.690
    42   6 C        3.073     0.020    27.496     8.598
    43   6 C        2.922    -0.037    28.928     8.820
    44   6 C        2.920    -0.026    28.641     8.776
    45   1 H        0.926     0.039     2.460     2.453
    46   1 H        0.926     0.040     2.450     2.448
    47   1 H        0.926     0.042     2.417     2.431
    48   1 H        0.926     0.052     2.300     2.371
    49   1 H        0.926     0.037     2.487     2.466
    50   1 H        0.926     0.032     2.553     2.499
    51   1 H        0.926     0.058     2.221     2.331
    52   1 H        0.926     0.030     2.591     2.517
    53   1 H        0.926     0.044     2.392     2.419
    54   1 H        0.926     0.044     2.401     2.423
    55   1 H        0.926     0.040     2.445     2.445
    56   1 H        0.926     0.057     2.236     2.339
    57   1 H        0.926     0.028     2.618     2.530
    58   1 H        0.926     0.033     2.548     2.496
    59   1 H        0.926     0.034     2.532     2.488
    60   1 H        0.926     0.026     2.641     2.542
    61   1 H        0.926     0.050     2.318     2.381
    62   1 H        0.926     0.029     2.597     2.520
    63   1 H        0.926     0.027     2.629     2.535
    64   1 H        0.926     0.030     2.589     2.516
    65   1 H        0.926     0.034     2.535     2.490
    66   1 H        0.926     0.028     2.618     2.530
    67   1 H        0.926     0.026     2.643     2.542
    68   1 H        0.926     0.025     2.656     2.548
    69   1 H        0.926     0.040     2.448     2.447
    70   1 H        0.926     0.040     2.444     2.445

molecular dipole:
                 x           y           z       tot (Debye)
 q only:        1.255       0.506       0.002
   full:        1.373       0.450       0.076       3.677

 projected vibrational frequencies (cm⁻¹)
eigval :       -0.00    -0.00    -0.00    -0.00     0.00     0.00
eigval :       10.08    12.61    17.24    23.32    30.58    36.21
eigval :       50.20    51.06    58.57    71.13    78.80    86.08
eigval :       90.46   107.65   115.31   122.47   159.27   172.98
eigval :      191.64   220.31   226.28   228.06   245.48   250.85
eigval :      264.78   284.83   290.78   307.32   333.82   356.22
eigval :      368.23   375.80   378.39   385.54   396.35   399.20
eigval :      421.77   424.84   432.43   439.28   450.62   476.34
eigval :      488.97   500.49   506.94   520.30   525.92   535.22
eigval :      535.69   544.20   573.18   585.02   588.56   599.10
eigval :      604.47   619.50   632.55   641.89   651.05   651.99
eigval :      657.32   668.56   677.69   682.31   691.14   698.97
eigval :      704.62   712.11   714.62   723.16   735.43   758.68
eigval :      765.09   766.08   767.10   782.54   801.75   808.11
eigval :      832.92   836.28   853.06   862.50   868.54   874.19
eigval :      874.76   875.89   885.01   889.08   901.04   907.43
eigval :      912.45   913.97   914.15   920.88   923.81   926.85
eigval :      927.19   928.61   930.89   932.50   932.89   939.27
eigval :      951.74   980.97  1005.72  1017.04  1029.44  1055.77
eigval :     1069.09  1079.22  1080.21  1085.93  1090.10  1108.53
eigval :     1115.35  1133.78  1134.59  1136.16  1143.94  1152.82
eigval :     1155.66  1174.18  1180.46  1183.07  1186.22  1189.23
eigval :     1191.01  1199.74  1208.92  1210.76  1225.21  1253.65
eigval :     1257.97  1262.83  1267.99  1273.36  1275.08  1284.40
eigval :     1290.69  1310.15  1313.68  1314.87  1321.50  1326.66
eigval :     1332.43  1339.02  1343.50  1348.68  1369.61  1374.48
eigval :     1396.11  1407.72  1413.04  1419.58  1431.27  1433.90
eigval :     1437.75  1451.83  1473.76  1478.13  1484.25  1486.07
eigval :     1514.31  1514.97  1527.68  1542.00  1551.65  1556.41
eigval :     1562.43  1566.24  1570.89  1582.65  1589.51  1594.24
eigval :     1595.03  1602.79  1604.97  1625.23  3071.22  3074.86
eigval :     3075.07  3076.86  3080.93  3081.87  3082.73  3082.90
eigval :     3084.57  3084.63  3085.45  3090.37  3091.25  3095.24
eigval :     3096.33  3096.69  3098.85  3101.95  3104.66  3105.02
eigval :     3109.51  3110.18  3113.86  3115.73  3125.39  3180.03

   temp. (K)  partition function   enthalpy   heat capacity  entropy
                                   cal/mol     cal/K/mol   cal/K/mol   J/K/mol
 298.15  VIB  0.214E+16            19384.932    124.211    120.557
         ROT  0.874E+08              888.752      2.981     39.320
         INT  0.187E+24            20273.684    127.191    159.877
         TR   0.129E+29             1481.254      4.968     44.847
         TOT                       21754.9382   132.1596   204.7242   856.5660

       T/K    H(0)-H(T)+PV         H(T)/Eh          T*S/Eh         G(T)/Eh
   ------------------------------------------------------------------------
    298.15    0.346687E-01    0.569340E+00    0.972711E-01    0.472069E+00
   ------------------------------------------------------------------------

         :::::::::::::::::::::::::::::::::::::::::::::::::::::
         ::                  THERMODYNAMIC                  ::
         :::::::::::::::::::::::::::::::::::::::::::::::::::::
         :: total free energy        -110.200854712949 Eh   ::
         ::.................................................::
         :: total energy             -110.672923866771 Eh   ::
         :: zero point energy           0.534671521398 Eh   ::
         :: G(RRHO) w/o ZPVE           -0.062602367576 Eh   ::
         :: G(RRHO) contrib.            0.472069153822 Eh   ::
         :::::::::::::::::::::::::::::::::::::::::::::::::::::

           -------------------------------------------------
          | TOTAL ENERGY             -110.672923866771 Eh   |
          | TOTAL ENTHALPY           -110.103583644527 Eh   |
          | TOTAL FREE ENERGY        -110.200854712949 Eh   |
          | GRADIENT NORM               0.000017022948 Eh/α |
          | HOMO-LUMO GAP               2.465050385692 eV   |
           -------------------------------------------------

 * finished run on 2025/07/16 at 13:40:48.654
