   * xtb version 6.7.1 (edcfbbe) compiled by 'albert@albert-system' on 2024-07-22

   ID    Z sym.   atoms
    1    6 C      1-4, 6-16, 18-22, 24-27, 29-44
    2    7 N      5, 17, 23, 28
    3    1 H      45-70

          program call               : xtb data2507/gas/IP-PPI/IP-PPI_gas_T1_crest.xyz --gfn 2 --spinpol --tblite --uhf 2 --ohess vtight --parallel 40 --molden --ceasefiles --namespace data2507/gas/IP-PPI/IP-PPI_gas_T1_finalOpt
 * total energy  :  -110.5911315 Eh     change        0.3904556E-07 Eh
 * total energy  :  -110.5911411 Eh     change       -0.9623411E-05 Eh
 * total energy  :  -110.5911455 Eh     change       -0.4369897E-05 Eh
 * total energy  :  -110.5911468 Eh     change       -0.1346693E-05 Eh
 * total energy  :  -110.5911490 Eh     change       -0.2114777E-05 Eh
 * total energy  :  -110.5911518 Eh     change       -0.2844339E-05 Eh
 * total energy  :  -110.5911544 Eh     change       -0.2639851E-05 Eh
 * total energy  :  -110.5911559 Eh     change       -0.1475545E-05 Eh
 * total energy  :  -110.5911571 Eh     change       -0.1153872E-05 Eh
 * total energy  :  -110.5911582 Eh     change       -0.1129008E-05 Eh
 * total energy  :  -110.5911615 Eh     change       -0.5451182E-06 Eh
 * total energy  :  -110.5911619 Eh     change       -0.3291573E-06 Eh
 * total energy  :  -110.5911622 Eh     change       -0.3276360E-06 Eh
 * total energy  :  -110.5911625 Eh     change       -0.3097797E-06 Eh
 * total energy  :  -110.5911628 Eh     change       -0.2410313E-06 Eh
 * total energy  :  -110.5911630 Eh     change       -0.2340166E-06 Eh
 * total energy  :  -110.5911632 Eh     change       -0.1909596E-06 Eh
 * total energy  :  -110.5911634 Eh     change       -0.1820534E-06 Eh
 * total energy  :  -110.5911634 Eh     change       -0.4475439E-08 Eh
   *** GEOMETRY OPTIMIZATION CONVERGED AFTER 22 ITERATIONS ***

 final structure:
================
70
 xtb: 6.7.1 (edcfbbe)
C           -2.58001330658508        4.74621188431824        0.01846205343028
C           -3.03740577416956        4.13887099073325        1.17733124818330
C           -3.33278216905245        2.78823710113211        1.18485168251821
C           -3.16828300716037        2.04088546491364        0.02147515245806
N           -3.46193366436775        0.66300412563883        0.02185597212685
C           -2.52858181304400       -0.38714365399259       -0.02152915272783
C           -1.13026086404372       -0.30079822350037        0.01426378949425
C           -0.39156546728157       -1.50869016738822       -0.19656364651415
C            0.96261497188111       -1.53039676088164       -0.18743943907338
C            1.73843193795426       -0.34969824841550        0.02877883253802
C            3.15855063245605       -0.35988824737996        0.01958385480690
C            3.91978009803910        0.83337318963865       -0.13217327325577
C            5.28274252946488        0.81991637611636       -0.14282637022556
C            6.00512253505044       -0.38230022026959        0.01160063505250
C            7.43403941466400       -0.35995050642735        0.00914288606888
C            8.32533009756669       -1.43059987934663        0.14232449976395
N            9.56737928199374       -0.90513121101121        0.08050063873218
C           10.79153965559944       -1.47931956603987        0.15403731847591
C           11.90541109895486       -0.69730281835022        0.06124212943319
C           11.78568470568526        0.69588711335806       -0.10978303101465
C           10.55133090785586        1.28296712481353       -0.18534122961570
C            9.40571588226276        0.47860992108048       -0.08988906515683
N            8.13348168957076        0.80099031319619       -0.13231558934810
C            5.26703116035278       -1.57412726997914        0.16582735479210
C            3.90276348796016       -1.56411732193222        0.16180711157069
C            0.99317890506046        0.84409493502365        0.27165618393494
C           -0.36414160102088        0.87320510797821        0.27437341497240
N           -3.16340449903354       -1.57058659645621       -0.06755884443324
C           -4.46616872400292       -1.31176251345267       -0.03250438365881
C           -5.54086585680733       -2.24858193722189       -0.02201761098863
C           -5.29006498904354       -3.62284074754274       -0.03183571417799
C           -6.33174137978049       -4.52013124807134        0.00207218228869
C           -7.63786748852485       -4.04323549497593        0.05063888395004
C           -7.89558597531174       -2.68941798380419        0.05723674308861
C           -6.86097285525651       -1.74427211802555        0.01593254884084
C           -7.09989587687772       -0.31065921985501       -0.00210044491729
C           -8.39548249401871        0.21467422789246       -0.02262104697152
C           -8.63875953744391        1.56964993841664       -0.06773961411377
C           -7.57472922185650        2.46856252138809       -0.10789774830365
C           -6.28726571670073        1.99949683551434       -0.08382432437515
C           -6.01210535772509        0.61897407219320       -0.01744668559081
C           -4.70544011309021        0.08555419602470        0.01108141231205
C           -2.71088994188654        2.64982146152151       -1.14311317208655
C           -2.41786701609115        4.00123320455586       -1.13844708498722
H           -2.34929849804313        5.80066404671888        0.01789646537499
H           -3.16193965646345        4.71808197829528        2.07989168032132
H           -3.69063956628310        2.30310106029662        2.08106173178119
H           -0.96256550163197       -2.40419331998850       -0.38241143173956
H            1.46753616967987       -2.46147412201393       -0.39180492004421
H            3.40768826366729        1.77098798295177       -0.28279322481589
H            5.84968693543818        1.72831127895009       -0.27439800912541
H            8.15562065032126       -2.47972020753081        0.27098634886481
H           10.82533185980722       -2.55041090836756        0.28553398326444
H           12.88038969621692       -1.15281159639299        0.11982545938765
H           12.67928242652232        1.29593801759047       -0.18054245784909
H           10.42145275226376        2.34388162295437       -0.31557508055383
H            5.79194364634041       -2.50892021422754        0.29614048214440
H            3.37763416849560       -2.49451710808707        0.31212586667156
H            1.52450486739356        1.75161557701202        0.51349303723251
H           -0.86373890339675        1.79751465687326        0.51442539944819
H           -4.26161598909603       -3.94710854365019       -0.06218347155361
H           -6.14226469488341       -5.58303285801132       -0.00492226091394
H           -8.46229980179026       -4.74090947527300        0.08355605004862
H           -8.92493697050134       -2.37063734976464        0.09793162923373
H           -9.24384076701055       -0.45044210112778       -0.00979355704429
H           -9.65489001900522        1.93455865344432       -0.08174780880368
H           -7.76320676749926        3.53053231635810       -0.16088740734771
H           -5.46919185531927        2.69954644897156       -0.12934362695548
H           -2.58371092212895        2.05706015879311       -2.03661171528542
H           -2.06314912118727        4.47402865680081       -2.04176944463686

 projected vibrational frequencies (cm⁻¹)
eigval :       -0.00    -0.00     0.00     0.00     0.00     0.00
eigval :        8.81    12.13    20.29    20.82    28.20    34.01
eigval :       47.73    55.96    60.56    63.82    70.94    85.20
eigval :       89.20   100.88   121.77   126.30   150.35   165.03
eigval :      197.75   210.62   221.87   227.92   242.10   247.18
eigval :      254.92   266.06   290.27   307.32   320.48   336.37
eigval :      363.31   373.43   375.85   379.74   392.35   394.54
eigval :      406.75   414.54   427.18   431.30   436.58   449.12
eigval :      467.67   483.85   502.96   503.49   504.22   525.07
eigval :      527.36   528.86   574.40   582.70   585.17   586.78
eigval :      598.16   612.82   615.44   630.86   633.76   637.41
eigval :      646.64   657.00   666.51   671.67   672.95   686.73
eigval :      688.87   693.60   703.82   709.77   730.76   745.71
eigval :      756.46   758.58   761.62   776.91   793.75   795.86
eigval :      800.94   812.14   822.30   830.63   838.27   855.46
eigval :      869.67   872.46   873.66   887.25   896.56   899.79
eigval :      901.84   902.89   905.00   905.22   912.66   914.18
eigval :      917.31   919.20   923.85   927.05   928.21   931.04
eigval :      935.86   940.42   979.46   991.43  1005.69  1020.70
eigval :     1055.54  1058.58  1077.57  1078.39  1083.21  1096.72
eigval :     1105.26  1114.85  1129.15  1132.89  1138.35  1148.46
eigval :     1154.69  1159.30  1162.96  1179.71  1181.33  1184.29
eigval :     1186.24  1202.03  1207.51  1215.04  1222.12  1240.72
eigval :     1247.26  1253.95  1259.82  1262.57  1272.43  1273.25
eigval :     1275.74  1285.16  1299.38  1309.26  1317.31  1321.78
eigval :     1333.89  1336.58  1337.84  1340.71  1353.99  1370.24
eigval :     1378.19  1390.29  1394.80  1407.38  1424.64  1430.85
eigval :     1433.41  1438.31  1444.86  1453.44  1465.69  1471.49
eigval :     1474.80  1479.75  1488.52  1490.67  1505.09  1521.50
eigval :     1544.78  1547.93  1550.57  1568.06  1575.10  1576.90
eigval :     1586.49  1588.58  1592.29  1605.36  3074.00  3078.35
eigval :     3078.64  3082.75  3085.09  3085.65  3086.24  3086.83
eigval :     3088.58  3090.19  3091.58  3095.42  3096.15  3097.03
eigval :     3097.77  3099.80  3102.40  3106.63  3107.22  3110.58
eigval :     3112.48  3114.55  3120.05  3124.62  3126.48  3178.13

   temp. (K)  partition function   enthalpy   heat capacity  entropy
                                   cal/mol     cal/K/mol   cal/K/mol   J/K/mol
 298.15  VIB  0.469E+16            19754.550    126.265    122.907
         ROT  0.902E+08              888.752      2.981     39.383
         INT  0.423E+24            20643.302    129.246    162.290
         TR   0.129E+29             1481.254      4.968     44.847
         TOT                       22124.5564   134.2143   207.1368   866.6604

       T/K    H(0)-H(T)+PV         H(T)/Eh          T*S/Eh         G(T)/Eh
   ------------------------------------------------------------------------
    298.15    0.352577E-01    0.565574E+00    0.984174E-01    0.467156E+00
   ------------------------------------------------------------------------

         :::::::::::::::::::::::::::::::::::::::::::::::::::::
         ::                  THERMODYNAMIC                  ::
         :::::::::::::::::::::::::::::::::::::::::::::::::::::
         :: total free energy        -110.124006873531 Eh   ::
         ::.................................................::
         :: total energy             -110.591163341631 Eh   ::
         :: zero point energy           0.530316119902 Eh   ::
         :: G(RRHO) w/o ZPVE           -0.063159651802 Eh   ::
         :: G(RRHO) contrib.            0.467156468100 Eh   ::
         :::::::::::::::::::::::::::::::::::::::::::::::::::::

           -------------------------------------------------
          | TOTAL ENERGY             -110.591163341631 Eh   |
          | TOTAL ENTHALPY           -110.025589496898 Eh   |
          | TOTAL FREE ENERGY        -110.124006873531 Eh   |
          | GRADIENT NORM               0.000049342569 Eh/α |
           -------------------------------------------------

 * finished run on 2025/07/16 at 13:44:27.452
