   * xtb version 6.7.1 (edcfbbe) compiled by 'albert@albert-system' on 2024-07-22

   ID    Z sym.   atoms
    1    7 N      1, 6, 14, 20, 28, 36
    2    6 C      2-5, 7-13, 15-19, 21-27, 29-35
    3    1 H      37-52

          program call               : xtb data2507/toluene/δ-2CbPN/δ-2CbPN.xyz --gfn 2 --gbsa toluene --ohess vtight --parallel 40 --molden --ceasefiles --namespace data2507/toluene/δ-2CbPN/δ-2CbPN_toluene_S0_preOpt
      * Solvation model:               GBSA
        Solvent                        toluene
        Solvent mass                       9.2140E+01 g/mol
          :  Hamiltonian                  GFN2-xTB          :
 * total energy  :   -89.9505102 Eh     change       -0.2175227E-08 Eh
 * total energy  :   -89.9645131 Eh     change       -0.1400284E-01 Eh
 * total energy  :   -89.9676110 Eh     change       -0.3097955E-02 Eh
 * total energy  :   -89.9680776 Eh     change       -0.4665760E-03 Eh
 * total energy  :   -89.9684355 Eh     change       -0.3579171E-03 Eh
 * total energy  :   -89.9687394 Eh     change       -0.3039139E-03 Eh
 * total energy  :   -89.9688339 Eh     change       -0.9451297E-04 Eh
 * total energy  :   -89.9689077 Eh     change       -0.7372647E-04 Eh
 * total energy  :   -89.9689622 Eh     change       -0.5458572E-04 Eh
 * total energy  :   -89.9690273 Eh     change       -0.6501625E-04 Eh
 * total energy  :   -89.9700893 Eh     change       -0.6306161E-05 Eh
 * total energy  :   -89.9700915 Eh     change       -0.2194110E-05 Eh
 * total energy  :   -89.9700923 Eh     change       -0.7316891E-06 Eh
 * total energy  :   -89.9700925 Eh     change       -0.2301225E-06 Eh
 * total energy  :   -89.9700924 Eh     change        0.7050610E-07 Eh
 * total energy  :   -89.9700923 Eh     change        0.9767020E-07 Eh
 * total energy  :   -89.9700924 Eh     change       -0.5518962E-07 Eh
 * total energy  :   -89.9700926 Eh     change       -0.1910144E-06 Eh
 * total energy  :   -89.9700926 Eh     change       -0.2417805E-07 Eh
   *** GEOMETRY OPTIMIZATION CONVERGED AFTER 41 ITERATIONS ***

 final structure:
================
52
 xtb: 6.7.1 (edcfbbe)
N           -1.82786259052550       -6.22472287054455        0.83049693318719
C           -1.28878394821294       -5.24159655348882        0.59076905218516
C           -0.64034503099350       -4.02132250049190        0.29329253846425
C           -1.25959760754270       -2.81303345285415        0.59168160352239
C           -0.63549975147311       -1.60192879229175        0.31159160176403
N           -1.26248568508058       -0.40690189645843        0.65971066026301
C           -2.54321878060300       -0.01500524958789        0.27926460663917
C           -3.50392045532885       -0.71446998636677       -0.43510311507187
C           -4.69484470242402       -0.06865914874771       -0.71532362211583
C           -4.92771751639676        1.24229253153952       -0.30578569929299
C           -3.96697825194986        1.95052545565958        0.38869719365030
C           -2.76475302429506        1.31950450004209        0.68192873758767
C           -1.56723073164819        1.74914396383064        1.35021864932863
N           -1.28302525668314        2.91160726363895        1.91704196804766
C           -0.09874399356490        3.01247619854366        2.49356168309999
C            0.82341361447902        1.97089241248478        2.57673477005415
C            0.53907718542239        0.74736478165430        1.99200489212525
C           -0.66974137860053        0.65171700734412        1.32253563028975
C            0.63537159416245       -1.60202131779261       -0.31172212650917
N            1.26250357032460       -0.40708792591524       -0.65991327866559
C            2.54319481440375       -0.01525567616743       -0.27926724977692
C            3.50371068629192       -0.71475830857502        0.43531336932342
C            4.69457173679969       -0.06897050190117        0.71584988145180
C            4.92756592545208        1.24198545868985        0.30638825461341
C            3.96703211155369        1.95023168576245       -0.38836595387903
C            2.76486478179696        1.31923949515304       -0.68190405269512
C            1.56748922239077        1.74891477173286       -1.35043679225718
N            1.28345675725596        2.91136231879354       -1.91737891758367
C            0.09927128694187        3.01228132249947       -2.49408689693963
C           -0.82299078250716        1.97079077511569       -2.57725971771358
C           -0.53884685364841        0.74728544572847       -1.99239211978517
C            0.66991189539570        0.65155750032667       -1.32282538582687
C            1.25934813600721       -2.81320526567276       -0.59172591249336
C            0.63997100402325       -4.02141195318587       -0.29325538225669
C            1.28830026174754       -5.24176394992634       -0.59062875996865
N            1.82729538992326       -6.22495226389546       -0.83021456064696
H           -2.22267188309175       -2.81393608591996        1.07952072259897
H           -3.33542016378864       -1.72550087572765       -0.77438673264294
H           -5.45907743553836       -0.59523438816576       -1.26690180612326
H           -5.87138204221203        1.70906523615340       -0.54339990512462
H           -4.12602324061636        2.97069125534790        0.69977391432870
H            0.11830051581984        3.97547484147977        2.93533564493180
H            1.75427174573810        2.11628605577835        3.10120051392483
H            1.22596471309903       -0.08200849385134        2.07291104263838
H            3.33509227810835       -1.72578293011197        0.77455373721885
H            5.45864253009747       -0.59555379949142        1.26764488378850
H            5.87116728608371        1.70874450297699        0.54426717783443
H            4.12618973307958        2.97038459892937       -0.69941810013606
H           -0.11763301044523        3.97527441153593       -2.93595239705274
H           -1.75378706682775        2.11624826671177       -3.10181691049236
H           -1.22582563480022       -0.08201748792562       -2.07327216297995
H            2.22243004240022       -2.81423738238475       -1.07955010483756

          :  Hamiltonian                  GFN2-xTB          :
         :: gradient norm              0.000050589737 Eh/a0 ::
         :: HOMO-LUMO gap              1.708148685984 eV    ::
         :: SCC energy               -91.647567860623 Eh    ::
         :: -> dispersion             -0.084242265178 Eh    ::
         :: -> Gsolv                  -0.041675985373 Eh    ::
         :: repulsion energy           1.677475266366 Eh    ::

    * Orbital Energies and Occupations

         #    Occupation            Energy/Eh            Energy/eV
      -------------------------------------------------------------
         1        2.0000           -0.7209392             -19.6178
       ...           ...                  ...                  ...
        71        2.0000           -0.4499171             -12.2429
        72        2.0000           -0.4483783             -12.2010
        73        2.0000           -0.4477731             -12.1845
        74        2.0000           -0.4393044             -11.9541
        75        2.0000           -0.4386951             -11.9375
        76        2.0000           -0.4349415             -11.8354
        77        2.0000           -0.4343094             -11.8182
        78        2.0000           -0.4079359             -11.1005
        79        2.0000           -0.4033992             -10.9771
        80        2.0000           -0.3956125             -10.7652
        81        2.0000           -0.3926927             -10.6857
        82        2.0000           -0.3826232             -10.4117
        83        2.0000           -0.3819914             -10.3945 (HOMO)
        84                         -0.3192180              -8.6864 (LUMO)
        85                         -0.2955375              -8.0420
        86                         -0.2767350              -7.5303
        87                         -0.2764335              -7.5221
        88                         -0.2544886              -6.9250
        89                         -0.2471287              -6.7247
        90                         -0.2390067              -6.5037
        91                         -0.2343235              -6.3763
        92                         -0.2342531              -6.3744
        93                         -0.2218823              -6.0377
        94                         -0.2109264              -5.7396
       ...                                ...                  ...
       160                          1.1578538              31.5068
      -------------------------------------------------------------
                  HL-Gap            0.0627734 Eh            1.7082 eV

     #   Z          covCN         q      C6AA      α(0)
     1   7 N        0.911    -0.234    26.138     7.394
     2   6 C        1.910     0.120    28.150     8.569
     3   6 C        2.975     0.024    27.469     8.597
     4   6 C        2.928    -0.031    28.776     8.797
     5   6 C        2.909     0.059    26.678     8.469
     6   7 N        2.797    -0.045    22.109     6.983
     7   6 C        3.070     0.045    26.917     8.507
     8   6 C        2.910    -0.049    29.226     8.865
     9   6 C        2.924    -0.027    28.685     8.783
    10   6 C        2.920    -0.034    28.851     8.808
    11   6 C        2.912    -0.025    28.620     8.772
    12   6 C        3.062    -0.021    28.471     8.750
    13   6 C        3.070     0.076    26.239     8.399
    14   7 N        1.833    -0.246    27.267     7.738
    15   6 C        2.923     0.054    26.791     8.488
    16   6 C        2.922    -0.045    29.113     8.848
    17   6 C        2.915    -0.035    28.869     8.811
    18   6 C        3.066     0.035    27.144     8.543
    19   6 C        2.909     0.059    26.678     8.469
    20   7 N        2.797    -0.045    22.109     6.983
    21   6 C        3.070     0.045    26.917     8.507
    22   6 C        2.910    -0.049    29.226     8.865
    23   6 C        2.924    -0.027    28.685     8.783
    24   6 C        2.920    -0.034    28.851     8.808
    25   6 C        2.912    -0.025    28.620     8.772
    26   6 C        3.062    -0.021    28.471     8.750
    27   6 C        3.070     0.076    26.239     8.399
    28   7 N        1.833    -0.246    27.267     7.738
    29   6 C        2.923     0.054    26.791     8.488
    30   6 C        2.922    -0.045    29.113     8.848
    31   6 C        2.915    -0.035    28.869     8.811
    32   6 C        3.066     0.035    27.144     8.543
    33   6 C        2.928    -0.031    28.775     8.797
    34   6 C        2.975     0.024    27.469     8.597
    35   6 C        1.910     0.120    28.150     8.569
    36   7 N        0.911    -0.234    26.138     7.394
    37   1 H        0.926     0.073     2.055     2.242
    38   1 H        0.926     0.037     2.487     2.466
    39   1 H        0.926     0.048     2.343     2.394
    40   1 H        0.926     0.048     2.351     2.398
    41   1 H        0.926     0.053     2.287     2.365
    42   1 H        0.925     0.042     2.424     2.435
    43   1 H        0.926     0.046     2.368     2.406
    44   1 H        0.926     0.034     2.531     2.488
    45   1 H        0.926     0.037     2.487     2.466
    46   1 H        0.926     0.048     2.343     2.394
    47   1 H        0.926     0.048     2.351     2.398
    48   1 H        0.926     0.053     2.287     2.365
    49   1 H        0.925     0.042     2.424     2.435
    50   1 H        0.926     0.046     2.368     2.406
    51   1 H        0.926     0.034     2.531     2.488
    52   1 H        0.926     0.073     2.055     2.242

molecular dipole:
                 x           y           z       tot (Debye)
 q only:       -0.000       1.332      -0.000
   full:       -0.000       1.409      -0.000       3.581

 projected vibrational frequencies (cm⁻¹)
eigval :       -0.00    -0.00    -0.00    -0.00     0.00     0.00
eigval :       21.84    29.51    38.09    46.14    48.52    52.05
eigval :       89.28    98.20   106.25   107.71   121.26   137.34
eigval :      146.12   157.57   172.64   183.12   196.24   206.02
eigval :      260.06   268.47   278.72   283.02   308.25   310.42
eigval :      348.65   390.54   399.10   403.86   420.58   421.29
eigval :      426.98   434.15   444.30   446.65   481.13   482.01
eigval :      519.76   521.12   529.98   530.33   543.04   546.58
eigval :      550.77   568.61   587.76   595.79   596.21   600.25
eigval :      652.57   655.30   668.20   682.37   684.25   689.55
eigval :      709.96   725.20   725.94   750.21   759.58   770.36
eigval :      776.80   776.83   797.16   798.07   840.75   867.37
eigval :      870.68   885.01   894.21   899.77   900.69   902.99
eigval :      908.85   913.06   913.63   915.32   915.37   926.64
eigval :      926.75   960.39  1021.72  1022.65  1067.22  1067.82
eigval :     1076.93  1091.07  1091.17  1118.41  1138.01  1143.59
eigval :     1144.08  1164.24  1167.76  1176.17  1177.10  1202.16
eigval :     1210.25  1217.24  1226.59  1229.70  1253.33  1280.95
eigval :     1281.57  1291.52  1292.68  1308.52  1315.91  1331.66
eigval :     1332.05  1350.91  1352.07  1359.95  1376.84  1395.64
eigval :     1407.27  1419.87  1421.07  1465.33  1466.71  1476.15
eigval :     1480.81  1481.13  1498.52  1546.03  1557.80  1558.08
eigval :     1580.25  1580.50  1585.53  1586.34  1602.64  1603.12
eigval :     2365.91  2366.42  3065.48  3065.56  3076.57  3076.60
eigval :     3080.90  3081.00  3088.72  3088.73  3097.45  3097.49
eigval :     3103.51  3103.74  3104.35  3104.52  3109.14  3109.21

   temp. (K)  partition function   enthalpy   heat capacity  entropy
                                   cal/mol     cal/K/mol   cal/K/mol   J/K/mol
 298.15  VIB  0.517E+11            15403.773     99.771     93.700
         ROT  0.109E+08              888.752      2.981     35.192
         INT  0.566E+18            16292.526    102.752    128.892
         TR   0.956E+28             1481.254      4.968     44.250
         TOT                       17773.7796   107.7204   173.1418   724.4253

       T/K    H(0)-H(T)+PV         H(T)/Eh          T*S/Eh         G(T)/Eh
   ------------------------------------------------------------------------
    298.15    0.283243E-01    0.402627E+00    0.822653E-01    0.320362E+00
   ------------------------------------------------------------------------

         :::::::::::::::::::::::::::::::::::::::::::::::::::::
         ::                  THERMODYNAMIC                  ::
         :::::::::::::::::::::::::::::::::::::::::::::::::::::
         :: total free energy         -89.649730584977 Eh   ::
         ::.................................................::
         :: total energy              -89.970092597218 Eh   ::
         :: zero point energy           0.374302949132 Eh   ::
         :: G(RRHO) w/o ZPVE           -0.053940936890 Eh   ::
         :: G(RRHO) contrib.            0.320362012241 Eh   ::
         :::::::::::::::::::::::::::::::::::::::::::::::::::::

           -------------------------------------------------
          | TOTAL ENERGY              -89.970092597218 Eh   |
          | TOTAL ENTHALPY            -89.567465327306 Eh   |
          | TOTAL FREE ENERGY         -89.649730584977 Eh   |
          | GRADIENT NORM               0.000050520068 Eh/α |
          | HOMO-LUMO GAP               1.708150471611 eV   |
           -------------------------------------------------

 * finished run on 2025/07/16 at 17:18:19.644
