   * xtb version 6.7.1 (edcfbbe) compiled by 'albert@albert-system' on 2024-07-22

   ID    Z sym.   atoms
    1    7 N      1, 6, 14, 20, 28, 36
    2    6 C      2-5, 7-13, 15-19, 21-27, 29-35
    3    1 H      37-52

          program call               : xtb data2507/toluene/δ-2CbPN/δ-2CbPN_toluene_S0_finalOpt.xtbopt.xyz --gfn 2 --uhf 2 --gbsa toluene --ohess vtight --parallel 40 --molden --ceasefiles --namespace data2507/toluene/δ-2CbPN/δ-2CbPN_toluene_T1_preOpt
      * Solvation model:               GBSA
        Solvent                        toluene
        Solvent mass                       9.2140E+01 g/mol
          :  Hamiltonian                  GFN2-xTB          :
 * total energy  :   -89.8794204 Eh     change       -0.6123140E-07 Eh
 * total energy  :   -89.8826611 Eh     change       -0.3240678E-02 Eh
 * total energy  :   -89.8834196 Eh     change       -0.7584643E-03 Eh
 * total energy  :   -89.8836083 Eh     change       -0.1886958E-03 Eh
 * total energy  :   -89.8837794 Eh     change       -0.1711556E-03 Eh
 * total energy  :   -89.8837978 Eh     change       -0.1838215E-04 Eh
 * total energy  :   -89.8837873 Eh     change        0.1047965E-04 Eh
 * total energy  :   -89.8838219 Eh     change       -0.3457390E-04 Eh
 * total energy  :   -89.8838188 Eh     change        0.3120993E-05 Eh
 * total energy  :   -89.8838343 Eh     change       -0.1554921E-04 Eh
 * total energy  :   -89.8839512 Eh     change       -0.3186809E-06 Eh
 * total energy  :   -89.8839515 Eh     change       -0.2067675E-06 Eh
 * total energy  :   -89.8839516 Eh     change       -0.1776652E-06 Eh
 * total energy  :   -89.8839518 Eh     change       -0.1986501E-06 Eh
 * total energy  :   -89.8839521 Eh     change       -0.2869737E-06 Eh
 * total energy  :   -89.8839525 Eh     change       -0.3385748E-06 Eh
 * total energy  :   -89.8839528 Eh     change       -0.3000567E-06 Eh
 * total energy  :   -89.8839530 Eh     change       -0.2578664E-06 Eh
 * total energy  :   -89.8839530 Eh     change       -0.2815042E-08 Eh
   *** GEOMETRY OPTIMIZATION CONVERGED AFTER 44 ITERATIONS ***

 final structure:
================
52
 xtb: 6.7.1 (edcfbbe)
N           -5.93749133042267       -1.87200927806510       -0.76971614629491
C           -4.94808581773822       -1.31404763778058       -0.54422191483752
C           -3.75189403624678       -0.67113429008461       -0.26226566182245
C           -2.53293595262359       -1.30574662428335       -0.49845536803753
C           -1.33059833990934       -0.66903224259607       -0.27350315417717
N           -0.12205553727261       -1.28000480047574       -0.61358157504103
C            0.30499917678061       -2.52516934122418       -0.18573898638676
C           -0.36360806046536       -3.47191149033600        0.58190290697452
C            0.31507005704097       -4.63086197481597        0.91268278426456
C            1.62748167973420       -4.85054835782277        0.49610177600324
C            2.30904418203539       -3.90449463815544       -0.25027839217058
C            1.64886941393131       -2.73130587254796       -0.58692881674972
C            2.03813105509605       -1.55510008631635       -1.31054309042852
N            3.17713725252111       -1.24518073525607       -1.90250064359959
C            3.24211414826592       -0.09679279475403       -2.54629297424737
C            2.16987827937585        0.78997963359021       -2.65330986296102
C            0.96073104293893        0.48668797095903       -2.04822058985500
C            0.90379067256979       -0.69235624508266       -1.32147189470695
C           -1.32650752154055        0.67862465590583        0.26967253048313
N           -0.11442539951698        1.28121549954776        0.61211190832334
C            0.32206880907497        2.52354217162101        0.18555161968133
C           -0.33844991408711        3.47516429743928       -0.58306272678830
C            0.34879393385002        4.62963568464341       -0.91182566333419
C            1.66179077441847        4.84018450542574       -0.49238410331528
C            2.33534692692905        3.88912711865843        0.25489915944583
C            1.66650374326528        2.72029580163933        0.58960425952137
C            2.04619944266478        1.54118976755888        1.31359269342351
N            3.18176320949099        1.22325636961336        1.90793202747166
C            3.23733967661668        0.07437098781004        2.55171904441027
C            2.15871450138915       -0.80490006881044        2.65640250006374
C            0.95302744782052       -0.49312415582682        2.04873707857168
C            0.90589231539995        0.68632445468669        1.32195222885379
C           -2.52489772351044        1.32346985218743        0.49252561502493
C           -3.74770925528965        0.69714297931256        0.25416605921483
C           -4.94004132536282        1.34803900610795        0.53415005088222
N           -5.92615348510950        1.91245613535468        0.75801240137543
H           -2.54122573838945       -2.29916735876721       -0.92341222733654
H           -1.37783532178945       -3.31215031991987        0.91424947493162
H           -0.18532571614402       -5.38044691690237        1.50624313262736
H            2.12026692611001       -5.77020538354344        0.77126090164336
H            3.33051001073945       -4.05669273546793       -0.55999201191124
H            4.18852714315057        0.11936026199371       -3.02116411254379
H            2.27936075739651        1.69619860652398       -3.22586108286662
H            0.09986291671543        1.12854142777280       -2.16503007242000
H           -1.35302350284651        3.32247502774744       -0.91768116776867
H           -0.14526036646480        5.38293400910051       -1.50600452948479
H            2.16140108897180        5.75661178725072       -0.76601141967991
H            3.35719066879593        4.03424816135675        0.56675091076576
H            4.18115526437723       -0.14847756529818        3.02864587539365
H            2.26061197397185       -1.71184974715717        3.22919656224391
H            0.08742946425955       -1.12891821997377        2.16364933740364
H           -2.52719336616601        2.31689132963281        0.91754313815187

          :  Hamiltonian                  GFN2-xTB          :
         :: gradient norm              0.000041415469 Eh/a0 ::
         :: HOMO-LUMO gap              0.313366532355 eV    ::
         :: SCC energy               -91.542788445159 Eh    ::
         :: -> dispersion             -0.084179128910 Eh    ::
         :: -> Gsolv                  -0.050541801550 Eh    ::
         :: repulsion energy           1.658835426200 Eh    ::

    * Orbital Energies and Occupations

         #    Occupation            Energy/Eh            Energy/eV
      -------------------------------------------------------------
         1        2.0000           -0.7160698             -19.4852
       ...           ...                  ...                  ...
        72        2.0000           -0.4464671             -12.1490
        73        2.0000           -0.4454719             -12.1219
        74        2.0000           -0.4367156             -11.8836
        75        2.0000           -0.4221184             -11.4864
        76        2.0000           -0.4199472             -11.4273
        77        2.0000           -0.4183139             -11.3829
        78        2.0000           -0.4174246             -11.3587
        79        2.0000           -0.4131664             -11.2428
        80        1.9971           -0.4011596             -10.9161
        81        1.9244           -0.3979868             -10.8298
        82        1.9099           -0.3978053             -10.8248
        83        1.1686           -0.3940926             -10.7238
        84        0.9968           -0.2990567              -8.1377 (HOMO)
        85        0.0017           -0.2875404              -7.8244 (LUMO)
        86        0.0015           -0.2874555              -7.8221
        87                         -0.2694057              -7.3309
        88                         -0.2648395              -7.2066
        89                         -0.2578335              -7.0160
        90                         -0.2356924              -6.4135
        91                         -0.2305939              -6.2748
        92                         -0.2209981              -6.0137
        93                         -0.2200072              -5.9867
        94                         -0.2060871              -5.6079
        95                         -0.2052079              -5.5840
       ...                                ...                  ...
       160                          1.1724855              31.9050
      -------------------------------------------------------------
                  HL-Gap            0.0115163 Eh            0.3134 eV

     #   Z          covCN         q      C6AA      α(0)
     1   7 N        0.911    -0.323    28.310     7.695
     2   6 C        1.910     0.102    28.566     8.632
     3   6 C        2.965    -0.011    28.287     8.724
     4   6 C        2.921    -0.033    28.820     8.803
     5   6 C        2.904     0.028    27.379     8.580
     6   7 N        2.795    -0.012    21.492     6.885
     7   6 C        3.076     0.045    26.905     8.504
     8   6 C        2.909    -0.038    28.933     8.820
     9   6 C        2.922    -0.025    28.637     8.776
    10   6 C        2.920    -0.025    28.624     8.774
    11   6 C        2.910    -0.020    28.501     8.754
    12   6 C        3.059    -0.019    28.411     8.741
    13   6 C        3.061     0.072    26.332     8.415
    14   7 N        1.834    -0.200    26.162     7.580
    15   6 C        2.914     0.054    26.779     8.486
    16   6 C        2.921    -0.042    29.047     8.838
    17   6 C        2.914    -0.029    28.722     8.788
    18   6 C        3.070     0.032    27.203     8.552
    19   6 C        2.904     0.028    27.379     8.580
    20   7 N        2.795    -0.012    21.492     6.885
    21   6 C        3.076     0.045    26.905     8.504
    22   6 C        2.909    -0.038    28.933     8.820
    23   6 C        2.922    -0.025    28.637     8.776
    24   6 C        2.920    -0.025    28.624     8.774
    25   6 C        2.910    -0.020    28.501     8.754
    26   6 C        3.059    -0.019    28.411     8.741
    27   6 C        3.061     0.072    26.332     8.415
    28   7 N        1.834    -0.200    26.162     7.580
    29   6 C        2.914     0.054    26.779     8.486
    30   6 C        2.921    -0.042    29.047     8.838
    31   6 C        2.914    -0.029    28.723     8.788
    32   6 C        3.070     0.032    27.203     8.552
    33   6 C        2.921    -0.033    28.820     8.803
    34   6 C        2.965    -0.011    28.287     8.724
    35   6 C        1.910     0.102    28.566     8.632
    36   7 N        0.911    -0.323    28.310     7.695
    37   1 H        0.926     0.047     2.353     2.399
    38   1 H        0.926     0.048     2.345     2.395
    39   1 H        0.926     0.056     2.244     2.343
    40   1 H        0.926     0.059     2.214     2.327
    41   1 H        0.926     0.063     2.164     2.300
    42   1 H        0.926     0.059     2.208     2.324
    43   1 H        0.926     0.061     2.192     2.315
    44   1 H        0.926     0.049     2.334     2.389
    45   1 H        0.926     0.048     2.345     2.395
    46   1 H        0.926     0.056     2.244     2.343
    47   1 H        0.926     0.059     2.214     2.327
    48   1 H        0.926     0.063     2.164     2.300
    49   1 H        0.926     0.059     2.208     2.324
    50   1 H        0.926     0.061     2.192     2.315
    51   1 H        0.926     0.049     2.334     2.389
    52   1 H        0.926     0.047     2.353     2.399

molecular dipole:
                 x           y           z       tot (Debye)
 q only:        5.790      -0.019       0.005
   full:        5.831      -0.020       0.005      14.821

 projected vibrational frequencies (cm⁻¹)
eigval :       -0.00    -0.00     0.00     0.00     0.00     0.00
eigval :       21.66    29.79    39.77    41.41    49.76    55.51
eigval :       86.38    98.70   105.71   108.97   118.06   140.82
eigval :      143.19   155.96   171.43   178.38   193.78   196.43
eigval :      254.65   263.40   266.63   282.24   307.60   317.52
eigval :      336.40   363.02   365.95   383.73   384.15   400.52
eigval :      416.39   418.86   435.17   439.85   460.97   467.72
eigval :      479.80   512.57   514.62   515.94   519.12   524.82
eigval :      546.43   548.84   576.02   576.93   586.58   590.58
eigval :      593.47   637.01   645.95   661.09   670.46   675.74
eigval :      682.45   713.56   714.60   731.57   754.81   759.77
eigval :      760.17   764.96   771.27   772.09   831.34   863.44
eigval :      867.81   880.52   884.17   890.54   895.50   896.08
eigval :      896.89   905.12   905.32   911.44   912.49   920.45
eigval :      921.15   934.20  1014.08  1014.91  1057.02  1061.35
eigval :     1069.39  1083.20  1083.47  1096.39  1131.49  1131.98
eigval :     1141.49  1157.55  1157.92  1170.35  1171.09  1183.27
eigval :     1187.98  1199.57  1217.85  1220.29  1249.72  1261.22
eigval :     1262.74  1276.48  1280.23  1309.42  1312.55  1314.61
eigval :     1319.76  1335.37  1342.92  1345.71  1346.18  1365.16
eigval :     1366.26  1391.88  1397.56  1416.33  1427.85  1441.04
eigval :     1447.53  1450.43  1471.00  1473.08  1512.49  1522.10
eigval :     1538.73  1544.26  1558.86  1561.51  1568.04  1570.53
eigval :     2237.34  2252.29  3075.24  3075.43  3076.72  3076.89
eigval :     3086.00  3086.06  3089.76  3089.96  3095.33  3095.57
eigval :     3103.20  3103.38  3111.56  3111.66  3112.87  3113.15

   temp. (K)  partition function   enthalpy   heat capacity  entropy
                                   cal/mol     cal/K/mol   cal/K/mol   J/K/mol
 298.15  VIB  0.801E+11            15779.015    101.951     95.845
         ROT  0.109E+08              888.752      2.981     35.176
         INT  0.870E+18            16667.768    104.932    131.022
         TR   0.956E+28             1481.254      4.968     44.250
         TOT                       18149.0218   109.9003   175.2715   733.3358

       T/K    H(0)-H(T)+PV         H(T)/Eh          T*S/Eh         G(T)/Eh
   ------------------------------------------------------------------------
    298.15    0.289223E-01    0.398311E+00    0.832771E-01    0.315033E+00
   ------------------------------------------------------------------------

         :::::::::::::::::::::::::::::::::::::::::::::::::::::
         ::                  THERMODYNAMIC                  ::
         :::::::::::::::::::::::::::::::::::::::::::::::::::::
         :: total free energy         -89.568919522503 Eh   ::
         ::.................................................::
         :: total energy              -89.883953017719 Eh   ::
         :: zero point energy           0.369388320449 Eh   ::
         :: G(RRHO) w/o ZPVE           -0.054354825233 Eh   ::
         :: G(RRHO) contrib.            0.315033495216 Eh   ::
         :::::::::::::::::::::::::::::::::::::::::::::::::::::

           -------------------------------------------------
          | TOTAL ENERGY              -89.883953017719 Eh   |
          | TOTAL ENTHALPY            -89.485642390121 Eh   |
          | TOTAL FREE ENERGY         -89.568919522503 Eh   |
          | GRADIENT NORM               0.000041759625 Eh/α |
          | HOMO-LUMO GAP               0.313375472511 eV   |
           -------------------------------------------------

 * finished run on 2025/07/16 at 17:20:26.354
