   * xtb version 6.7.1 (edcfbbe) compiled by 'albert@albert-system' on 2024-07-22

   ID    Z sym.   atoms
    1    7 N      1, 6, 14, 20, 28, 36
    2    6 C      2-5, 7-13, 15-19, 21-27, 29-35
    3    1 H      37-52

          program call               : xtb data2507/toluene/δ-2CbPN/δ-2CbPN_toluene_T1_crest.xyz --gfn 2 --uhf 2 --gbsa toluene --ohess vtight --parallel 40 --molden --ceasefiles --namespace data2507/toluene/δ-2CbPN/δ-2CbPN_toluene_T1_finalOpt
      * Solvation model:               GBSA
        Solvent                        toluene
        Solvent mass                       9.2140E+01 g/mol
          :  Hamiltonian                  GFN2-xTB          :
 * total energy  :   -89.8846716 Eh     change       -0.2192621E-08 Eh
 * total energy  :   -89.8847915 Eh     change       -0.1199342E-03 Eh
 * total energy  :   -89.8848666 Eh     change       -0.7506406E-04 Eh
 * total energy  :   -89.8848993 Eh     change       -0.3278723E-04 Eh
 * total energy  :   -89.8849438 Eh     change       -0.4450194E-04 Eh
 * total energy  :   -89.8849806 Eh     change       -0.3675919E-04 Eh
 * total energy  :   -89.8850146 Eh     change       -0.3403505E-04 Eh
 * total energy  :   -89.8850385 Eh     change       -0.2384687E-04 Eh
 * total energy  :   -89.8850746 Eh     change       -0.3612834E-04 Eh
 * total energy  :   -89.8851024 Eh     change       -0.2777137E-04 Eh
 * total energy  :   -89.8855990 Eh     change       -0.3252032E-06 Eh
 * total energy  :   -89.8855993 Eh     change       -0.3050170E-06 Eh
 * total energy  :   -89.8855996 Eh     change       -0.2881083E-06 Eh
 * total energy  :   -89.8855998 Eh     change       -0.2569629E-06 Eh
 * total energy  :   -89.8856001 Eh     change       -0.2411588E-06 Eh
 * total energy  :   -89.8856003 Eh     change       -0.1860676E-06 Eh
 * total energy  :   -89.8856004 Eh     change       -0.1622428E-06 Eh
 * total energy  :   -89.8856006 Eh     change       -0.1387232E-06 Eh
 * total energy  :   -89.8856007 Eh     change       -0.9763679E-07 Eh
   *** GEOMETRY OPTIMIZATION CONVERGED AFTER 65 ITERATIONS ***

 final structure:
================
52
 xtb: 6.7.1 (edcfbbe)
N           -5.93835953370960       -1.82953113817358        0.87793720633455
C           -4.95051615943134       -1.28193182575410        0.62215694656751
C           -3.75480959019567       -0.65368473795169        0.30649474992111
C           -2.53519343925114       -1.26553519703766        0.59106733405179
C           -1.33106215335905       -0.64596686108146        0.32628902632374
N           -0.12945282835341       -1.23791682883575        0.71406285940187
C            0.91788656328501       -0.60297527616789        1.36356228696884
C            0.92873090615822        0.61917056275141        2.02174813317376
C            2.11017307487378        1.01887645043626        2.62039917779262
C            3.25082232352185        0.21907831149088        2.58343359372297
C            3.23195942165503       -1.02523305715329        1.97932829158748
C            2.05526874132493       -1.44444142544970        1.37266435244743
C            1.65550126911996       -2.66195957552492        0.73011036662280
N            2.32985335579962       -3.76889896235674        0.48423804764770
C            1.71421489848491       -4.74587695379434       -0.14881087261153
C            0.39816277138064       -4.65689918975181       -0.60612166274260
C           -0.34743240472850       -3.51973162381254       -0.33776124489628
C            0.28611734786832       -2.50011955053466        0.35710039775863
C           -1.32752828148463        0.65406844950978       -0.32386757839860
N           -0.12288317917754        1.23860861432806       -0.71344973079374
C            0.91964789066562        0.59732761858496       -1.36444964425066
C            0.92207663887360       -0.62474562672170       -2.02285635517411
C            2.10019098525888       -1.03158216603176       -2.62326244227852
C            3.24580531691093       -0.23884297807632       -2.58767421332564
C            3.23545466720129        1.00540541272368       -1.98322724531732
C            2.06218152546209        1.43176242449741       -1.37493416001145
C            1.67082387557635        2.65158625869395       -0.73157434325199
N            2.35237527815553        3.75424686122052       -0.48630207180945
C            1.74362409326651        4.73484283124960        0.14782038821114
C            0.42764296065677        4.65394112521133        0.60683493766056
C           -0.32533434474398        3.52147892166012        0.33919312236662
C            0.30097263794839        2.49814538129063       -0.35676987617253
C           -2.52816579748713        1.28130355984445       -0.58639732797947
C           -3.75113751666348        0.67736231115195       -0.29929792519101
C           -4.94339739498924        1.31344803438226       -0.61225970119684
N           -5.92817643875429        1.86765255480882       -0.86563095348096
H           -2.54363496388333       -2.22598273152295        1.08664313886375
H            0.03894272735067        1.22665733997902        2.08849489975896
H            2.14401474159421        1.96692497775722        3.13488499089022
H            4.15667433127302        0.57308906797308        3.05050969644907
H            4.09966394796575       -1.66498415037292        1.97538512715590
H            2.29279173312498       -5.64659163772358       -0.29815802489330
H           -0.04199631585939       -5.48413287715886       -1.13863532035340
H           -1.37876615736354       -3.44609816836262       -0.64949780973221
H            0.02850662007274       -1.22678944519444       -2.08836319537777
H            2.12742947635923       -1.97969122772048       -3.13803670540485
H            4.14885029544728       -0.59830927995238       -3.05601909325924
H            4.10710680699830        1.63977155533207       -1.98024240398873
H            2.32796752965307        5.63191167315663        0.29665683879554
H           -0.00665442539134        5.48384537017529        1.14002402422864
H           -1.35669314768938        3.45413194997531        0.65226706928851
H           -2.53137748707105        2.24177427953468       -1.08198932740051

          :  Hamiltonian                  GFN2-xTB          :
         :: gradient norm              0.000032240412 Eh/a0 ::
         :: HOMO-LUMO gap              0.312301585756 eV    ::
         :: SCC energy               -91.546134788571 Eh    ::
         :: -> dispersion             -0.084702456022 Eh    ::
         :: -> Gsolv                  -0.050258066936 Eh    ::
         :: repulsion energy           1.660534098294 Eh    ::

    * Orbital Energies and Occupations

         #    Occupation            Energy/Eh            Energy/eV
      -------------------------------------------------------------
         1        2.0000           -0.7139510             -19.4276
       ...           ...                  ...                  ...
        72        2.0000           -0.4443527             -12.0915
        73        2.0000           -0.4435893             -12.0707
        74        2.0000           -0.4363637             -11.8741
        75        2.0000           -0.4216248             -11.4730
        76        2.0000           -0.4195074             -11.4154
        77        2.0000           -0.4179880             -11.3740
        78        2.0000           -0.4163409             -11.3292
        79        2.0000           -0.4112436             -11.1905
        80        1.9991           -0.4007816             -10.9058
        81        1.9982           -0.4000637             -10.8863
        82        1.9759           -0.3975893             -10.8190
        83        1.0268           -0.3906619             -10.6305
        84        0.9971           -0.2984469              -8.1212 (HOMO)
        85        0.0020           -0.2869697              -7.8088 (LUMO)
        86        0.0009           -0.2862593              -7.7895
        87                         -0.2688209              -7.3150
        88                         -0.2641343              -7.1875
        89                         -0.2573876              -7.0039
        90                         -0.2350950              -6.3973
        91                         -0.2287342              -6.2242
        92                         -0.2196048              -5.9758
        93                         -0.2191418              -5.9632
        94                         -0.2059281              -5.6036
        95                         -0.2049639              -5.5774
       ...                                ...                  ...
       160                          1.1725469              31.9066
      -------------------------------------------------------------
                  HL-Gap            0.0114772 Eh            0.3123 eV

     #   Z          covCN         q      C6AA      α(0)
     1   7 N        0.911    -0.325    28.356     7.702
     2   6 C        1.910     0.102    28.576     8.633
     3   6 C        2.965    -0.011    28.292     8.725
     4   6 C        2.921    -0.034    28.836     8.806
     5   6 C        2.904     0.029    27.352     8.575
     6   7 N        2.795    -0.012    21.476     6.883
     7   6 C        3.080     0.042    26.981     8.516
     8   6 C        2.909    -0.040    28.990     8.829
     9   6 C        2.923    -0.027    28.670     8.781
    10   6 C        2.920    -0.028    28.693     8.784
    11   6 C        2.911    -0.020    28.500     8.754
    12   6 C        3.056    -0.019    28.435     8.745
    13   6 C        3.062     0.075    26.275     8.406
    14   7 N        1.834    -0.189    25.924     7.545
    15   6 C        2.912     0.055    26.773     8.485
    16   6 C        2.920    -0.040    28.998     8.831
    17   6 C        2.914    -0.027    28.668     8.780
    18   6 C        3.066     0.038    27.093     8.535
    19   6 C        2.904     0.029    27.352     8.575
    20   7 N        2.795    -0.012    21.476     6.883
    21   6 C        3.080     0.042    26.981     8.516
    22   6 C        2.909    -0.040    28.990     8.829
    23   6 C        2.923    -0.027    28.670     8.781
    24   6 C        2.920    -0.028    28.693     8.784
    25   6 C        2.911    -0.020    28.500     8.754
    26   6 C        3.056    -0.019    28.435     8.745
    27   6 C        3.062     0.075    26.275     8.406
    28   7 N        1.834    -0.190    25.925     7.545
    29   6 C        2.912     0.055    26.773     8.485
    30   6 C        2.920    -0.040    28.998     8.831
    31   6 C        2.914    -0.027    28.668     8.780
    32   6 C        3.066     0.038    27.093     8.535
    33   6 C        2.921    -0.034    28.836     8.806
    34   6 C        2.965    -0.011    28.292     8.725
    35   6 C        1.910     0.102    28.576     8.633
    36   7 N        0.911    -0.325    28.356     7.702
    37   1 H        0.926     0.045     2.384     2.414
    38   1 H        0.926     0.038     2.473     2.459
    39   1 H        0.926     0.051     2.307     2.375
    40   1 H        0.926     0.057     2.230     2.335
    41   1 H        0.926     0.063     2.163     2.300
    42   1 H        0.926     0.061     2.182     2.310
    43   1 H        0.926     0.062     2.181     2.309
    44   1 H        0.926     0.054     2.269     2.355
    45   1 H        0.926     0.038     2.473     2.459
    46   1 H        0.926     0.051     2.307     2.375
    47   1 H        0.926     0.057     2.230     2.335
    48   1 H        0.926     0.063     2.163     2.300
    49   1 H        0.926     0.061     2.182     2.310
    50   1 H        0.926     0.062     2.181     2.309
    51   1 H        0.926     0.054     2.269     2.355
    52   1 H        0.926     0.045     2.384     2.414

molecular dipole:
                 x           y           z       tot (Debye)
 q only:        6.059      -0.020      -0.006
   full:        5.922      -0.019      -0.006      15.053

 projected vibrational frequencies (cm⁻¹)
eigval :       -0.00    -0.00     0.00     0.00     0.00     0.00
eigval :       21.47    34.75    39.60    39.98    49.26    55.70
eigval :       86.56    98.91   105.63   106.83   117.74   140.11
eigval :      147.02   156.36   172.16   180.42   190.50   195.37
eigval :      258.13   272.20   272.46   273.44   310.42   318.69
eigval :      346.10   372.85   377.02   396.84   401.52   406.76
eigval :      416.92   420.94   435.29   441.76   465.60   476.99
eigval :      479.75   514.93   515.94   521.27   529.55   531.10
eigval :      547.54   551.84   576.27   579.28   583.66   590.88
eigval :      591.00   640.14   645.88   662.24   671.63   677.57
eigval :      684.52   713.07   714.31   732.12   756.30   762.88
eigval :      774.60   775.43   777.77   784.16   831.68   866.51
eigval :      875.87   876.50   884.98   891.98   892.48   893.81
eigval :      893.99   909.23   909.43   910.93   913.54   920.81
eigval :      921.30   931.22  1013.64  1015.83  1058.37  1061.63
eigval :     1069.09  1085.04  1087.69  1098.84  1132.12  1133.88
eigval :     1140.79  1159.11  1162.78  1170.98  1173.64  1187.48
eigval :     1190.56  1198.60  1217.81  1220.94  1251.26  1267.34
eigval :     1268.61  1277.38  1284.00  1307.39  1311.02  1321.77
eigval :     1322.42  1344.30  1349.10  1349.94  1353.62  1360.06
eigval :     1364.46  1404.75  1406.65  1416.64  1425.64  1438.68
eigval :     1451.60  1451.85  1471.46  1473.49  1511.52  1524.78
eigval :     1537.38  1546.19  1565.42  1566.73  1571.63  1572.54
eigval :     2239.00  2254.15  3072.67  3072.72  3081.55  3081.70
eigval :     3083.13  3083.39  3087.08  3087.19  3094.64  3094.73
eigval :     3102.79  3102.99  3110.64  3111.11  3112.54  3113.07

   temp. (K)  partition function   enthalpy   heat capacity  entropy
                                   cal/mol     cal/K/mol   cal/K/mol   J/K/mol
 298.15  VIB  0.649E+11            15682.269    101.551     95.265
         ROT  0.108E+08              888.752      2.981     35.163
         INT  0.701E+18            16571.022    104.532    130.428
         TR   0.956E+28             1481.254      4.968     44.250
         TOT                       18052.2756   109.5002   174.6776   730.8511

       T/K    H(0)-H(T)+PV         H(T)/Eh          T*S/Eh         G(T)/Eh
   ------------------------------------------------------------------------
    298.15    0.287681E-01    0.398847E+00    0.829950E-01    0.315852E+00
   ------------------------------------------------------------------------

         :::::::::::::::::::::::::::::::::::::::::::::::::::::
         ::                  THERMODYNAMIC                  ::
         :::::::::::::::::::::::::::::::::::::::::::::::::::::
         :: total free energy         -89.569748945370 Eh   ::
         ::.................................................::
         :: total energy              -89.885600689001 Eh   ::
         :: zero point energy           0.370078581461 Eh   ::
         :: G(RRHO) w/o ZPVE           -0.054226837830 Eh   ::
         :: G(RRHO) contrib.            0.315851743631 Eh   ::
         :::::::::::::::::::::::::::::::::::::::::::::::::::::

           -------------------------------------------------
          | TOTAL ENERGY              -89.885600689001 Eh   |
          | TOTAL ENTHALPY            -89.486753975249 Eh   |
          | TOTAL FREE ENERGY         -89.569748945370 Eh   |
          | GRADIENT NORM               0.000032612381 Eh/α |
          | HOMO-LUMO GAP               0.312311739684 eV   |
           -------------------------------------------------

 * finished run on 2025/07/16 at 17:23:43.242
