   * xtb version 6.7.1 (edcfbbe) compiled by 'albert@albert-system' on 2024-07-22

   ID    Z sym.   atoms
    1    7 N      1, 6, 14, 20, 28, 36
    2    6 C      2-5, 7-13, 15-19, 21-27, 29-35
    3    1 H      37-52

          program call               : xtb data2507/toluene/δ-2CbPN/δ-2CbPN_toluene_S0_crest.xyz --gfn 2 --gbsa toluene --ohess vtight --parallel 40 --molden --ceasefiles --namespace data2507/toluene/δ-2CbPN/δ-2CbPN_toluene_S0_finalOpt
      * Solvation model:               GBSA
        Solvent                        toluene
        Solvent mass                       9.2140E+01 g/mol
          :  Hamiltonian                  GFN2-xTB          :
 * total energy  :   -89.9697559 Eh     change       -0.4061619E-08 Eh
 * total energy  :   -89.9698162 Eh     change       -0.6031933E-04 Eh
 * total energy  :   -89.9698066 Eh     change        0.9604590E-05 Eh
 * total energy  :   -89.9698773 Eh     change       -0.7071580E-04 Eh
 * total energy  :   -89.9698631 Eh     change        0.1426904E-04 Eh
 * total energy  :   -89.9699132 Eh     change       -0.5008868E-04 Eh
 * total energy  :   -89.9699353 Eh     change       -0.2214623E-04 Eh
 * total energy  :   -89.9699534 Eh     change       -0.1807816E-04 Eh
 * total energy  :   -89.9699705 Eh     change       -0.1707731E-04 Eh
 * total energy  :   -89.9699853 Eh     change       -0.1482263E-04 Eh
 * total energy  :   -89.9700700 Eh     change       -0.8123348E-06 Eh
 * total energy  :   -89.9700721 Eh     change       -0.2092976E-05 Eh
 * total energy  :   -89.9700766 Eh     change       -0.4540945E-05 Eh
 * total energy  :   -89.9700803 Eh     change       -0.3697124E-05 Eh
 * total energy  :   -89.9700830 Eh     change       -0.2686428E-05 Eh
 * total energy  :   -89.9700839 Eh     change       -0.9164518E-06 Eh
 * total energy  :   -89.9700845 Eh     change       -0.5889501E-06 Eh
 * total energy  :   -89.9700848 Eh     change       -0.2803389E-06 Eh
 * total energy  :   -89.9700849 Eh     change       -0.9408467E-07 Eh
   *** GEOMETRY OPTIMIZATION CONVERGED AFTER 30 ITERATIONS ***

 final structure:
================
52
 xtb: 6.7.1 (edcfbbe)
N           -5.92885589304735       -1.82991143475151       -0.78381414779660
C           -4.94403441149807       -1.28818758997409       -0.55746495962317
C           -3.72169941003247       -0.63595382512552       -0.27720508064150
C           -2.51549585763418       -1.26809927656165       -0.55642356108511
C           -1.30245431639095       -0.63986555373813       -0.29463684046404
N           -0.10924191874871       -1.28076769610708       -0.62315072961998
C            0.27784363976159       -2.55118171251570       -0.20562793559903
C           -0.42202927558262       -3.48385014107929        0.54452550728726
C            0.21970385701838       -4.66798858793456        0.86026419999761
C            1.52685359667970       -4.92111262530788        0.45053052661565
C            2.23541412962430       -3.98794036066987       -0.28021278843417
C            1.60853604261255       -2.79283804665320       -0.60922154610610
C            2.04056272217655       -1.61903349967319       -1.31700438747735
N            3.20055586611404       -1.35961971441395       -1.90055595841703
C            3.30418469482149       -0.19463886005908       -2.51463725540299
C            2.26795798757739        0.73152600062673       -2.61788408213366
C            1.04709987032378        0.47314784943232       -2.01577370488264
C            0.94853521808258       -0.71448437071769       -1.30985542130663
C           -1.29842907527860        0.64930910159370        0.28952968681924
N           -0.10116721389235        1.28185830067474        0.61964641094235
C            0.29567929384640        2.54961614242744        0.20345985562884
C           -0.39555137031314        3.48682437573069       -0.54905637032922
C            0.25510898677775        4.66659239819463       -0.86283956142341
C            1.56253669099299        4.91107724710717       -0.44875084740207
C            2.26248758858097        3.97332792589037        0.28442015012880
C            1.62664031845571        2.78241454374696        0.61140600331590
C            2.04848486938208        1.60579499787075        1.32064833384666
N            3.20461996364616        1.33875251705327        1.90840260747025
C            3.29831558511129        0.17319973682198        2.52298054084667
C            2.25570067633014       -0.74619180362968        2.62242996842858
C            1.03874183686037       -0.47978423092047        2.01595785567689
C            0.95050548832047        0.70851349431697        1.30980642938537
C           -2.50741368810869        1.28557622477172        0.55059549182810
C           -3.71762287182337        0.66111964067264        0.27136715454907
C           -4.93589356491305        1.32071406996863        0.55210064618566
N           -5.91746275404242        1.86806695720232        0.77897707646676
H           -2.51952294327563       -2.24555020942541       -1.01481994235386
H           -1.43014934209834       -3.29865112384864        0.88385403353517
H           -0.30696655099589       -5.41066269235452        1.44045672365960
H            1.99040780452374       -5.85867495681573        0.71686362532553
H            3.25275507514625       -4.16265182230730       -0.59214611001425
H            4.26499426427200        0.00225846153966       -2.97047240981332
H            2.41530959514005        1.64497506576093       -3.17162930128981
H            0.22165924023345        1.16284809913236       -2.11123926597497
H           -1.40377448770927        3.30823888422595       -0.89163068735716
H           -0.26468597469402        5.41275861513246       -1.44474582223286
H            2.03316560253458        5.84556467244815       -0.71347991400871
H            3.27993689230431        4.14140796211345        0.59963443780144
H            4.25612864745959       -0.02994988958906        2.98235041838214
H            2.39501581782374       -1.66058421515783        3.17669555549489
H            0.20844763842267       -1.16403449973192        2.10846161488344
H           -2.50515210707533        2.26314547720729        1.00876575578794

          :  Hamiltonian                  GFN2-xTB          :
         :: gradient norm              0.000084732130 Eh/a0 ::
         :: HOMO-LUMO gap              1.705803380254 eV    ::
         :: SCC energy               -91.647691683643 Eh    ::
         :: -> dispersion             -0.084030741446 Eh    ::
         :: -> Gsolv                  -0.041726281442 Eh    ::
         :: repulsion energy           1.677606825013 Eh    ::

    * Orbital Energies and Occupations

         #    Occupation            Energy/Eh            Energy/eV
      -------------------------------------------------------------
         1        2.0000           -0.7209957             -19.6193
       ...           ...                  ...                  ...
        71        2.0000           -0.4499517             -12.2438
        72        2.0000           -0.4484471             -12.2029
        73        2.0000           -0.4477872             -12.1849
        74        2.0000           -0.4392959             -11.9539
        75        2.0000           -0.4386895             -11.9374
        76        2.0000           -0.4348763             -11.8336
        77        2.0000           -0.4343536             -11.8194
        78        2.0000           -0.4078233             -11.0974
        79        2.0000           -0.4034610             -10.9787
        80        2.0000           -0.3955369             -10.7631
        81        2.0000           -0.3926662             -10.6850
        82        2.0000           -0.3825853             -10.4107
        83        2.0000           -0.3819532             -10.3935 (HOMO)
        84                         -0.3192660              -8.6877 (LUMO)
        85                         -0.2956009              -8.0437
        86                         -0.2767307              -7.5302
        87                         -0.2763673              -7.5203
        88                         -0.2543217              -6.9204
        89                         -0.2472260              -6.7274
        90                         -0.2390339              -6.5044
        91                         -0.2342865              -6.3753
        92                         -0.2342671              -6.3747
        93                         -0.2218328              -6.0364
        94                         -0.2108972              -5.7388
       ...                                ...                  ...
       160                          1.1578772              31.5074
      -------------------------------------------------------------
                  HL-Gap            0.0626872 Eh            1.7058 eV

     #   Z          covCN         q      C6AA      α(0)
     1   7 N        0.911    -0.234    26.136     7.394
     2   6 C        1.910     0.120    28.150     8.569
     3   6 C        2.975     0.024    27.468     8.597
     4   6 C        2.928    -0.031    28.774     8.797
     5   6 C        2.909     0.059    26.678     8.469
     6   7 N        2.797    -0.045    22.106     6.983
     7   6 C        3.070     0.045    26.917     8.507
     8   6 C        2.910    -0.049    29.225     8.865
     9   6 C        2.924    -0.027    28.685     8.783
    10   6 C        2.920    -0.034    28.852     8.808
    11   6 C        2.912    -0.025    28.620     8.772
    12   6 C        3.062    -0.021    28.471     8.750
    13   6 C        3.070     0.076    26.240     8.399
    14   7 N        1.833    -0.246    27.265     7.738
    15   6 C        2.923     0.054    26.792     8.488
    16   6 C        2.922    -0.045    29.113     8.848
    17   6 C        2.915    -0.035    28.870     8.811
    18   6 C        3.065     0.035    27.146     8.544
    19   6 C        2.909     0.059    26.678     8.469
    20   7 N        2.797    -0.045    22.106     6.983
    21   6 C        3.070     0.045    26.917     8.507
    22   6 C        2.910    -0.049    29.225     8.864
    23   6 C        2.924    -0.027    28.685     8.783
    24   6 C        2.920    -0.034    28.852     8.808
    25   6 C        2.912    -0.025    28.620     8.772
    26   6 C        3.062    -0.021    28.471     8.750
    27   6 C        3.070     0.076    26.240     8.399
    28   7 N        1.833    -0.246    27.265     7.738
    29   6 C        2.923     0.054    26.792     8.488
    30   6 C        2.922    -0.045    29.113     8.848
    31   6 C        2.915    -0.035    28.871     8.811
    32   6 C        3.066     0.035    27.146     8.544
    33   6 C        2.928    -0.031    28.773     8.797
    34   6 C        2.975     0.024    27.468     8.597
    35   6 C        1.910     0.120    28.150     8.569
    36   7 N        0.911    -0.234    26.137     7.394
    37   1 H        0.926     0.073     2.055     2.242
    38   1 H        0.926     0.037     2.489     2.467
    39   1 H        0.926     0.048     2.343     2.394
    40   1 H        0.926     0.047     2.352     2.398
    41   1 H        0.926     0.053     2.287     2.365
    42   1 H        0.925     0.042     2.424     2.435
    43   1 H        0.926     0.046     2.368     2.406
    44   1 H        0.926     0.034     2.530     2.487
    45   1 H        0.926     0.037     2.489     2.467
    46   1 H        0.926     0.048     2.344     2.394
    47   1 H        0.926     0.047     2.352     2.398
    48   1 H        0.926     0.053     2.287     2.365
    49   1 H        0.925     0.042     2.424     2.435
    50   1 H        0.926     0.046     2.368     2.406
    51   1 H        0.926     0.034     2.531     2.488
    52   1 H        0.926     0.073     2.055     2.242

molecular dipole:
                 x           y           z       tot (Debye)
 q only:        1.331      -0.004      -0.002
   full:        1.408      -0.004      -0.003       3.578

 projected vibrational frequencies (cm⁻¹)
eigval :       -0.00    -0.00    -0.00    -0.00    -0.00     0.00
eigval :       21.40    28.25    36.90    47.01    47.81    51.99
eigval :       89.06    98.52   103.98   105.68   119.81   137.92
eigval :      145.54   156.80   172.52   180.63   196.53   205.63
eigval :      259.28   268.03   278.41   283.73   308.17   310.31
eigval :      348.79   390.75   397.23   402.11   419.91   420.95
eigval :      426.39   433.48   443.28   445.54   480.82   482.48
eigval :      519.72   521.05   529.68   530.23   542.88   547.34
eigval :      551.62   568.63   587.75   595.52   595.98   600.30
eigval :      652.53   656.82   668.16   680.49   682.35   690.11
eigval :      710.00   724.44   725.39   750.21   759.53   770.40
eigval :      775.46   775.62   797.04   798.37   840.76   866.15
eigval :      869.99   883.61   892.19   900.27   901.53   903.40
eigval :      908.62   911.81   912.24   914.80   915.58   924.66
eigval :      925.06   960.44  1021.77  1022.73  1067.29  1067.90
eigval :     1076.80  1091.12  1091.56  1118.19  1137.83  1143.03
eigval :     1143.37  1164.08  1167.75  1176.36  1177.37  1202.22
eigval :     1210.46  1217.45  1226.70  1229.71  1253.48  1281.05
eigval :     1281.62  1291.48  1292.75  1308.58  1316.11  1331.66
eigval :     1332.07  1350.98  1352.09  1360.05  1376.84  1395.75
eigval :     1407.37  1419.92  1421.30  1465.34  1466.75  1476.11
eigval :     1480.79  1481.19  1498.71  1546.02  1557.68  1557.95
eigval :     1580.30  1580.62  1585.64  1586.42  1602.60  1603.11
eigval :     2366.16  2366.69  3064.94  3065.03  3076.74  3076.84
eigval :     3081.11  3081.22  3088.16  3089.05  3097.18  3097.81
eigval :     3101.73  3102.07  3104.03  3104.40  3109.15  3109.35

   temp. (K)  partition function   enthalpy   heat capacity  entropy
                                   cal/mol     cal/K/mol   cal/K/mol   J/K/mol
 298.15  VIB  0.598E+11            15425.312     99.773     93.911
         ROT  0.110E+08              888.752      2.981     35.196
         INT  0.656E+18            16314.064    102.754    129.106
         TR   0.956E+28             1481.254      4.968     44.250
         TOT                       17795.3182   107.7224   173.3563   725.3228

       T/K    H(0)-H(T)+PV         H(T)/Eh          T*S/Eh         G(T)/Eh
   ------------------------------------------------------------------------
    298.15    0.283586E-01    0.402575E+00    0.823672E-01    0.320208E+00
   ------------------------------------------------------------------------

         :::::::::::::::::::::::::::::::::::::::::::::::::::::
         ::                  THERMODYNAMIC                  ::
         :::::::::::::::::::::::::::::::::::::::::::::::::::::
         :: total free energy         -89.649876938456 Eh   ::
         ::.................................................::
         :: total energy              -89.970084859186 Eh   ::
         :: zero point energy           0.374216449581 Eh   ::
         :: G(RRHO) w/o ZPVE           -0.054008528850 Eh   ::
         :: G(RRHO) contrib.            0.320207920730 Eh   ::
         :::::::::::::::::::::::::::::::::::::::::::::::::::::

           -------------------------------------------------
          | TOTAL ENERGY              -89.970084859186 Eh   |
          | TOTAL ENTHALPY            -89.567509764966 Eh   |
          | TOTAL FREE ENERGY         -89.649876938456 Eh   |
          | GRADIENT NORM               0.000084879195 Eh/α |
          | HOMO-LUMO GAP               1.705805738404 eV   |
           -------------------------------------------------

 * finished run on 2025/07/16 at 17:20:22.172
