   * xtb version 6.7.1 (edcfbbe) compiled by 'albert@albert-system' on 2024-07-22

   ID    Z sym.   atoms
    1    6 C      1-8, 10-19, 23-39, 43-45, 47-58
    2    7 N      9, 20, 22, 40, 42, 46
    3   16 S      21, 41
    4    1 H      59-100

          program call               : xtb data2507/toluene/BTZPP/BTZPP_toluene_S0_crest.xyz --gfn 2 --gbsa toluene --ohess vtight --parallel 40 --molden --ceasefiles --namespace data2507/toluene/BTZPP/BTZPP_toluene_S0_finalOpt
      * Solvation model:               GBSA
        Solvent                        toluene
        Solvent mass                       9.2140E+01 g/mol
          :  Hamiltonian                  GFN2-xTB          :
 * total energy  :  -152.6518996 Eh     change       -0.4930342E-08 Eh
 * total energy  :  -152.6519567 Eh     change       -0.5711839E-04 Eh
 * total energy  :  -152.6519888 Eh     change       -0.3209771E-04 Eh
 * total energy  :  -152.6519977 Eh     change       -0.8939055E-05 Eh
 * total energy  :  -152.6520030 Eh     change       -0.5251348E-05 Eh
 * total energy  :  -152.6520070 Eh     change       -0.4024897E-05 Eh
 * total energy  :  -152.6520108 Eh     change       -0.3788281E-05 Eh
 * total energy  :  -152.6520142 Eh     change       -0.3468966E-05 Eh
 * total energy  :  -152.6520167 Eh     change       -0.2428536E-05 Eh
 * total energy  :  -152.6520190 Eh     change       -0.2285155E-05 Eh
 * total energy  :  -152.6520287 Eh     change       -0.2499158E-05 Eh
 * total energy  :  -152.6520315 Eh     change       -0.2795443E-05 Eh
 * total energy  :  -152.6520344 Eh     change       -0.2944993E-05 Eh
 * total energy  :  -152.6520371 Eh     change       -0.2677769E-05 Eh
 * total energy  :  -152.6520392 Eh     change       -0.2094842E-05 Eh
 * total energy  :  -152.6520407 Eh     change       -0.1480632E-05 Eh
 * total energy  :  -152.6520417 Eh     change       -0.9993989E-06 Eh
 * total energy  :  -152.6520423 Eh     change       -0.5854111E-06 Eh
 * total energy  :  -152.6520423 Eh     change       -0.1083109E-07 Eh
   *** GEOMETRY OPTIMIZATION CONVERGED AFTER 22 ITERATIONS ***

 final structure:
================
100
 xtb: 6.7.1 (edcfbbe)
C           -5.73123170965806        5.21415938245903       -0.23615265195532
C           -4.24433159097792        5.47615567939683       -0.52024767208767
C           -4.06971560337773        5.98003721883102       -1.96076336415101
C           -3.76220772583208        6.57553412419805        0.43121337347004
C           -3.47596077347993        4.17469095520717       -0.35018976263624
C           -2.45421927840528        4.01137263813668        0.57793534871912
C           -1.79617101656824        2.80269620912240        0.72134344584194
C           -2.14191081498594        1.71555065672959       -0.07059860564267
N           -1.46737051145804        0.49564152079838        0.08025335943028
C           -2.00610515238156       -0.77953852990887       -0.00972792772746
C           -3.43174180905344       -1.04533654284875        0.02481710656673
C           -4.30445477376345       -0.26830063014954        0.79235501659998
C           -5.65476263584939       -0.53814046445166        0.81895033328193
C           -6.18710056261092       -1.60780993674130        0.09775185747963
C           -7.62158966071989       -1.89495498776088        0.12768329577584
C           -8.11592662959231       -3.18193890238375        0.10536030915059
C           -9.49135349294368       -3.47235295086405        0.13690511457979
C          -10.43901603000093       -2.48674884656362        0.18680270873511
C           -9.99202920159482       -1.15571785075109        0.20420076901097
N          -10.74340524917891       -0.05241723457605        0.23587024423304
S           -9.77250754994165        1.23023432356923        0.22716119660362
N           -8.36041405245122        0.46219025683223        0.18696610605786
C           -8.58281727723529       -0.85282587419131        0.18099782408084
C           -5.31297315112981       -2.40211937729954       -0.64720989257754
C           -3.96348731739266       -2.12521381917788       -0.68532794508182
C           -0.99056456239818       -1.72492684180014        0.00130167971990
C            0.20779766680498       -1.00774156354019        0.11744829380241
C           -0.10696916618196        0.35963983630544        0.15147166052287
C            1.09453737575606        1.07936571898899        0.19735054549775
C            2.11026167415163        0.13447942523710        0.21286437296671
C            3.52356094230624        0.40469646566557        0.39942907683140
C            4.33255206949859       -0.41179545011507        1.19487140796278
C            5.66155334157195       -0.10790177516702        1.39440969276484
C            6.23817337735097        1.02064143197596        0.80787257314517
C            7.64660304917072        1.34617196960066        1.03783740793177
C            8.26431442434096        1.10859376815719        2.24773870609680
C            9.61381992900099        1.41910826244222        2.49166605984108
C           10.41281671406332        1.97896448572180        1.53263974322169
C            9.83688769307095        2.23957319655336        0.27885297793432
N           10.43807445308111        2.76762587873571       -0.78982271359744
S            9.36938069146058        2.85628645986844       -1.98884288751541
N            8.09760825787030        2.23873512435172       -1.22243302451658
C            8.45139413419495        1.93075345280825        0.02606142638941
C            5.43103975704004        1.83649225527195        0.01377036407502
C            4.09999881209674        1.53809187219671       -0.18042181730574
N            1.57045688825398       -1.14271171172728        0.16349974310609
C            2.25207843625350       -2.35301657862108       -0.02276948388620
C            3.34056230227383       -2.44450214326381       -0.88521667464454
C            3.98164600172192       -3.65313618040733       -1.06268184047239
C            3.56156757243760       -4.81192139307860       -0.41133708819707
C            4.30497878326501       -6.11768776002778       -0.64839307542282
C            4.24355629689274       -6.46570594889941       -2.14331612103593
C            3.70817286117548       -7.28865942971303        0.13845857802141
C            5.76835853342812       -5.94465808769741       -0.21473065840911
C            2.46242982330694       -4.70686985193134        0.43302076884852
C            1.81619077487749       -3.49950070087905        0.62930112901042
C           -3.14098424476221        1.87157693987125       -1.02679840879029
C           -3.79663337712245        3.07881172923860       -1.14996079582136
H           -6.30067364464094        6.13479944956618       -0.34562543695448
H           -5.86086171190770        4.84618738191284        0.77980794490941
H           -6.14193022513024        4.47506983180520       -0.91847870140368
H           -4.59452696642375        6.92395426940950       -2.09255207250183
H           -3.01521838375016        6.13772212436427       -2.17946594906489
H           -4.46448566356418        5.26874373334276       -2.68088564821613
H           -4.34677282643275        7.47847801626911        0.26625708455419
H           -2.71636702532491        6.81626984415477        0.25406938636663
H           -3.89020781622033        6.27876244892590        1.46973327752121
H           -2.15691651395395        4.82626407142331        1.21740893190905
H           -1.01778213757154        2.69371402859852        1.46205091921963
H           -3.91642950706699        0.54728064356761        1.38391976319167
H           -6.31042169493698        0.07598816292594        1.41615760421799
H           -7.42029428459363       -4.00750705348864        0.08538241369178
H           -9.79857153105642       -4.50779632340514        0.12524666906824
H          -11.49577788167130       -2.69890834438260        0.21116409215576
H           -5.70332801100605       -3.22368915688808       -1.23021009767028
H           -3.30713772296222       -2.73443952491354       -1.28912153645671
H           -1.12891419813809       -2.78744659702525       -0.02886630775420
H            1.23055433949087        2.14095281019558        0.25620531348125
H            3.91110014727361       -1.28486664027834        1.67077294554135
H            6.26869856999313       -0.76614883348620        1.99867196408235
H            7.68464540343868        0.68624610843167        3.05486341057271
H           10.02116009333018        1.20887518407243        3.46967549318920
H           11.44851667667754        2.22117678282650        1.70837734752156
H            5.85719490108313        2.71388106415863       -0.44714513723248
H            3.49204108463844        2.17930583260679       -0.80129146573048
H            3.68067340684958       -1.56757233003779       -1.41551823977961
H            4.82505179697031       -3.68563677599867       -1.73549506993875
H            3.20841859364553       -6.56559620640102       -2.46434259797331
H            4.75493148856547       -7.40793604970126       -2.32905276926671
H            4.71563583294110       -5.69754604829631       -2.74952077144087
H            3.75273975032016       -7.10493275850329        1.20958418233455
H            4.27745499142121       -8.19226686382344       -0.07055862605260
H            2.67535581976013       -7.46900129520284       -0.15103159635024
H            5.81995727559084       -5.67815636803738        0.83931422899739
H            6.31485849287090       -6.87379475526110       -0.36301053177251
H            6.26204698679911       -5.16434006266226       -0.78751748339967
H            2.09109985432910       -5.56935015202612        0.96171642015394
H            0.97276385396925       -3.43976308616870        1.30104915470979
H           -3.40341992650578        1.04385087886652       -1.66862423357227
H           -4.57347466706919        3.16074397942690       -1.89457949894517

          :  Hamiltonian                  GFN2-xTB          :
         :: gradient norm              0.000073149257 Eh/a0 ::
         :: HOMO-LUMO gap              0.997002802785 eV    ::
         :: SCC energy              -155.213091205628 Eh    ::
         :: -> dispersion             -0.137582192360 Eh    ::
         :: -> Gsolv                  -0.064501578319 Eh    ::
         :: repulsion energy           2.561048921157 Eh    ::

    * Orbital Energies and Occupations

         #    Occupation            Energy/Eh            Energy/eV
      -------------------------------------------------------------
         1        2.0000           -0.7627441             -20.7553
       ...           ...                  ...                  ...
       130        2.0000           -0.4094768             -11.1424
       131        2.0000           -0.4079150             -11.0999
       132        2.0000           -0.4072233             -11.0811
       133        2.0000           -0.4069545             -11.0738
       134        2.0000           -0.4042972             -11.0015
       135        2.0000           -0.4029234             -10.9641
       136        2.0000           -0.4017237             -10.9315
       137        2.0000           -0.4005302             -10.8990
       138        2.0000           -0.3897333             -10.6052
       139        2.0000           -0.3869256             -10.5288
       140        2.0000           -0.3810188             -10.3680
       141        2.0000           -0.3570755              -9.7165
       142        2.0000           -0.3444042              -9.3717 (HOMO)
       143                         -0.3077650              -8.3747 (LUMO)
       144                         -0.3069196              -8.3517
       145                         -0.2581474              -7.0245
       146                         -0.2434091              -6.6235
       147                         -0.2294906              -6.2448
       148                         -0.2252307              -6.1288
       149                         -0.2249062              -6.1200
       150                         -0.2214738              -6.0266
       151                         -0.2212915              -6.0216
       152                         -0.2211948              -6.0190
       153                         -0.2195485              -5.9742
       ...                                ...                  ...
       284                          0.7260058              19.7556
      -------------------------------------------------------------
                  HL-Gap            0.0366392 Eh            0.9970 eV

     #   Z          covCN         q      C6AA      α(0)
     1   6 C        3.761    -0.107    22.586     6.775
     2   6 C        3.902     0.026    20.085     6.370
     3   6 C        3.761    -0.106    22.573     6.773
     4   6 C        3.761    -0.108    22.620     6.780
     5   6 C        2.972     0.007    27.864     8.659
     6   6 C        2.925    -0.040    28.983     8.829
     7   6 C        2.922    -0.048    29.180     8.858
     8   6 C        2.913     0.061    26.628     8.462
     9   7 N        2.817    -0.033    21.870     6.946
    10   6 C        3.113     0.025    27.302     8.560
    11   6 C        2.970     0.011    27.774     8.645
    12   6 C        2.922    -0.034    28.853     8.809
    13   6 C        2.922    -0.030    28.757     8.794
    14   6 C        2.975     0.007    27.850     8.656
    15   6 C        2.964    -0.002    28.085     8.693
    16   6 C        2.925    -0.041    29.022     8.835
    17   6 C        2.919    -0.030    28.754     8.793
    18   6 C        2.907    -0.050    29.241     8.867
    19   6 C        3.349     0.076    23.715     7.676
    20   7 N        1.851    -0.284    28.224     7.874
    21  16 S        2.673     0.327   128.436    19.074
    22   7 N        1.853    -0.276    28.007     7.844
    23   6 C        3.344     0.076    23.821     7.708
    24   6 C        2.922    -0.035    28.881     8.813
    25   6 C        2.924    -0.038    28.954     8.824
    26   6 C        2.999    -0.084    30.078     8.996
    27   6 C        3.226     0.013    26.948     8.434
    28   6 C        3.225     0.014    26.942     8.434
    29   6 C        2.999    -0.083    30.072     8.995
    30   6 C        3.112     0.025    27.299     8.559
    31   6 C        2.970     0.011    27.773     8.644
    32   6 C        2.922    -0.035    28.877     8.812
    33   6 C        2.923    -0.035    28.880     8.813
    34   6 C        2.975     0.008    27.848     8.656
    35   6 C        2.964    -0.002    28.079     8.692
    36   6 C        2.925    -0.041    29.016     8.834
    37   6 C        2.919    -0.030    28.750     8.793
    38   6 C        2.907    -0.050    29.236     8.866
    39   6 C        3.350     0.076    23.707     7.674
    40   7 N        1.851    -0.283    28.193     7.870
    41  16 S        2.672     0.325   128.517    19.080
    42   7 N        1.853    -0.276    28.013     7.845
    43   6 C        3.343     0.076    23.843     7.715
    44   6 C        2.922    -0.031    28.764     8.795
    45   6 C        2.924    -0.037    28.931     8.821
    46   7 N        2.816    -0.033    21.872     6.946
    47   6 C        2.913     0.061    26.623     8.461
    48   6 C        2.920    -0.045    29.117     8.849
    49   6 C        2.928    -0.035    28.862     8.810
    50   6 C        2.972     0.006    27.882     8.661
    51   6 C        3.902     0.026    20.087     6.371
    52   6 C        3.761    -0.106    22.568     6.772
    53   6 C        3.761    -0.108    22.616     6.779
    54   6 C        3.761    -0.105    22.561     6.771
    55   6 C        2.925    -0.040    28.985     8.829
    56   6 C        2.922    -0.048    29.185     8.859
    57   6 C        2.920    -0.044    29.097     8.846
    58   6 C        2.928    -0.034    28.846     8.808
    59   1 H        0.925     0.040     2.444     2.445
    60   1 H        0.925     0.034     2.530     2.487
    61   1 H        0.925     0.038     2.477     2.461
    62   1 H        0.925     0.040     2.448     2.447
    63   1 H        0.925     0.034     2.537     2.491
    64   1 H        0.925     0.037     2.486     2.466
    65   1 H        0.925     0.039     2.464     2.455
    66   1 H        0.925     0.037     2.492     2.469
    67   1 H        0.925     0.037     2.490     2.467
    68   1 H        0.926     0.044     2.391     2.418
    69   1 H        0.926     0.038     2.474     2.460
    70   1 H        0.926     0.032     2.557     2.500
    71   1 H        0.926     0.040     2.443     2.444
    72   1 H        0.926     0.048     2.351     2.398
    73   1 H        0.926     0.047     2.362     2.403
    74   1 H        0.926     0.046     2.375     2.410
    75   1 H        0.926     0.035     2.517     2.481
    76   1 H        0.926     0.037     2.492     2.469
    77   1 H        0.926     0.026     2.642     2.542
    78   1 H        0.926     0.026     2.640     2.541
    79   1 H        0.926     0.032     2.559     2.502
    80   1 H        0.926     0.034     2.528     2.486
    81   1 H        0.926     0.048     2.348     2.396
    82   1 H        0.926     0.047     2.357     2.401
    83   1 H        0.926     0.046     2.370     2.407
    84   1 H        0.926     0.042     2.427     2.436
    85   1 H        0.926     0.037     2.486     2.466
    86   1 H        0.926     0.033     2.547     2.496
    87   1 H        0.926     0.035     2.510     2.478
    88   1 H        0.925     0.034     2.535     2.490
    89   1 H        0.925     0.040     2.451     2.448
    90   1 H        0.925     0.037     2.489     2.467
    91   1 H        0.925     0.037     2.491     2.468
    92   1 H        0.925     0.039     2.467     2.456
    93   1 H        0.925     0.037     2.489     2.467
    94   1 H        0.925     0.033     2.541     2.493
    95   1 H        0.925     0.040     2.451     2.448
    96   1 H        0.925     0.037     2.495     2.470
    97   1 H        0.926     0.044     2.393     2.419
    98   1 H        0.926     0.039     2.467     2.456
    99   1 H        0.926     0.032     2.556     2.500
   100   1 H        0.926     0.037     2.495     2.470

molecular dipole:
                 x           y           z       tot (Debye)
 q only:        0.017      -0.313       0.024
   full:        0.053      -0.722       0.296       1.987

 projected vibrational frequencies (cm⁻¹)
eigval :       -0.00    -0.00    -0.00    -0.00     0.00     0.00
eigval :        7.98    10.59    12.33    14.06    18.62    19.67
eigval :       21.16    26.83    28.70    36.85    42.32    56.96
eigval :       58.66    63.98    69.47    71.39    80.67    87.05
eigval :       91.05   101.74   105.08   112.18   126.71   151.40
eigval :      155.41   165.55   168.62   175.69   179.75   182.57
eigval :      188.90   195.16   206.54   217.53   221.22   224.03
eigval :      231.29   240.09   247.11   257.70   264.03   284.37
eigval :      291.06   300.13   305.48   315.25   316.13   322.93
eigval :      335.82   344.59   353.14   356.06   364.45   372.13
eigval :      375.41   376.55   377.18   381.84   386.94   387.70
eigval :      397.56   420.75   425.81   431.01   440.04   450.27
eigval :      450.51   455.57   459.50   468.25   468.67   487.13
eigval :      504.97   512.52   518.17   519.76   535.80   538.20
eigval :      544.12   548.13   580.88   583.94   585.47   587.45
eigval :      594.61   596.68   601.90   602.29   607.58   610.89
eigval :      624.85   629.47   637.60   650.05   656.55   673.51
eigval :      691.68   692.67   694.71   713.18   726.46   731.39
eigval :      732.17   732.97   740.76   768.65   781.57   788.34
eigval :      791.81   792.78   808.14   816.02   817.86   821.10
eigval :      821.54   837.33   837.64   864.08   864.79   868.32
eigval :      869.14   870.13   871.14   877.26   881.07   883.11
eigval :      883.23   884.72   894.28   897.36   913.19   914.55
eigval :      916.29   918.29   919.91   920.72   925.86   926.31
eigval :      928.10   929.38   930.47   949.23   958.82   959.71
eigval :      960.12   961.91   962.90   964.30   964.59   980.38
eigval :     1007.31  1016.37  1026.59  1034.16  1034.80  1035.17
eigval :     1035.54  1039.67  1087.28  1088.88  1090.64  1100.48
eigval :     1139.02  1140.18  1141.01  1141.42  1144.95  1146.69
eigval :     1147.09  1149.37  1164.11  1172.43  1178.32  1179.94
eigval :     1201.53  1206.74  1207.79  1211.65  1218.62  1225.38
eigval :     1225.48  1231.71  1232.02  1271.66  1273.36  1274.96
eigval :     1275.58  1278.91  1279.82  1280.68  1284.26  1301.15
eigval :     1305.30  1306.77  1307.08  1309.20  1309.56  1318.37
eigval :     1318.67  1323.10  1323.40  1342.31  1343.47  1378.27
eigval :     1381.20  1388.04  1391.40  1397.90  1398.45  1402.83
eigval :     1403.24  1407.81  1408.48  1413.22  1413.63  1417.06
eigval :     1426.55  1426.67  1454.51  1469.45  1478.87  1487.74
eigval :     1488.54  1489.49  1490.44  1491.36  1492.16  1493.49
eigval :     1497.81  1499.54  1500.73  1504.11  1504.76  1510.74
eigval :     1510.80  1516.32  1516.78  1522.14  1527.40  1529.41
eigval :     1535.36  1547.12  1549.00  1569.23  1569.74  1578.98
eigval :     1579.46  1588.93  1590.32  1595.50  1602.54  1603.19
eigval :     3019.93  3020.06  3021.25  3021.64  3024.47  3024.67
eigval :     3025.99  3026.35  3028.17  3028.43  3031.48  3031.85
eigval :     3036.43  3036.73  3045.09  3045.35  3048.78  3048.98
eigval :     3073.71  3074.96  3080.89  3081.24  3081.40  3081.97
eigval :     3082.80  3085.10  3086.08  3086.43  3087.27  3088.99
eigval :     3092.94  3093.35  3093.72  3094.45  3101.73  3102.49
eigval :     3106.09  3106.97  3114.08  3114.31  3163.58  3164.89

   temp. (K)  partition function   enthalpy   heat capacity  entropy
                                   cal/mol     cal/K/mol   cal/K/mol   J/K/mol
 298.15  VIB  0.565E+25            30211.920    184.503    189.774
         ROT  0.246E+09              888.752      2.981     41.380
         INT  0.139E+34            31100.673    187.484    231.154
         TR   0.215E+29             1481.254      4.968     45.862
         TOT                       32581.9266   192.4523   277.0157  1159.0336

       T/K    H(0)-H(T)+PV         H(T)/Eh          T*S/Eh         G(T)/Eh
   ------------------------------------------------------------------------
    298.15    0.519226E-01    0.832223E+00    0.131619E+00    0.700604E+00
   ------------------------------------------------------------------------

         :::::::::::::::::::::::::::::::::::::::::::::::::::::
         ::                  THERMODYNAMIC                  ::
         :::::::::::::::::::::::::::::::::::::::::::::::::::::
         :: total free energy        -151.951438071276 Eh   ::
         ::.................................................::
         :: total energy             -152.652042285171 Eh   ::
         :: zero point energy           0.780300694801 Eh   ::
         :: G(RRHO) w/o ZPVE           -0.079696480907 Eh   ::
         :: G(RRHO) contrib.            0.700604213894 Eh   ::
         :::::::::::::::::::::::::::::::::::::::::::::::::::::

           -------------------------------------------------
          | TOTAL ENERGY             -152.652042285171 Eh   |
          | TOTAL ENTHALPY           -151.819818985333 Eh   |
          | TOTAL FREE ENERGY        -151.951438071276 Eh   |
          | GRADIENT NORM               0.000073156253 Eh/α |
          | HOMO-LUMO GAP               0.997002417433 eV   |
           -------------------------------------------------

 * finished run on 2025/07/20 at 02:09:21.173
