   * xtb version 6.7.1 (edcfbbe) compiled by 'albert@albert-system' on 2024-07-22

   ID    Z sym.   atoms
    1    6 C      1-8, 10-19, 23-39, 43-45, 47-58
    2    7 N      9, 20, 22, 40, 42, 46
    3   16 S      21, 41
    4    1 H      59-100

          program call               : xtb data2507/toluene/BTZPP/BTZPP.xyz --gfn 2 --gbsa toluene --ohess vtight --parallel 40 --molden --ceasefiles --namespace data2507/toluene/BTZPP/BTZPP_toluene_S0_preOpt
      * Solvation model:               GBSA
        Solvent                        toluene
        Solvent mass                       9.2140E+01 g/mol
          :  Hamiltonian                  GFN2-xTB          :
 * total energy  :  -152.6091751 Eh     change       -0.3751580E-08 Eh
 * total energy  :  -152.6339068 Eh     change       -0.2473176E-01 Eh
 * total energy  :  -152.6409077 Eh     change       -0.7000829E-02 Eh
 * total energy  :  -152.6432781 Eh     change       -0.2370402E-02 Eh
 * total energy  :  -152.6453117 Eh     change       -0.2033609E-02 Eh
 * total energy  :  -152.6462680 Eh     change       -0.9563379E-03 Eh
 * total energy  :  -152.6468796 Eh     change       -0.6115986E-03 Eh
 * total energy  :  -152.6474305 Eh     change       -0.5508424E-03 Eh
 * total energy  :  -152.6479649 Eh     change       -0.5344727E-03 Eh
 * total energy  :  -152.6484522 Eh     change       -0.4872836E-03 Eh
 * total energy  :  -152.6515589 Eh     change       -0.5323039E-06 Eh
 * total energy  :  -152.6515594 Eh     change       -0.5358219E-06 Eh
 * total energy  :  -152.6515599 Eh     change       -0.5087665E-06 Eh
 * total energy  :  -152.6515603 Eh     change       -0.4435923E-06 Eh
 * total energy  :  -152.6515608 Eh     change       -0.4139012E-06 Eh
 * total energy  :  -152.6515612 Eh     change       -0.4315901E-06 Eh
 * total energy  :  -152.6515615 Eh     change       -0.2783722E-06 Eh
 * total energy  :  -152.6515616 Eh     change       -0.1549162E-06 Eh
 * total energy  :  -152.6515616 Eh     change       -0.3524150E-08 Eh
   *** GEOMETRY OPTIMIZATION CONVERGED AFTER 68 ITERATIONS ***

 final structure:
================
100
 xtb: 6.7.1 (edcfbbe)
C           -6.58146013945679        4.58505411287550       -0.30011807245679
C           -5.16897062151358        5.08405839764763        0.03993157826360
C           -4.79985476109627        6.18867862823795       -0.95498155789648
C           -5.15687213381282        5.68911217373641        1.45174634341067
C           -4.20652627506477        3.90701580340763       -0.00658806219413
C           -3.11904105997331        3.84967053862926       -0.87034471071786
C           -2.27523248771816        2.75362723745457       -0.89606857995964
C           -2.49439877951612        1.67593798433018       -0.04772328895715
N           -1.62360646843933        0.57752898531277       -0.07507207786190
C           -1.94812437435055       -0.76364238660177        0.07049706396797
C           -3.30460873548736       -1.27246987382004       -0.00098821538820
C           -3.67418709856901       -2.38955968327324        0.75344830591749
C           -4.95128773769692       -2.90247012259084        0.68572593781696
C           -5.91518019401795       -2.31404597945912       -0.13409507014910
C           -7.28326386937644       -2.83057146497763       -0.18615136384781
C           -8.37344969202592       -1.99891328676196       -0.33429714429606
C           -9.69550211972772       -2.47418198659867       -0.38962913379481
C           -9.98969858231395       -3.80771019736338       -0.30627573201566
C           -8.91700524079183       -4.70154679527443       -0.15738429139095
N           -8.98298741342839       -6.03198345301105       -0.06738210447566
S           -7.48938175461308       -6.61120381724698        0.08092458666211
N           -6.68700686710707       -5.21792573315442        0.04218874603176
C           -7.56029987173304       -4.21851701455663       -0.08845606356238
C           -5.54107536171527       -1.21197984831923       -0.90620992960957
C           -4.26089505332821       -0.70665054912669       -0.84950004410285
C           -0.79100022956162       -1.52220163015618        0.17438676738294
C            0.27665071794368       -0.61793799814068        0.09499758427643
C           -0.25708487050126        0.66965170768891       -0.06806147647484
C            0.81068353239199        1.57359625889564       -0.14929954679976
C            1.96760242513156        0.81484422842917       -0.04547227497959
C            3.32292302506551        1.32846628753387        0.02492820074167
C            4.27758632897078        0.77948653830049        0.88556581594336
C            5.54848702327378        1.30697877754099        0.95746933841020
C            5.91906736241637        2.40269860201041        0.17498502415522
C            7.26918439501384        2.96141078568557        0.26181164405005
C            7.96952265656032        3.00452998637839        1.44909260353964
C            9.26664341447097        3.53715507241484        1.55321987115741
C            9.92839261484999        4.04931304896061        0.47094623301195
C            9.26348684807497        4.02905523813138       -0.76560652692241
N            9.72847939941376        4.46811132804285       -1.93751146093483
S            8.60423401197927        4.22139980604089       -3.06115004633398
N            7.47691041003518        3.55276867235876       -2.12928058691744
C            7.92995939903510        3.49211912967950       -0.87630584026632
C            4.96413012581073        2.95600284396394       -0.67913438920963
C            3.69087736663372        2.43377619560601       -0.74694388668513
N            1.64341787165639       -0.52550163091146        0.10306031990776
C            2.51287262568186       -1.62521359537753        0.07742682896892
C            3.58277497240942       -1.68246460535164       -0.80733405484915
C            4.41970525934774       -2.78342638999359       -0.82038379555583
C            4.21349004937672       -3.86484182419468        0.02900034137856
C            5.11067789131982       -5.09322533193595        0.04285711230540
C            4.26816257747783       -6.33300274722768       -0.29272025464400
C            5.72743482617561       -5.24661693135740        1.44143637007354
C            6.25188209343744       -5.00218847236218       -0.97473891630805
C            3.12535974437286       -3.79855136385069        0.89716028800471
C            2.28737388135399       -2.70245117785397        0.92805435246171
C           -3.56472415693753        1.72793754514248        0.84026191393038
C           -4.40414892965206        2.82273896227995        0.84711779947126
H           -7.28523693543861        5.41469991393560       -0.28467917804049
H           -6.91982480673571        3.83777249687781        0.41243540155486
H           -6.59450613906179        4.14008747055541       -1.29335310319943
H           -5.51939475494610        7.00130626949070       -0.87626833503912
H           -3.81288649934717        6.59331486572008       -0.74245906496060
H           -4.82256034832614        5.81925640383771       -1.97778375654474
H           -5.82522268144893        6.54656116849683        1.49666783923702
H           -4.15297400436150        6.02021313294196        1.71093029691839
H           -5.48025084043793        4.96729788792341        2.19663111074992
H           -2.91308602424359        4.66076856436832       -1.54929237472657
H           -1.44622301973057        2.72423900368942       -1.58731088020987
H           -2.94970209404698       -2.84349584709745        1.41300612287677
H           -5.21842470164714       -3.75988074621366        1.28360121952698
H           -8.21168102576451       -0.93277108094626       -0.38978124391770
H          -10.49583773601107       -1.75717371703241       -0.49918173980921
H          -10.99936005472249       -4.18317102786010       -0.34972770766368
H           -6.25496603936669       -0.76774641308813       -1.58439913680801
H           -3.99129480859059        0.12630700694303       -1.48161751521187
H           -0.75196560799578       -2.59100465503031        0.24653323621970
H            0.77190780828662        2.64227908432863       -0.22349076687633
H            4.01602090841365       -0.06128776471296        1.51083010595164
H            6.27309673381213        0.85009217987306        1.61562558417788
H            7.49752785544621        2.63373007008298        2.34664016767218
H            9.74478571013546        3.54095889899227        2.52169537481642
H           10.92299520754681        4.45955486228048        0.53920249635902
H            5.22933531834570        3.80510963659307       -1.28947258671059
H            2.96750379999348        2.87228029565333       -1.41816493169640
H            3.76103144468450       -0.86272563851191       -1.48732583942726
H            5.23926515293481       -2.78218571840874       -1.51989600328897
H            3.80969566215866       -6.22187055654669       -1.27355260816568
H            3.47784373389017       -6.48596969057753        0.43697232098827
H            4.89708414888535       -7.22076366077239       -0.30419053211996
H            6.38775214479834       -6.11104992757518        1.46604677098480
H            4.96171855399549       -5.38228074774652        2.20023503163821
H            6.30784044721152       -4.36175652341814        1.69595100546686
H            6.89636304924829       -4.15102551018794       -0.76636674050634
H            6.85857757279663       -5.90401433193286       -0.91949929490696
H            5.86696303072930       -4.91896533200603       -1.98862950479465
H            2.92256360051531       -4.61458522446898        1.57404524955665
H            1.45879397161095       -2.66854967859897        1.61952780553548
H           -3.73649874631864        0.90856833685992        1.52222436630040
H           -5.22786395705900        2.82614825744141        1.54460886640294

          :  Hamiltonian                  GFN2-xTB          :
         :: gradient norm              0.000035928789 Eh/a0 ::
         :: HOMO-LUMO gap              0.993584516285 eV    ::
         :: SCC energy              -155.212356075681 Eh    ::
         :: -> dispersion             -0.137307691688 Eh    ::
         :: -> Gsolv                  -0.064531563253 Eh    ::
         :: repulsion energy           2.560794445523 Eh    ::

    * Orbital Energies and Occupations

         #    Occupation            Energy/Eh            Energy/eV
      -------------------------------------------------------------
         1        2.0000           -0.7628110             -20.7571
       ...           ...                  ...                  ...
       130        2.0000           -0.4097924             -11.1510
       131        2.0000           -0.4081904             -11.1074
       132        2.0000           -0.4073233             -11.0838
       133        2.0000           -0.4071138             -11.0781
       134        2.0000           -0.4051143             -11.0237
       135        2.0000           -0.4034976             -10.9797
       136        2.0000           -0.4029402             -10.9646
       137        2.0000           -0.4008279             -10.9071
       138        2.0000           -0.3899387             -10.6108
       139        2.0000           -0.3863654             -10.5135
       140        2.0000           -0.3810360             -10.3685
       141        2.0000           -0.3577202              -9.7341
       142        2.0000           -0.3443551              -9.3704 (HOMO)
       143                         -0.3078415              -8.3768 (LUMO)
       144                         -0.3070603              -8.3555
       145                         -0.2577653              -7.0142
       146                         -0.2440545              -6.6411
       147                         -0.2297096              -6.2507
       148                         -0.2255401              -6.1373
       149                         -0.2251926              -6.1278
       150                         -0.2227610              -6.0616
       151                         -0.2215271              -6.0281
       152                         -0.2212771              -6.0213
       153                         -0.2194735              -5.9722
       ...                                ...                  ...
       284                          0.7259564              19.7543
      -------------------------------------------------------------
                  HL-Gap            0.0365136 Eh            0.9936 eV

     #   Z          covCN         q      C6AA      α(0)
     1   6 C        3.761    -0.106    22.562     6.771
     2   6 C        3.902     0.026    20.087     6.371
     3   6 C        3.761    -0.108    22.616     6.779
     4   6 C        3.761    -0.106    22.568     6.772
     5   6 C        2.972     0.006    27.878     8.661
     6   6 C        2.925    -0.039    28.981     8.828
     7   6 C        2.922    -0.047    29.176     8.858
     8   6 C        2.913     0.061    26.624     8.461
     9   7 N        2.817    -0.033    21.875     6.946
    10   6 C        3.111     0.025    27.303     8.560
    11   6 C        2.970     0.011    27.776     8.645
    12   6 C        2.924    -0.038    28.933     8.821
    13   6 C        2.922    -0.031    28.769     8.796
    14   6 C        2.975     0.007    27.851     8.657
    15   6 C        2.964    -0.002    28.084     8.692
    16   6 C        2.925    -0.041    29.019     8.834
    17   6 C        2.919    -0.030    28.752     8.793
    18   6 C        2.907    -0.050    29.239     8.866
    19   6 C        3.349     0.076    23.712     7.676
    20   7 N        1.851    -0.283    28.197     7.870
    21  16 S        2.672     0.324   128.548    19.082
    22   7 N        1.853    -0.276    28.017     7.845
    23   6 C        3.343     0.076    23.841     7.714
    24   6 C        2.923    -0.035    28.880     8.813
    25   6 C        2.922    -0.035    28.876     8.812
    26   6 C        2.999    -0.083    30.069     8.995
    27   6 C        3.226     0.013    26.948     8.435
    28   6 C        3.225     0.013    26.950     8.435
    29   6 C        2.999    -0.084    30.079     8.997
    30   6 C        3.112     0.025    27.296     8.559
    31   6 C        2.970     0.011    27.774     8.644
    32   6 C        2.922    -0.035    28.876     8.812
    33   6 C        2.923    -0.035    28.878     8.813
    34   6 C        2.975     0.008    27.848     8.656
    35   6 C        2.964    -0.002    28.079     8.692
    36   6 C        2.925    -0.041    29.016     8.834
    37   6 C        2.919    -0.030    28.750     8.793
    38   6 C        2.907    -0.050    29.236     8.866
    39   6 C        3.350     0.076    23.704     7.673
    40   7 N        1.851    -0.283    28.194     7.870
    41  16 S        2.672     0.325   128.508    19.079
    42   7 N        1.853    -0.276    28.010     7.844
    43   6 C        3.342     0.076    23.851     7.717
    44   6 C        2.922    -0.031    28.766     8.795
    45   6 C        2.924    -0.037    28.929     8.820
    46   7 N        2.817    -0.033    21.870     6.946
    47   6 C        2.913     0.061    26.627     8.461
    48   6 C        2.920    -0.045    29.118     8.849
    49   6 C        2.926    -0.039    28.967     8.826
    50   6 C        2.972     0.006    27.876     8.660
    51   6 C        3.902     0.026    20.087     6.371
    52   6 C        3.761    -0.106    22.570     6.772
    53   6 C        3.761    -0.106    22.567     6.772
    54   6 C        3.761    -0.108    22.611     6.779
    55   6 C        2.927    -0.035    28.876     8.812
    56   6 C        2.921    -0.047    29.169     8.857
    57   6 C        2.920    -0.045    29.113     8.848
    58   6 C        2.928    -0.035    28.866     8.811
    59   1 H        0.925     0.040     2.450     2.448
    60   1 H        0.925     0.037     2.489     2.467
    61   1 H        0.925     0.033     2.538     2.491
    62   1 H        0.925     0.039     2.467     2.456
    63   1 H        0.925     0.037     2.492     2.468
    64   1 H        0.925     0.037     2.490     2.468
    65   1 H        0.925     0.040     2.451     2.448
    66   1 H        0.925     0.033     2.538     2.491
    67   1 H        0.925     0.037     2.488     2.467
    68   1 H        0.926     0.044     2.391     2.418
    69   1 H        0.926     0.039     2.466     2.455
    70   1 H        0.926     0.037     2.489     2.467
    71   1 H        0.926     0.042     2.422     2.434
    72   1 H        0.926     0.048     2.341     2.393
    73   1 H        0.926     0.047     2.355     2.400
    74   1 H        0.926     0.046     2.372     2.409
    75   1 H        0.926     0.034     2.531     2.488
    76   1 H        0.926     0.032     2.560     2.502
    77   1 H        0.926     0.026     2.636     2.539
    78   1 H        0.926     0.026     2.642     2.542
    79   1 H        0.926     0.032     2.559     2.502
    80   1 H        0.926     0.034     2.531     2.488
    81   1 H        0.926     0.048     2.349     2.397
    82   1 H        0.926     0.047     2.358     2.401
    83   1 H        0.926     0.046     2.370     2.407
    84   1 H        0.926     0.042     2.422     2.434
    85   1 H        0.926     0.037     2.486     2.466
    86   1 H        0.926     0.033     2.546     2.495
    87   1 H        0.926     0.043     2.414     2.430
    88   1 H        0.925     0.034     2.537     2.491
    89   1 H        0.925     0.038     2.478     2.462
    90   1 H        0.925     0.040     2.449     2.447
    91   1 H        0.925     0.040     2.450     2.448
    92   1 H        0.925     0.038     2.477     2.461
    93   1 H        0.925     0.033     2.543     2.494
    94   1 H        0.925     0.036     2.504     2.474
    95   1 H        0.925     0.039     2.466     2.456
    96   1 H        0.925     0.036     2.497     2.471
    97   1 H        0.926     0.038     2.480     2.462
    98   1 H        0.926     0.039     2.464     2.455
    99   1 H        0.926     0.033     2.550     2.497
   100   1 H        0.926     0.036     2.503     2.474

molecular dipole:
                 x           y           z       tot (Debye)
 q only:       -0.075       0.225       0.267
   full:       -0.167       0.427       0.521       1.764

 projected vibrational frequencies (cm⁻¹)
eigval :       -0.00    -0.00    -0.00    -0.00     0.00     0.00
eigval :        7.63    11.73    12.56    14.18    18.76    20.58
eigval :       21.50    26.69    30.96    34.48    44.69    52.63
eigval :       58.76    69.26    70.93    73.57    80.39    82.83
eigval :       92.98    98.78   108.13   115.14   122.64   150.87
eigval :      153.59   158.19   169.01   172.57   178.15   181.00
eigval :      189.34   198.22   202.56   213.51   217.58   223.24
eigval :      232.84   235.27   247.18   262.07   265.68   283.66
eigval :      284.75   294.90   310.11   314.81   318.66   322.93
eigval :      333.97   340.75   350.29   358.42   365.32   367.49
eigval :      375.59   376.67   379.53   388.73   389.98   391.07
eigval :      395.07   423.09   428.39   429.34   438.77   448.10
eigval :      452.79   458.97   461.45   468.69   470.64   485.40
eigval :      499.88   513.66   519.08   520.60   535.97   539.53
eigval :      545.05   549.83   581.61   584.95   585.49   587.21
eigval :      594.29   597.90   602.28   603.45   608.07   610.80
eigval :      623.36   625.65   640.00   645.23   657.76   673.60
eigval :      692.25   692.95   695.40   713.30   726.73   731.55
eigval :      733.30   733.98   740.51   768.22   785.09   790.62
eigval :      790.97   793.37   808.15   816.52   816.66   820.38
eigval :      821.94   837.15   837.54   862.61   862.89   867.40
eigval :      869.90   871.70   872.09   877.05   881.40   882.58
eigval :      882.71   885.17   894.07   897.07   913.07   913.88
eigval :      917.16   917.49   918.96   919.47   924.47   924.64
eigval :      929.73   930.06   930.47   949.25   959.48   959.70
eigval :      959.96   962.04   962.60   963.24   963.42   980.49
eigval :     1007.54  1016.05  1026.77  1033.87  1035.24  1035.37
eigval :     1035.60  1040.64  1087.57  1088.75  1090.07  1100.36
eigval :     1138.78  1139.70  1141.33  1141.98  1145.48  1147.05
eigval :     1148.68  1150.68  1164.38  1172.26  1177.96  1178.52
eigval :     1201.04  1207.69  1208.62  1212.54  1218.51  1225.30
eigval :     1225.44  1231.93  1232.03  1271.17  1272.02  1273.56
eigval :     1275.34  1279.34  1279.57  1281.19  1284.32  1300.83
eigval :     1305.21  1306.92  1307.34  1308.76  1309.20  1318.18
eigval :     1318.50  1322.92  1323.26  1342.52  1343.97  1380.55
eigval :     1380.98  1386.83  1388.92  1398.34  1398.92  1402.37
eigval :     1402.51  1407.82  1408.62  1413.24  1413.55  1417.39
eigval :     1426.35  1427.71  1454.42  1469.23  1478.92  1486.96
eigval :     1488.07  1489.60  1490.32  1491.16  1491.20  1493.66
eigval :     1497.69  1498.65  1499.89  1504.12  1504.80  1510.25
eigval :     1512.49  1516.66  1516.93  1522.70  1527.47  1528.93
eigval :     1534.42  1547.45  1549.05  1568.92  1569.82  1578.66
eigval :     1578.67  1588.49  1590.15  1595.43  1602.50  1603.25
eigval :     3019.09  3020.61  3020.80  3021.11  3024.39  3024.57
eigval :     3024.99  3025.66  3028.05  3028.44  3031.42  3031.51
eigval :     3036.24  3036.69  3044.26  3044.77  3047.69  3048.05
eigval :     3074.63  3074.73  3081.17  3081.26  3081.74  3081.84
eigval :     3082.60  3083.41  3086.11  3088.01  3089.48  3089.80
eigval :     3092.89  3093.26  3093.55  3094.07  3103.29  3103.45
eigval :     3105.86  3106.94  3114.80  3116.36  3163.44  3164.68

   temp. (K)  partition function   enthalpy   heat capacity  entropy
                                   cal/mol     cal/K/mol   cal/K/mol   J/K/mol
 298.15  VIB  0.496E+25            30224.139    184.548    189.800
         ROT  0.257E+09              888.752      2.981     41.466
         INT  0.128E+34            31112.891    187.529    231.266
         TR   0.215E+29             1481.254      4.968     45.862
         TOT                       32594.1454   192.4970   277.1285  1159.5055

       T/K    H(0)-H(T)+PV         H(T)/Eh          T*S/Eh         G(T)/Eh
   ------------------------------------------------------------------------
    298.15    0.519421E-01    0.832214E+00    0.131673E+00    0.700541E+00
   ------------------------------------------------------------------------

         :::::::::::::::::::::::::::::::::::::::::::::::::::::
         ::                  THERMODYNAMIC                  ::
         :::::::::::::::::::::::::::::::::::::::::::::::::::::
         :: total free energy        -151.951020579601 Eh   ::
         ::.................................................::
         :: total energy             -152.651561633067 Eh   ::
         :: zero point energy           0.780271655011 Eh   ::
         :: G(RRHO) w/o ZPVE           -0.079730601545 Eh   ::
         :: G(RRHO) contrib.            0.700541053466 Eh   ::
         :::::::::::::::::::::::::::::::::::::::::::::::::::::

           -------------------------------------------------
          | TOTAL ENERGY             -152.651561633067 Eh   |
          | TOTAL ENTHALPY           -151.819347901086 Eh   |
          | TOTAL FREE ENERGY        -151.951020579601 Eh   |
          | GRADIENT NORM               0.000035931799 Eh/α |
          | HOMO-LUMO GAP               0.993584503176 eV   |
           -------------------------------------------------

 * finished run on 2025/07/20 at 01:58:19.098
