   * xtb version 6.7.1 (edcfbbe) compiled by 'albert@albert-system' on 2024-07-22

   ID    Z sym.   atoms
    1    6 C      1-8, 10-19, 23-39, 43-45, 47-58
    2    7 N      9, 20, 22, 40, 42, 46
    3   16 S      21, 41
    4    1 H      59-100

          program call               : xtb data2507/toluene/BTZPP/BTZPP_toluene_T1_crest.xyz --gfn 2 --uhf 2 --gbsa toluene --ohess vtight --parallel 40 --molden --ceasefiles --namespace data2507/toluene/BTZPP/BTZPP_toluene_T1_finalOpt
      * Solvation model:               GBSA
        Solvent                        toluene
        Solvent mass                       9.2140E+01 g/mol
          :  Hamiltonian                  GFN2-xTB          :
 * total energy  :  -152.5980420 Eh     change       -0.1035403E-09 Eh
 * total energy  :  -152.5982086 Eh     change       -0.1666294E-03 Eh
 * total energy  :  -152.5983315 Eh     change       -0.1228416E-03 Eh
 * total energy  :  -152.5983531 Eh     change       -0.2157393E-04 Eh
 * total energy  :  -152.5983806 Eh     change       -0.2758092E-04 Eh
 * total energy  :  -152.5983945 Eh     change       -0.1383889E-04 Eh
 * total energy  :  -152.5984055 Eh     change       -0.1105498E-04 Eh
 * total energy  :  -152.5984129 Eh     change       -0.7344728E-05 Eh
 * total energy  :  -152.5984161 Eh     change       -0.3195839E-05 Eh
 * total energy  :  -152.5984198 Eh     change       -0.3765129E-05 Eh
 * total energy  :  -152.5984727 Eh     change       -0.6069570E-06 Eh
 * total energy  :  -152.5984733 Eh     change       -0.6033090E-06 Eh
 * total energy  :  -152.5984739 Eh     change       -0.6087487E-06 Eh
 * total energy  :  -152.5984745 Eh     change       -0.6125769E-06 Eh
 * total energy  :  -152.5984752 Eh     change       -0.6196580E-06 Eh
 * total energy  :  -152.5984758 Eh     change       -0.6282734E-06 Eh
 * total energy  :  -152.5984764 Eh     change       -0.6516539E-06 Eh
 * total energy  :  -152.5984771 Eh     change       -0.6723224E-06 Eh
 * total energy  :  -152.5984771 Eh     change       -0.6710081E-08 Eh
   *** GEOMETRY OPTIMIZATION CONVERGED AFTER 44 ITERATIONS ***

 final structure:
================
100
 xtb: 6.7.1 (edcfbbe)
C           -4.47290960769960        5.93408742856947       -2.30239983810409
C           -4.63042123623360        5.48511502731938       -0.84174971853766
C           -4.21314218068643        6.64863983102906        0.06287658327745
C           -6.10290114329313        5.15548222527003       -0.55286505560950
C           -3.79680488765527        4.23500767854067       -0.61109343028074
C           -2.78563029746311        4.16286951092276        0.34009618676645
C           -2.06246082431029        2.99925759420012        0.53682581307048
C           -2.33625096231928        1.87072384006935       -0.22249048812134
N           -1.57701407775246        0.69850002294669       -0.03265634973076
C           -2.01385826014475       -0.60764464155804       -0.04629130166694
C           -3.38627868018599       -1.00625731796748        0.05654853175409
C           -4.35040590348275       -0.22027410726043        0.71463348013860
C           -5.65470067573945       -0.63164135691688        0.80637520778802
C           -6.08061537649325       -1.85188896109264        0.25395938342678
C           -7.46269511394463       -2.27546588035893        0.34630032984061
C           -7.82154074169275       -3.62578231741243        0.33648311036461
C           -9.14056782363443       -4.05828574296961        0.42823538323039
C          -10.19195073002403       -3.16948375341012        0.52134341654221
C           -9.89390461308167       -1.80298792026415        0.53091443391593
N          -10.77371308118550       -0.79886788041238        0.60057449602588
S           -9.95237893181075        0.60321369575527        0.56527752605148
N           -8.44601545942351       -0.01386635459093        0.46210002632764
C           -8.52876955906083       -1.34384373009605        0.45553476499236
C           -5.11065744728177       -2.64609960928818       -0.38404572222557
C           -3.80421164709219       -2.23969362231722       -0.47657240244712
C           -0.90045947238974       -1.48421375015830       -0.06187996065621
C            0.22106774767032       -0.68123028421206       -0.02959554998482
C           -0.20519524650046        0.67723965088230       -0.02994397022896
C            0.91629899465626        1.48000879553455       -0.06514913828985
C            2.02989571539973        0.60336725451594       -0.05086853698298
C            3.40190028197254        1.00302073987001        0.05015532546017
C            4.36882459480955        0.21704108511254        0.70429747418591
C            5.67147567529233        0.63291148203979        0.79899506079701
C            6.09340352172498        1.85765728471466        0.25321193632434
C            7.47287818736987        2.28773237124114        0.35076263417669
C            7.82435875833718        3.64031606401137        0.34547537121888
C            9.14048364496740        4.07999665628367        0.44134381787737
C           10.19673308940884        3.19676065556012        0.53444692841739
C            9.90628334700462        1.82868511005801        0.54031135735057
N           10.79188402420495        0.82969339807593        0.60995140778293
S            9.97875733432380       -0.57719154058707        0.57012867815977
N            8.46862319688781        0.03146197549403        0.46473178069681
C            8.54391723606928        1.36186789320492        0.46083364260904
C            5.12115505179335        2.65027061710041       -0.38360945015379
C            3.81641455882106        2.23959143970861       -0.47875376865496
N            1.59285088344701       -0.70261772122724       -0.03456925768416
C            2.34982394194647       -1.87594847187457       -0.22794164018338
C            3.32810715979869       -1.94164871837229       -1.21124493703319
C            4.04381965698117       -3.10947884583323       -1.40015092175407
C            3.79963017827364       -4.24393037842416       -0.63305569924454
C            4.57271963810530       -5.54152410989672       -0.80618798738556
C            3.59115663037447       -6.66949833825667       -1.15851659094753
C            5.29244030872038       -5.86864721262751        0.51102683811867
C            5.62416398806334       -5.45804417103246       -1.91667780581472
C            2.79888000615031       -4.16369388743626        0.33367175906166
C            2.08053949076561       -3.00262644511149        0.53942386779142
C           -3.32669482254947        1.93048799559722       -1.19702045039229
C           -4.04505955561218        3.09451800278474       -1.37445026793107
H           -4.82951138588725        5.17514055735955       -2.99305918862915
H           -3.42672249850980        6.13543164260932       -2.52488187318611
H           -5.04330056613180        6.84411245741297       -2.47567669552694
H           -4.84030868458877        7.51250059192184       -0.14788202126738
H           -4.33856791800308        6.39404375264614        1.11277085707920
H           -3.17907234787086        6.93416419676274       -0.11675310181049
H           -6.47084322074868        4.36725074078646       -1.20396854074735
H           -6.71998428338613        6.03849792872158       -0.70482061692076
H           -6.22124504828358        4.82558541926765        0.47746719990851
H           -2.54699309304666        5.01550167322140        0.95368389749621
H           -1.29268997804455        2.96091269863261        1.29303282244462
H           -4.05593388801925        0.70402042457138        1.18672907965055
H           -6.37512174680507       -0.01626805156879        1.32040547938935
H           -7.04296442002603       -4.37196978556421        0.29300661566504
H           -9.34385034649690       -5.11950983245437        0.42917965453771
H          -11.21741695787256       -3.49740882010476        0.58641534505454
H           -5.40412656020606       -3.57619053867650       -0.84641269261107
H           -3.09192363968493       -2.85401286656628       -1.00585149520654
H           -0.95677261278633       -2.55337848440524       -0.04775990175764
H            0.97267904034139        2.54915655836302       -0.05211529306477
H            4.07754904065455       -0.71066374388987        1.17171206588786
H            6.39381137424700        0.01820491508522        1.31117919231915
H            7.04169898940551        4.38221239722281        0.30237199767838
H            9.33787127389145        5.14232091064008        0.44558853525692
H           11.22020041494714        3.53027654840028        0.60245088968183
H            5.41168168517579        3.58299702733011       -0.84246518543976
H            3.10256399187957        2.85337756992282       -1.00649342531601
H            3.53302733813472       -1.07762362796938       -1.82538923719395
H            4.79891238956736       -3.11785420330736       -2.16800749156105
H            2.86482310935854       -6.82798195172644       -0.36629699313225
H            4.13348820030456       -7.59991187386218       -1.31221922622653
H            3.05344025560328       -6.42925088925931       -2.07373649620139
H            5.97282800594813       -5.06229369363192        0.77826632305239
H            5.86986804949147       -6.78431973250905        0.40300200597614
H            4.58765058289423       -6.00588187233802        1.32651523211191
H            6.36277126095811       -4.68919395612723       -1.70100277869467
H            6.14557339787067       -6.41017510497431       -1.99239291546586
H            5.16283541672188       -5.25208157219749       -2.88001520257579
H            2.57200538079931       -5.01988647387067        0.94974722848173
H            1.31953905959979       -2.95988696807260        1.30417581523935
H           -3.53496510405440        1.06508093493341       -1.80793239576666
H           -4.81357324953801        3.10681885741251       -2.13131497568838

          :  Hamiltonian                  GFN2-xTB          :
         :: gradient norm              0.000058564792 Eh/a0 ::
         :: HOMO-LUMO gap              0.084470959903 eV    ::
         :: SCC energy              -155.142693380184 Eh    ::
         :: -> dispersion             -0.137052802343 Eh    ::
         :: -> Gsolv                  -0.072987448645 Eh    ::
         :: repulsion energy           2.544216260106 Eh    ::

    * Orbital Energies and Occupations

         #    Occupation            Energy/Eh            Energy/eV
      -------------------------------------------------------------
         1        2.0000           -0.7384457             -20.0941
       ...           ...                  ...                  ...
       131        2.0000           -0.4103947             -11.1674
       132        2.0000           -0.3982628             -10.8373
       133        2.0000           -0.3979152             -10.8278
       134        2.0000           -0.3976803             -10.8214
       135        2.0000           -0.3960150             -10.7761
       136        2.0000           -0.3956945             -10.7674
       137        2.0000           -0.3929928             -10.6939
       138        2.0000           -0.3929534             -10.6928
       139        2.0000           -0.3876929             -10.5497
       140        2.0000           -0.3774758             -10.2716
       141        1.9998           -0.3755526             -10.2193
       142        1.0002           -0.3595568              -9.7840
       143        0.8367           -0.2983581              -8.1187 (HOMO)
       144        0.1633           -0.2952539              -8.0343 (LUMO)
       145                         -0.2745528              -7.4710
       146                         -0.2507704              -6.8238
       147                         -0.2365132              -6.4359
       148                         -0.2327067              -6.3323
       149                         -0.2324598              -6.3256
       150                         -0.2315077              -6.2996
       151                         -0.2267568              -6.1704
       152                         -0.2266691              -6.1680
       153                         -0.2142605              -5.8303
       154                         -0.2072751              -5.6402
       ...                                ...                  ...
       284                          0.7179373              19.5361
      -------------------------------------------------------------
                  HL-Gap            0.0031042 Eh            0.0845 eV

     #   Z          covCN         q      C6AA      α(0)
     1   6 C        3.761    -0.107    22.592     6.776
     2   6 C        3.902     0.027    20.071     6.368
     3   6 C        3.761    -0.110    22.648     6.784
     4   6 C        3.761    -0.107    22.587     6.775
     5   6 C        2.973     0.013    27.725     8.637
     6   6 C        2.925    -0.037    28.918     8.819
     7   6 C        2.921    -0.045    29.118     8.849
     8   6 C        2.915     0.055    26.772     8.485
     9   7 N        2.805    -0.010    21.448     6.878
    10   6 C        3.109     0.051    26.709     8.467
    11   6 C        2.969     0.009    27.818     8.651
    12   6 C        2.918    -0.029    28.721     8.788
    13   6 C        2.920    -0.031    28.765     8.795
    14   6 C        2.972     0.021    27.524     8.606
    15   6 C        2.964    -0.018    28.464     8.751
    16   6 C        2.922    -0.046    29.148     8.854
    17   6 C        2.916    -0.039    28.975     8.827
    18   6 C        2.908    -0.057    29.419     8.894
    19   6 C        3.326     0.080    24.087     7.797
    20   7 N        1.848    -0.309    28.852     7.961
    21  16 S        2.628     0.216   132.553    19.377
    22   7 N        1.851    -0.298    28.568     7.922
    23   6 C        3.312     0.081    24.339     7.873
    24   6 C        2.920    -0.034    28.852     8.808
    25   6 C        2.921    -0.032    28.797     8.800
    26   6 C        2.993    -0.071    29.749     8.947
    27   6 C        3.213     0.029    26.712     8.410
    28   6 C        3.213     0.028    26.717     8.411
    29   6 C        2.993    -0.071    29.749     8.947
    30   6 C        3.108     0.051    26.708     8.467
    31   6 C        2.969     0.009    27.817     8.651
    32   6 C        2.918    -0.029    28.722     8.788
    33   6 C        2.920    -0.031    28.765     8.795
    34   6 C        2.972     0.021    27.523     8.605
    35   6 C        2.964    -0.018    28.467     8.752
    36   6 C        2.922    -0.046    29.149     8.854
    37   6 C        2.916    -0.039    28.977     8.827
    38   6 C        2.908    -0.057    29.421     8.894
    39   6 C        3.326     0.080    24.085     7.797
    40   7 N        1.848    -0.309    28.854     7.961
    41  16 S        2.628     0.213   132.644    19.384
    42   7 N        1.851    -0.298    28.582     7.924
    43   6 C        3.311     0.081    24.342     7.875
    44   6 C        2.920    -0.034    28.852     8.808
    45   6 C        2.921    -0.032    28.797     8.800
    46   7 N        2.805    -0.010    21.452     6.879
    47   6 C        2.915     0.055    26.771     8.485
    48   6 C        2.920    -0.041    29.024     8.835
    49   6 C        2.926    -0.035    28.875     8.812
    50   6 C        2.972     0.013    27.725     8.637
    51   6 C        3.902     0.027    20.072     6.368
    52   6 C        3.761    -0.107    22.595     6.776
    53   6 C        3.761    -0.107    22.593     6.776
    54   6 C        3.761    -0.110    22.643     6.783
    55   6 C        2.928    -0.033    28.811     8.803
    56   6 C        2.920    -0.045    29.113     8.848
    57   6 C        2.919    -0.041    29.022     8.834
    58   6 C        2.928    -0.031    28.768     8.796
    59   1 H        0.925     0.038     2.470     2.458
    60   1 H        0.925     0.035     2.510     2.478
    61   1 H        0.925     0.041     2.436     2.441
    62   1 H        0.925     0.040     2.454     2.450
    63   1 H        0.925     0.038     2.470     2.458
    64   1 H        0.925     0.039     2.465     2.455
    65   1 H        0.925     0.038     2.472     2.459
    66   1 H        0.925     0.041     2.436     2.441
    67   1 H        0.925     0.035     2.517     2.481
    68   1 H        0.926     0.052     2.297     2.370
    69   1 H        0.926     0.045     2.379     2.412
    70   1 H        0.926     0.043     2.415     2.430
    71   1 H        0.926     0.054     2.266     2.354
    72   1 H        0.926     0.039     2.463     2.454
    73   1 H        0.926     0.033     2.539     2.492
    74   1 H        0.926     0.031     2.575     2.509
    75   1 H        0.926     0.043     2.415     2.430
    76   1 H        0.926     0.048     2.339     2.391
    77   1 H        0.926     0.057     2.232     2.336
    78   1 H        0.926     0.057     2.231     2.336
    79   1 H        0.926     0.043     2.415     2.430
    80   1 H        0.926     0.054     2.269     2.356
    81   1 H        0.926     0.039     2.463     2.454
    82   1 H        0.926     0.033     2.540     2.492
    83   1 H        0.926     0.031     2.576     2.510
    84   1 H        0.926     0.043     2.415     2.430
    85   1 H        0.926     0.049     2.338     2.391
    86   1 H        0.926     0.039     2.468     2.456
    87   1 H        0.926     0.050     2.322     2.383
    88   1 H        0.925     0.040     2.454     2.450
    89   1 H        0.925     0.041     2.434     2.440
    90   1 H        0.925     0.035     2.514     2.479
    91   1 H        0.925     0.035     2.516     2.481
    92   1 H        0.925     0.041     2.435     2.440
    93   1 H        0.925     0.039     2.458     2.452
    94   1 H        0.925     0.038     2.479     2.462
    95   1 H        0.925     0.039     2.456     2.451
    96   1 H        0.925     0.038     2.480     2.463
    97   1 H        0.926     0.045     2.383     2.414
    98   1 H        0.926     0.045     2.381     2.413
    99   1 H        0.926     0.038     2.470     2.458
   100   1 H        0.926     0.043     2.411     2.428

molecular dipole:
                 x           y           z       tot (Debye)
 q only:       -0.067      -0.020      -0.742
   full:       -0.077      -0.026      -0.761       1.946

 projected vibrational frequencies (cm⁻¹)
eigval :       -0.00    -0.00    -0.00     0.00     0.00     0.00
eigval :        8.66    11.06    12.08    15.11    16.42    20.68
eigval :       23.21    25.30    26.37    38.42    41.38    53.39
eigval :       58.83    63.05    66.45    70.34    80.97    83.31
eigval :       85.91   103.72   107.32   110.49   131.78   138.49
eigval :      160.26   167.57   170.96   171.89   183.97   185.32
eigval :      193.65   195.69   206.27   215.38   221.65   222.77
eigval :      226.05   238.20   245.13   250.12   259.67   282.41
eigval :      289.91   295.91   302.55   312.66   314.55   316.85
eigval :      323.82   347.04   354.37   356.82   363.75   366.44
eigval :      373.05   375.54   379.14   380.46   383.92   386.59
eigval :      399.17   415.42   421.16   423.11   434.17   439.93
eigval :      443.02   450.97   456.30   458.44   459.47   483.54
eigval :      486.98   501.51   505.60   510.20   527.32   533.37
eigval :      536.71   545.91   572.04   575.45   581.89   583.13
eigval :      588.97   597.36   598.51   600.06   602.33   609.32
eigval :      619.19   627.95   629.87   652.75   654.93   670.49
eigval :      690.14   690.46   692.23   712.28   720.43   721.33
eigval :      723.43   724.98   737.17   763.72   768.26   768.71
eigval :      782.36   782.97   793.99   797.23   809.18   815.43
eigval :      817.26   818.75   820.29   823.08   844.47   845.58
eigval :      847.29   854.07   854.83   862.85   866.79   867.31
eigval :      868.05   874.22   880.29   886.65   903.02   903.59
eigval :      913.05   914.28   915.62   915.99   921.87   922.48
eigval :      923.11   927.15   927.72   941.47   948.01   959.25
eigval :      959.83   960.64   961.80   963.78   964.92   977.86
eigval :     1000.30  1007.55  1018.36  1031.62  1033.81  1034.06
eigval :     1034.90  1036.06  1078.98  1087.17  1096.42  1097.63
eigval :     1126.81  1132.45  1135.82  1139.80  1140.83  1146.53
eigval :     1147.42  1149.58  1158.92  1162.31  1180.61  1181.22
eigval :     1196.18  1197.04  1201.46  1208.36  1216.44  1224.61
eigval :     1224.67  1225.03  1231.03  1231.76  1232.86  1262.32
eigval :     1271.74  1272.69  1274.71  1275.69  1281.81  1285.39
eigval :     1290.57  1293.30  1303.57  1308.44  1308.63  1316.22
eigval :     1318.69  1328.57  1328.98  1334.10  1338.67  1349.61
eigval :     1351.31  1369.70  1383.66  1394.43  1395.08  1397.54
eigval :     1401.83  1403.56  1403.69  1407.46  1410.30  1422.13
eigval :     1427.13  1427.41  1427.83  1432.91  1446.64  1456.35
eigval :     1482.77  1483.22  1485.59  1486.26  1487.94  1488.65
eigval :     1489.99  1490.27  1494.75  1495.97  1498.75  1498.94
eigval :     1502.29  1502.87  1503.68  1510.89  1511.06  1514.41
eigval :     1515.61  1515.85  1529.09  1533.75  1552.06  1567.82
eigval :     1569.21  1572.93  1575.81  1584.95  1597.70  1598.66
eigval :     3021.89  3022.56  3022.83  3023.42  3026.18  3026.22
eigval :     3026.82  3027.51  3030.27  3030.50  3032.39  3032.67
eigval :     3037.25  3037.90  3044.98  3046.06  3048.45  3049.41
eigval :     3073.44  3073.57  3084.20  3084.42  3085.46  3085.91
eigval :     3087.80  3088.86  3091.33  3091.43  3096.54  3096.57
eigval :     3097.11  3097.66  3097.84  3098.59  3099.14  3099.84
eigval :     3116.41  3116.67  3119.80  3123.31  3182.80  3182.98

   temp. (K)  partition function   enthalpy   heat capacity  entropy
                                   cal/mol     cal/K/mol   cal/K/mol   J/K/mol
 298.15  VIB  0.782E+25            30464.009    186.020    191.114
         ROT  0.240E+09              888.752      2.981     41.329
         INT  0.188E+34            31352.761    189.001    232.443
         TR   0.215E+29             1481.254      4.968     45.862
         TOT                       32834.0150   193.9695   278.3052  1164.4288

       T/K    H(0)-H(T)+PV         H(T)/Eh          T*S/Eh         G(T)/Eh
   ------------------------------------------------------------------------
    298.15    0.523243E-01    0.829209E+00    0.132232E+00    0.696978E+00
   ------------------------------------------------------------------------

         :::::::::::::::::::::::::::::::::::::::::::::::::::::
         ::                  THERMODYNAMIC                  ::
         :::::::::::::::::::::::::::::::::::::::::::::::::::::
         :: total free energy        -151.901499516926 Eh   ::
         ::.................................................::
         :: total energy             -152.598477121948 Eh   ::
         :: zero point energy           0.776885039728 Eh   ::
         :: G(RRHO) w/o ZPVE           -0.079907434706 Eh   ::
         :: G(RRHO) contrib.            0.696977605022 Eh   ::
         :::::::::::::::::::::::::::::::::::::::::::::::::::::

           -------------------------------------------------
          | TOTAL ENERGY             -152.598477121948 Eh   |
          | TOTAL ENTHALPY           -151.769267748771 Eh   |
          | TOTAL FREE ENERGY        -151.901499516926 Eh   |
          | GRADIENT NORM               0.000059638891 Eh/α |
          | HOMO-LUMO GAP               0.084469588119 eV   |
           -------------------------------------------------

 * finished run on 2025/07/20 at 02:23:47.573
