   * xtb version 6.7.1 (edcfbbe) compiled by 'albert@albert-system' on 2024-07-22

   ID    Z sym.   atoms
    1    6 C      1-8, 10-19, 23-39, 43-45, 47-58
    2    7 N      9, 20, 22, 40, 42, 46
    3   16 S      21, 41
    4    1 H      59-100

          program call               : xtb data2507/toluene/BTZPP/BTZPP_toluene_S0_finalOpt.xtbopt.xyz --gfn 2 --uhf 2 --gbsa toluene --ohess vtight --parallel 40 --molden --ceasefiles --namespace data2507/toluene/BTZPP/BTZPP_toluene_T1_preOpt
      * Solvation model:               GBSA
        Solvent                        toluene
        Solvent mass                       9.2140E+01 g/mol
          :  Hamiltonian                  GFN2-xTB          :
 * total energy  :  -152.5920655 Eh     change       -0.1532072E-08 Eh
 * total energy  :  -152.5955294 Eh     change       -0.3463948E-02 Eh
 * total energy  :  -152.5968502 Eh     change       -0.1320819E-02 Eh
 * total energy  :  -152.5970207 Eh     change       -0.1704957E-03 Eh
 * total energy  :  -152.5971960 Eh     change       -0.1752646E-03 Eh
 * total energy  :  -152.5973040 Eh     change       -0.1080074E-03 Eh
 * total energy  :  -152.5974225 Eh     change       -0.1184709E-03 Eh
 * total energy  :  -152.5975180 Eh     change       -0.9554923E-04 Eh
 * total energy  :  -152.5975781 Eh     change       -0.6007093E-04 Eh
 * total energy  :  -152.5976126 Eh     change       -0.3450968E-04 Eh
 * total energy  :  -152.5980204 Eh     change       -0.2084296E-05 Eh
 * total energy  :  -152.5980227 Eh     change       -0.2275409E-05 Eh
 * total energy  :  -152.5980254 Eh     change       -0.2734662E-05 Eh
 * total energy  :  -152.5980277 Eh     change       -0.2231913E-05 Eh
 * total energy  :  -152.5980288 Eh     change       -0.1153620E-05 Eh
 * total energy  :  -152.5980295 Eh     change       -0.7089626E-06 Eh
 * total energy  :  -152.5980301 Eh     change       -0.5886026E-06 Eh
 * total energy  :  -152.5980306 Eh     change       -0.4414166E-06 Eh
 * total energy  :  -152.5980307 Eh     change       -0.9626555E-07 Eh
   *** GEOMETRY OPTIMIZATION CONVERGED AFTER 44 ITERATIONS ***

 final structure:
================
100
 xtb: 6.7.1 (edcfbbe)
C           -5.64088740653349        5.31446376087543       -0.34291828036675
C           -4.13438044016902        5.55179878064263       -0.52841645952333
C           -3.86105083951457        6.08434181943447       -1.94304443040261
C           -3.68959310777066        6.61792685388944        0.47752185190623
C           -3.40454568652373        4.23115039184530       -0.34414288384202
C           -2.44646303024863        4.02621380599035        0.64203890674015
C           -1.81815693284439        2.80235411187703        0.79360909532162
C           -2.13757235013874        1.74567120094050       -0.04684509835982
N           -1.48007450827954        0.50802723012422        0.10490507954405
C           -2.01929639731176       -0.75569706539133        0.01675894623458
C           -3.42270664459981       -1.04483497655681        0.04367834663914
C           -4.34964932349119       -0.21253374495389        0.69792378914302
C           -5.68522624888902       -0.52046177743382        0.71746242158505
C           -6.18149795965039       -1.67671074805339        0.09136047033158
C           -7.59581431053916       -1.98974752874668        0.10650753906767
C           -8.06020340710710       -3.30472100395987        0.02186864129610
C           -9.41227395628404       -3.63155766386839        0.03975619056787
C          -10.39268916344515       -2.66440807642854        0.12644258157711
C           -9.98753079743265       -1.32810609731427        0.20739370846521
N          -10.78651526657368       -0.25902123490082        0.28327835200086
S           -9.85490073632091        1.07150004276867        0.34767736248393
N           -8.39967110334616        0.33781983706648        0.28254661074593
C           -8.58804920587220       -0.97949840388777        0.21186853359646
C           -5.25023065616924       -2.51900460624962       -0.54238319341643
C           -3.91288542758451       -2.21596612115662       -0.56314134326723
C           -0.98041112359446       -1.71965989951355        0.01260994121025
C            0.19914553288630       -1.01312317752480        0.12790514916980
C           -0.11617015772387        0.37455892477686        0.16532638498454
C            1.06663876566497        1.08337656371491        0.21316082073927
C            2.10456810015265        0.11878276463022        0.24195554612070
C            3.49728762334972        0.40670986711063        0.41929368384804
C            4.36983902252294       -0.46952508885186        1.09009266342247
C            5.68942707242941       -0.14684049572018        1.27592473672587
C            6.22916396773793        1.05805265096056        0.78894588811125
C            7.62664766650464        1.38888669738566        0.97935652895143
C            8.36959416338664        0.85404177483413        2.03627614414319
C            9.71325966414408        1.14659947287603        2.24308423680250
C           10.41281954898748        1.98409907651074        1.39851580842849
C            9.72233942129576        2.55106197310969        0.32263501571677
N           10.23102813101691        3.37562160189796       -0.59822417436445
S            9.04982688136158        3.76353645460983       -1.64524510849974
N            7.84596137283288        2.89834212950337       -0.96440440523590
C            8.32251979035880        2.27261404814773        0.11111236522081
C            5.35458794399544        1.93002565424102        0.11726317046859
C            4.02834071428440        1.62369582957602       -0.04728695464174
N            1.56370544589964       -1.14670607258177        0.18563726681650
C            2.23030355603683       -2.37406401672191       -0.00151008441727
C            3.25756958771516       -2.49800099413073       -0.93083688422894
C            3.87848338946180       -3.71720519078167       -1.10826296551417
C            3.49568869444932       -4.84904333286328       -0.38872554257295
C            4.22157682119312       -6.16485310418641       -0.61956667272462
C            4.07720618878835       -6.56662785771250       -2.09514715024554
C            3.66793863820122       -7.30384182297560        0.24213027691531
C            5.70658838518801       -5.97902257652583       -0.27281657458120
C            2.45249412381893       -4.70933564845664        0.51942175552076
C            1.82483593189734       -3.49144511498011        0.71458906307161
C           -3.07364024018932        1.93837295468200       -1.05713946656200
C           -3.69708005416107        3.16160257473598       -1.19014341323226
H           -6.18308378424644        6.25046805823561       -0.45914210067808
H           -5.84231823750893        4.92112461651625        0.65161812455810
H           -6.02637042237790        4.60595579036315       -1.07087451484044
H           -4.35875605666001        7.04152538491433       -2.08271714973673
H           -2.79254485980742        6.22640040563534       -2.09339632291834
H           -4.22541502465081        5.39950787720682       -2.70361886004197
H           -4.24423082779957        7.53670618509387        0.29818834582822
H           -2.63030395466611        6.84081523941004        0.37106766001904
H           -3.88956577402120        6.30170540667881        1.49877810922207
H           -2.17647010919314        4.81971001211049        1.31867743251566
H           -1.08891825104232        2.66094481354192        1.57733075752425
H           -4.00434650212097        0.66334659438181        1.22462017995709
H           -6.37660661742794        0.12851220864166        1.23000184498274
H           -7.34230523291951       -4.10953641510854       -0.02165979589441
H           -9.69911001099181       -4.67198819030505       -0.01318135135251
H          -11.44292805303085       -2.91012991071838        0.13385990312025
H           -5.59567108519953       -3.40175111540874       -1.05855837984987
H           -3.22882330981487       -2.86289919954532       -1.09078262654319
H           -1.12372586236802       -2.78025493707725       -0.02116084559735
H            1.20792416529369        2.14306866731211        0.27288406034730
H            3.99321335973619       -1.39764916646879        1.49152191509536
H            6.32887276783050       -0.85149018450834        1.78495616329300
H            7.87535111807322        0.21279433928666        2.74974861678606
H           10.21967791053304        0.70609292053694        3.08985468779736
H           11.45663000168930        2.21065561473213        1.54805131709607
H            5.74475361902409        2.85641312505808       -0.27163082930584
H            3.38662376954452        2.31276252065764       -0.57444022246040
H            3.56937427291446       -1.63985451343287       -1.50713388541373
H            4.67629621689258       -3.78023882182181       -1.83175254563472
H            3.02600461904752       -6.67051168672425       -2.35703473309781
H            4.57171119703024       -7.51942539891285       -2.27167545364347
H            4.52226971571138       -5.82707328874906       -2.75491039525685
H            3.77495698614742       -7.08265427010271        1.30166169740365
H            4.22302936683393       -8.21627100996789        0.03402988585172
H            2.62029428029775       -7.49184773461226        0.01843691193902
H            5.81641674528558       -5.67939188967643        0.76774046080741
H            6.24398648780329       -6.91341241940192       -0.42024148592487
H            6.16923417198047       -5.21913849179264       -0.89668740691634
H            2.11252810249941       -5.55120334157508        1.09906738151895
H            1.02625804061144       -3.40315403476382        1.43592054295264
H           -3.31481082272156        1.12914279322157       -1.72988736100897
H           -4.42564713713759        3.27781664132193       -1.97710263688402

          :  Hamiltonian                  GFN2-xTB          :
         :: gradient norm              0.000114823158 Eh/a0 ::
         :: HOMO-LUMO gap              0.082421920201 eV    ::
         :: SCC energy              -155.141770455017 Eh    ::
         :: -> dispersion             -0.136830628651 Eh    ::
         :: -> Gsolv                  -0.073202372787 Eh    ::
         :: repulsion energy           2.543739746103 Eh    ::

    * Orbital Energies and Occupations

         #    Occupation            Energy/Eh            Energy/eV
      -------------------------------------------------------------
         1        2.0000           -0.7383097             -20.0904
       ...           ...                  ...                  ...
       131        2.0000           -0.4102709             -11.1640
       132        2.0000           -0.3990289             -10.8581
       133        2.0000           -0.3978155             -10.8251
       134        2.0000           -0.3976785             -10.8214
       135        2.0000           -0.3959577             -10.7746
       136        2.0000           -0.3954259             -10.7601
       137        2.0000           -0.3928552             -10.6901
       138        2.0000           -0.3926815             -10.6854
       139        2.0000           -0.3871098             -10.5338
       140        2.0000           -0.3780188             -10.2864
       141        1.9998           -0.3755142             -10.2183
       142        1.0002           -0.3595847              -9.7848
       143        0.8312           -0.2982179              -8.1149 (HOMO)
       144        0.1688           -0.2951891              -8.0325 (LUMO)
       145                         -0.2745088              -7.4698
       146                         -0.2507333              -6.8228
       147                         -0.2372363              -6.4555
       148                         -0.2336604              -6.3582
       149                         -0.2326701              -6.3313
       150                         -0.2320513              -6.3144
       151                         -0.2271361              -6.1807
       152                         -0.2265985              -6.1661
       153                         -0.2142618              -5.8304
       154                         -0.2071981              -5.6381
       ...                                ...                  ...
       284                          0.7179286              19.5358
      -------------------------------------------------------------
                  HL-Gap            0.0030289 Eh            0.0824 eV

     #   Z          covCN         q      C6AA      α(0)
     1   6 C        3.761    -0.107    22.589     6.775
     2   6 C        3.902     0.027    20.071     6.368
     3   6 C        3.761    -0.107    22.592     6.776
     4   6 C        3.761    -0.110    22.649     6.784
     5   6 C        2.973     0.013    27.720     8.636
     6   6 C        2.925    -0.037    28.916     8.818
     7   6 C        2.921    -0.045    29.113     8.848
     8   6 C        2.915     0.055    26.775     8.485
     9   7 N        2.805    -0.010    21.438     6.877
    10   6 C        3.109     0.051    26.709     8.467
    11   6 C        2.969     0.009    27.819     8.651
    12   6 C        2.918    -0.029    28.723     8.789
    13   6 C        2.920    -0.031    28.764     8.795
    14   6 C        2.972     0.021    27.524     8.606
    15   6 C        2.964    -0.018    28.465     8.751
    16   6 C        2.922    -0.046    29.149     8.854
    17   6 C        2.916    -0.039    28.977     8.827
    18   6 C        2.908    -0.057    29.420     8.894
    19   6 C        3.326     0.080    24.094     7.799
    20   7 N        1.848    -0.309    28.855     7.961
    21  16 S        2.627     0.216   132.556    19.378
    22   7 N        1.851    -0.298    28.569     7.922
    23   6 C        3.312     0.081    24.340     7.874
    24   6 C        2.920    -0.034    28.853     8.809
    25   6 C        2.921    -0.032    28.797     8.800
    26   6 C        2.993    -0.071    29.752     8.948
    27   6 C        3.213     0.028    26.721     8.412
    28   6 C        3.213     0.028    26.720     8.412
    29   6 C        2.993    -0.070    29.735     8.945
    30   6 C        3.107     0.052    26.705     8.467
    31   6 C        2.969     0.009    27.817     8.651
    32   6 C        2.918    -0.030    28.759     8.794
    33   6 C        2.920    -0.034    28.844     8.807
    34   6 C        2.972     0.021    27.525     8.606
    35   6 C        2.963    -0.018    28.460     8.750
    36   6 C        2.922    -0.046    29.149     8.854
    37   6 C        2.916    -0.039    28.977     8.827
    38   6 C        2.908    -0.057    29.417     8.893
    39   6 C        3.327     0.080    24.078     7.795
    40   7 N        1.848    -0.308    28.838     7.959
    41  16 S        2.625     0.212   132.687    19.387
    42   7 N        1.851    -0.298    28.583     7.924
    43   6 C        3.309     0.081    24.388     7.888
    44   6 C        2.920    -0.032    28.804     8.801
    45   6 C        2.921    -0.031    28.767     8.795
    46   7 N        2.805    -0.010    21.446     6.878
    47   6 C        2.915     0.055    26.766     8.484
    48   6 C        2.919    -0.041    29.030     8.835
    49   6 C        2.928    -0.031    28.785     8.799
    50   6 C        2.972     0.012    27.735     8.639
    51   6 C        3.902     0.027    20.072     6.368
    52   6 C        3.761    -0.107    22.590     6.775
    53   6 C        3.761    -0.110    22.648     6.784
    54   6 C        3.761    -0.107    22.582     6.774
    55   6 C        2.925    -0.037    28.918     8.819
    56   6 C        2.921    -0.045    29.113     8.848
    57   6 C        2.919    -0.041    29.018     8.834
    58   6 C        2.928    -0.031    28.766     8.796
    59   1 H        0.925     0.041     2.436     2.441
    60   1 H        0.925     0.035     2.517     2.481
    61   1 H        0.925     0.038     2.470     2.458
    62   1 H        0.925     0.041     2.434     2.440
    63   1 H        0.925     0.036     2.509     2.477
    64   1 H        0.925     0.038     2.470     2.458
    65   1 H        0.925     0.040     2.453     2.449
    66   1 H        0.925     0.039     2.465     2.455
    67   1 H        0.925     0.038     2.470     2.458
    68   1 H        0.926     0.052     2.295     2.369
    69   1 H        0.926     0.045     2.380     2.413
    70   1 H        0.926     0.043     2.415     2.430
    71   1 H        0.926     0.054     2.267     2.354
    72   1 H        0.926     0.039     2.465     2.455
    73   1 H        0.926     0.033     2.541     2.493
    74   1 H        0.926     0.031     2.576     2.510
    75   1 H        0.926     0.042     2.416     2.431
    76   1 H        0.926     0.048     2.340     2.392
    77   1 H        0.926     0.057     2.232     2.336
    78   1 H        0.926     0.057     2.233     2.337
    79   1 H        0.926     0.043     2.412     2.429
    80   1 H        0.926     0.042     2.425     2.435
    81   1 H        0.926     0.039     2.461     2.453
    82   1 H        0.926     0.033     2.539     2.492
    83   1 H        0.926     0.031     2.573     2.508
    84   1 H        0.926     0.056     2.241     2.341
    85   1 H        0.926     0.048     2.346     2.395
    86   1 H        0.926     0.039     2.461     2.453
    87   1 H        0.926     0.043     2.415     2.430
    88   1 H        0.925     0.035     2.510     2.478
    89   1 H        0.925     0.041     2.436     2.441
    90   1 H        0.925     0.038     2.471     2.458
    91   1 H        0.925     0.038     2.470     2.458
    92   1 H        0.925     0.040     2.455     2.450
    93   1 H        0.925     0.039     2.465     2.455
    94   1 H        0.925     0.035     2.522     2.483
    95   1 H        0.925     0.041     2.437     2.441
    96   1 H        0.925     0.038     2.478     2.462
    97   1 H        0.926     0.052     2.295     2.369
    98   1 H        0.926     0.046     2.375     2.410
    99   1 H        0.926     0.039     2.468     2.456
   100   1 H        0.926     0.043     2.408     2.427

molecular dipole:
                 x           y           z       tot (Debye)
 q only:        0.216      -1.607       0.109
   full:        0.295      -2.191       0.373       5.699

 projected vibrational frequencies (cm⁻¹)
eigval :       -0.00    -0.00    -0.00     0.00     0.00     0.00
eigval :        7.30    10.97    13.16    15.10    18.54    19.61
eigval :       21.23    24.93    29.39    36.26    43.23    57.24
eigval :       57.96    63.54    65.12    70.00    81.64    87.22
eigval :       89.52   102.43   107.18   112.45   127.52   147.58
eigval :      150.32   166.14   171.72   175.24   183.75   185.81
eigval :      190.38   196.11   205.99   216.06   219.41   224.73
eigval :      230.30   238.78   241.82   256.74   258.51   282.67
eigval :      283.80   297.70   300.35   316.39   318.44   319.23
eigval :      326.03   346.08   353.45   357.22   363.62   367.23
eigval :      370.32   374.32   376.78   381.48   384.62   387.80
eigval :      399.18   415.37   421.68   423.03   434.94   438.45
eigval :      442.26   451.91   456.90   458.06   460.06   483.44
eigval :      487.39   502.20   504.38   509.25   527.96   534.47
eigval :      537.05   546.95   571.17   574.18   582.06   583.04
eigval :      588.54   596.29   598.62   600.69   602.86   609.59
eigval :      618.71   627.02   630.75   654.39   655.72   670.66
eigval :      689.68   691.05   693.48   712.45   718.73   721.00
eigval :      723.40   725.09   737.37   763.34   767.26   770.49
eigval :      784.32   784.66   796.56   797.69   809.97   816.68
eigval :      817.45   820.36   821.14   824.07   843.26   844.69
eigval :      847.28   854.98   857.06   862.92   867.67   868.80
eigval :      869.65   874.65   880.84   886.87   900.42   901.89
eigval :      913.55   914.59   915.80   916.67   919.78   921.41
eigval :      922.78   928.08   928.75   941.65   948.10   959.39
eigval :      960.17   961.70   962.39   962.78   963.83   978.38
eigval :     1000.30  1007.04  1018.43  1031.80  1034.27  1034.76
eigval :     1035.44  1035.71  1078.74  1086.62  1097.80  1099.27
eigval :     1125.10  1132.28  1138.03  1140.13  1143.32  1145.24
eigval :     1146.46  1148.52  1158.17  1161.49  1178.63  1181.85
eigval :     1196.47  1199.18  1201.07  1207.20  1218.06  1224.67
eigval :     1224.87  1225.59  1230.97  1231.36  1232.70  1263.23
eigval :     1270.74  1272.29  1275.30  1276.07  1282.93  1284.74
eigval :     1289.82  1294.40  1303.66  1308.95  1309.34  1317.99
eigval :     1318.68  1327.42  1328.74  1334.27  1340.53  1349.37
eigval :     1350.99  1369.31  1382.83  1394.79  1396.06  1397.93
eigval :     1401.73  1403.48  1403.71  1407.45  1410.33  1423.17
eigval :     1426.63  1427.35  1427.72  1431.46  1446.18  1456.24
eigval :     1481.08  1483.27  1485.56  1486.17  1488.39  1489.28
eigval :     1489.79  1490.39  1493.95  1498.10  1498.96  1499.37
eigval :     1502.79  1503.55  1504.01  1511.76  1512.02  1513.80
eigval :     1515.40  1515.67  1528.80  1533.82  1551.67  1567.86
eigval :     1569.13  1572.78  1575.49  1585.36  1597.81  1598.73
eigval :     3022.76  3023.07  3023.15  3023.36  3026.44  3026.69
eigval :     3026.92  3027.45  3030.42  3030.76  3032.60  3032.82
eigval :     3038.10  3038.36  3045.10  3046.73  3048.73  3049.81
eigval :     3072.65  3074.08  3084.65  3084.90  3086.24  3087.09
eigval :     3087.98  3088.91  3090.77  3092.59  3093.19  3096.77
eigval :     3097.73  3098.04  3098.83  3099.33  3099.91  3101.43
eigval :     3116.38  3118.17  3120.64  3120.89  3182.19  3182.63

   temp. (K)  partition function   enthalpy   heat capacity  entropy
                                   cal/mol     cal/K/mol   cal/K/mol   J/K/mol
 298.15  VIB  0.725E+25            30443.232    186.061    190.988
         ROT  0.250E+09              888.752      2.981     41.409
         INT  0.181E+34            31331.985    189.042    232.397
         TR   0.215E+29             1481.254      4.968     45.862
         TOT                       32813.2385   194.0104   278.2588  1164.2350

       T/K    H(0)-H(T)+PV         H(T)/Eh          T*S/Eh         G(T)/Eh
   ------------------------------------------------------------------------
    298.15    0.522912E-01    0.829297E+00    0.132210E+00    0.697087E+00
   ------------------------------------------------------------------------

         :::::::::::::::::::::::::::::::::::::::::::::::::::::
         ::                  THERMODYNAMIC                  ::
         :::::::::::::::::::::::::::::::::::::::::::::::::::::
         :: total free energy        -151.900943651009 Eh   ::
         ::.................................................::
         :: total energy             -152.598030711074 Eh   ::
         :: zero point energy           0.777005589304 Eh   ::
         :: G(RRHO) w/o ZPVE           -0.079918529240 Eh   ::
         :: G(RRHO) contrib.            0.697087060064 Eh   ::
         :::::::::::::::::::::::::::::::::::::::::::::::::::::

           -------------------------------------------------
          | TOTAL ENERGY             -152.598030711074 Eh   |
          | TOTAL ENTHALPY           -151.768733897789 Eh   |
          | TOTAL FREE ENERGY        -151.900943651009 Eh   |
          | GRADIENT NORM               0.000114135834 Eh/α |
          | HOMO-LUMO GAP               0.082419576687 eV   |
           -------------------------------------------------

 * finished run on 2025/07/20 at 02:09:35.027
