   * xtb version 6.7.1 (edcfbbe) compiled by 'albert@albert-system' on 2024-07-22

   ID    Z sym.   atoms
    1    6 C      1-9, 11-14, 16-31, 35-41
    2    7 N      10, 15, 32, 34
    3   16 S      33
    4    1 H      42-71

          program call               : xtb data2507/toluene/BTZ–DMAC/BTZ–DMAC_toluene_S0_finalOpt.xtbopt.xyz --gfn 2 --uhf 2 --gbsa toluene --ohess vtight --parallel 40 --molden --ceasefiles --namespace data2507/toluene/BTZ–DMAC/BTZ–DMAC_toluene_T1_preOpt
      * Solvation model:               GBSA
        Solvent                        toluene
        Solvent mass                       9.2140E+01 g/mol
          :  Hamiltonian                  GFN2-xTB          :
 * total energy  :  -107.3816613 Eh     change       -0.1706056E-08 Eh
 * total energy  :  -107.3857316 Eh     change       -0.4070245E-02 Eh
 * total energy  :  -107.3873027 Eh     change       -0.1571161E-02 Eh
 * total energy  :  -107.3874701 Eh     change       -0.1674298E-03 Eh
 * total energy  :  -107.3875677 Eh     change       -0.9753692E-04 Eh
 * total energy  :  -107.3876029 Eh     change       -0.3525592E-04 Eh
 * total energy  :  -107.3876385 Eh     change       -0.3553905E-04 Eh
 * total energy  :  -107.3876774 Eh     change       -0.3892359E-04 Eh
 * total energy  :  -107.3877237 Eh     change       -0.4629666E-04 Eh
 * total energy  :  -107.3877677 Eh     change       -0.4397052E-04 Eh
 * total energy  :  -107.3878646 Eh     change       -0.1032553E-05 Eh
 * total energy  :  -107.3878656 Eh     change       -0.1010855E-05 Eh
 * total energy  :  -107.3878665 Eh     change       -0.9550571E-06 Eh
 * total energy  :  -107.3878674 Eh     change       -0.8563169E-06 Eh
 * total energy  :  -107.3878681 Eh     change       -0.7217579E-06 Eh
 * total energy  :  -107.3878687 Eh     change       -0.5854942E-06 Eh
 * total energy  :  -107.3878692 Eh     change       -0.4699619E-06 Eh
 * total energy  :  -107.3878695 Eh     change       -0.3836518E-06 Eh
 * total energy  :  -107.3878695 Eh     change       -0.2900364E-08 Eh
   *** GEOMETRY OPTIMIZATION CONVERGED AFTER 44 ITERATIONS ***

 final structure:
================
71
 xtb: 6.7.1 (edcfbbe)
C           -6.40828645240006       -0.01287004425924       -1.31342464781015
C           -5.73652859070313        0.08955049459340        0.07025825145975
C           -6.80478909868827        0.13525315723947        1.18033529966947
C           -4.92407482014461        1.36597421607714        0.11020139982947
C           -5.56917576005299        2.58853371557799       -0.02349645528823
C           -4.87759016188355        3.78534060151949       -0.05212302353214
C           -3.49365750086469        3.77141969195651        0.01925379608792
C           -2.82671687058407        2.57322899873542        0.14369556592395
C           -3.52479120573551        1.35945341940659        0.22428852564891
N           -2.82960660680954        0.17383979723924        0.37853954843768
C           -1.41810337691437        0.17853190766434        0.36474463224489
C           -0.68598541814531        0.77520544120044        1.40946658312360
C            0.68791346756196        0.77508979394495        1.41022763202135
C            1.42099238503827        0.17815257817773        0.36637399871707
N            2.83251724516851        0.17287984871287        0.38139210878478
C            3.48514318479282       -1.04459792786113        0.44970208672944
C            2.75234589158052       -2.20177370635490        0.74765891684067
C            3.36027865826990       -3.43512072198376        0.79680998547067
C            4.72374167132778       -3.53918362870526        0.56764263296589
C            5.46155807488304       -2.39446002403401        0.33157199722131
C            4.87419439919480       -1.13687989041019        0.28337936217236
C            5.73902832385289        0.08583968405408        0.07061755143829
C            6.40841374491350       -0.01966394953029       -1.31399442865697
C            6.80911921705187        0.13275427364941        1.17886985283764
C            4.92762910549596        1.36298287848877        0.10949712529597
C            5.57350294674985        2.58482588895942       -0.02698602780973
C            4.88279761645104        3.78211241439559       -0.05673265592131
C            3.49894852184204        3.76941791929925        0.01656038780216
C            2.83123503478671        2.57196060190839        0.14381277959618
C            3.52846493886211        1.35775879736685        0.22507343924082
C            0.72280026460246       -0.43068570479804       -0.68942285636327
N            1.25139876117510       -0.99559403979615       -1.77250638196228
S            0.00307233723653       -1.50763291917044       -2.74132165411073
N           -1.24629524506275       -0.99499045119125       -1.77415510586487
C           -0.71887692645087       -0.43036789209538       -0.69034693792992
C           -3.48309254352332       -1.04330680405991        0.44512472897579
C           -2.75108590518481       -2.20162631368321        0.74057299196126
C           -3.35995219715176       -3.43459119376206        0.78769869538424
C           -4.72361455467507       -3.53718558070968        0.55907436701535
C           -5.46066866690518       -2.39142178940125        0.32571906070633
C           -4.87233350857632       -1.13421579158214        0.27954298856523
H           -7.03416926745847        0.85414021359063       -1.50401153562483
H           -7.02566640049316       -0.90440649241468       -1.37386689828955
H           -5.64696799975478       -0.06798677281984       -2.08979292774108
H           -6.32422023741752        0.21255128466536        2.15385717730498
H           -7.41367750831924       -0.76329944865481        1.16792473012888
H           -7.46086240572768        0.99029341925059        1.05021399468895
H           -6.64362421067437        2.61288787502832       -0.11595715671006
H           -5.41129507689818        4.71805159968954       -0.15101262193927
H           -2.93235161975871        4.69214198318982       -0.03393490496230
H           -1.74881222076924        2.56646741689341        0.16721048832134
H           -1.22903016526686        1.20083963005937        2.24015814362350
H            1.23011383611026        1.20062882036354        2.24151919784341
H            1.69463075919196       -2.12014430245219        0.94419908282229
H            2.77282195197003       -4.31348848319959        1.01890953883211
H            5.20961024934185       -4.50263026023034        0.59044444529812
H            6.52538436613296       -2.48917651330471        0.17956255596885
H            5.64574004461914       -0.07583982024452       -2.08896175466409
H            7.03447359054023        0.84661386337388       -1.50733451435443
H            7.02516047618241       -0.91169173835218       -1.37371953943691
H            7.41729220257137       -0.76628794195275        1.16715102050924
H            7.46568319121627        0.98700751490632        1.04609188606061
H            6.33019075308995        0.21224422101182        2.15302562248189
H            6.64785144539384        2.60821578277688       -0.12085244297418
H            5.41708733206852        4.71423970938656       -0.15793983817951
H            2.93831572498453        4.69051320039503       -0.03726541481247
H            1.75336032853229        2.56605647121550        0.16896018239222
H           -1.69321885615531       -2.12129573638214        0.93674737607237
H           -2.77303648662651       -4.31382248326930        1.00779677118655
H           -5.21020718172974       -4.50030339280883        0.58026972645950
H           -6.52468438737728       -2.48497042930745        0.17432043911493

          :  Hamiltonian                  GFN2-xTB          :
         :: gradient norm              0.000053600480 Eh/a0 ::
         :: HOMO-LUMO gap              1.298039305349 eV    ::
         :: SCC energy              -109.202701342745 Eh    ::
         :: -> dispersion             -0.105042870349 Eh    ::
         :: -> Gsolv                  -0.047588127805 Eh    ::
         :: repulsion energy           1.814831799678 Eh    ::

    * Orbital Energies and Occupations

         #    Occupation            Energy/Eh            Energy/eV
      -------------------------------------------------------------
         1        2.0000           -0.7132468             -19.4084
       ...           ...                  ...                  ...
        89        2.0000           -0.4153170             -11.3014
        90        2.0000           -0.4151129             -11.2958
        91        2.0000           -0.4099466             -11.1552
        92        2.0000           -0.4099415             -11.1551
        93        2.0000           -0.4040573             -10.9950
        94        2.0000           -0.4037236             -10.9859
        95        2.0000           -0.3899003             -10.6097
        96        2.0000           -0.3858091             -10.4984
        97        2.0000           -0.3788050             -10.3078
        98        2.0000           -0.3781882             -10.2910
        99        1.9721           -0.3603666              -9.8061
       100        1.0279           -0.3536184              -9.6224
       101        1.0000           -0.2857457              -7.7755 (HOMO)
       102                         -0.2380438              -6.4775 (LUMO)
       103                         -0.2380265              -6.4770
       104                         -0.2315008              -6.2995
       105                         -0.2313832              -6.2963
       106                         -0.2294756              -6.2443
       107                         -0.2293508              -6.2410
       108                         -0.2136713              -5.8143
       109                         -0.2066020              -5.6219
       110                         -0.2016984              -5.4885
       111                         -0.1947832              -5.3003
       112                         -0.1933093              -5.2602
       ...                                ...                  ...
       199                          0.7032026              19.1351
      -------------------------------------------------------------
                  HL-Gap            0.0477018 Eh            1.2980 eV

     #   Z          covCN         q      C6AA      α(0)
     1   6 C        3.762    -0.106    22.569     6.772
     2   6 C        3.909     0.023    20.127     6.377
     3   6 C        3.761    -0.109    22.626     6.781
     4   6 C        2.979    -0.004    28.107     8.696
     5   6 C        2.926    -0.035    28.866     8.811
     6   6 C        2.917    -0.035    28.873     8.811
     7   6 C        2.918    -0.031    28.766     8.795
     8   6 C        2.923    -0.049    29.223     8.865
     9   6 C        2.928     0.063    26.583     8.455
    10   7 N        2.753    -0.026    21.742     6.925
    11   6 C        2.920     0.016    27.645     8.622
    12   6 C        2.913    -0.064    29.604     8.922
    13   6 C        2.913    -0.064    29.605     8.922
    14   6 C        2.920     0.016    27.645     8.622
    15   7 N        2.753    -0.026    21.743     6.926
    16   6 C        2.932     0.069    26.460     8.436
    17   6 C        2.924    -0.041    29.007     8.832
    18   6 C        2.918    -0.030    28.749     8.793
    19   6 C        2.918    -0.034    28.854     8.809
    20   6 C        2.926    -0.035    28.870     8.812
    21   6 C        2.980    -0.003    28.093     8.694
    22   6 C        3.909     0.023    20.127     6.377
    23   6 C        3.762    -0.106    22.568     6.772
    24   6 C        3.761    -0.109    22.626     6.781
    25   6 C        2.979    -0.004    28.107     8.696
    26   6 C        2.926    -0.035    28.866     8.811
    27   6 C        2.917    -0.035    28.873     8.811
    28   6 C        2.918    -0.031    28.766     8.795
    29   6 C        2.923    -0.049    29.223     8.865
    30   6 C        2.928     0.063    26.583     8.455
    31   6 C        3.285     0.090    24.581     7.968
    32   7 N        1.846    -0.331    29.439     8.041
    33  16 S        2.574     0.086   137.584    19.742
    34   7 N        1.846    -0.331    29.439     8.041
    35   6 C        3.285     0.090    24.582     7.968
    36   6 C        2.932     0.069    26.461     8.436
    37   6 C        2.924    -0.040    29.006     8.832
    38   6 C        2.918    -0.030    28.749     8.793
    39   6 C        2.918    -0.034    28.853     8.808
    40   6 C        2.926    -0.035    28.870     8.812
    41   6 C        2.980    -0.003    28.094     8.694
    42   1 H        0.925     0.051     2.310     2.377
    43   1 H        0.925     0.051     2.308     2.376
    44   1 H        0.925     0.035     2.523     2.484
    45   1 H        0.925     0.036     2.503     2.474
    46   1 H        0.925     0.051     2.302     2.373
    47   1 H        0.925     0.052     2.293     2.368
    48   1 H        0.926     0.049     2.332     2.388
    49   1 H        0.926     0.043     2.412     2.428
    50   1 H        0.926     0.039     2.456     2.451
    51   1 H        0.926     0.033     2.542     2.493
    52   1 H        0.926     0.034     2.534     2.489
    53   1 H        0.926     0.034     2.534     2.489
    54   1 H        0.926     0.024     2.666     2.554
    55   1 H        0.926     0.037     2.489     2.467
    56   1 H        0.926     0.043     2.412     2.429
    57   1 H        0.926     0.049     2.329     2.387
    58   1 H        0.925     0.035     2.523     2.484
    59   1 H        0.925     0.051     2.311     2.377
    60   1 H        0.925     0.051     2.308     2.376
    61   1 H        0.925     0.051     2.302     2.373
    62   1 H        0.925     0.052     2.293     2.368
    63   1 H        0.925     0.036     2.503     2.474
    64   1 H        0.926     0.049     2.332     2.388
    65   1 H        0.926     0.043     2.412     2.429
    66   1 H        0.926     0.039     2.456     2.451
    67   1 H        0.926     0.033     2.542     2.493
    68   1 H        0.926     0.024     2.666     2.553
    69   1 H        0.926     0.037     2.489     2.467
    70   1 H        0.926     0.043     2.412     2.429
    71   1 H        0.926     0.049     2.329     2.387

molecular dipole:
                 x           y           z       tot (Debye)
 q only:       -0.002       0.896       1.566
   full:       -0.002       1.045       1.874       5.455

 projected vibrational frequencies (cm⁻¹)
eigval :       -0.00    -0.00    -0.00     0.00     0.00     0.00
eigval :       14.82    14.93    19.22    20.92    38.21    51.48
eigval :       58.13    62.28    97.34    99.02   102.37   103.48
eigval :      112.91   135.97   136.62   154.70   167.11   167.72
eigval :      175.07   201.12   201.30   211.36   214.71   232.40
eigval :      233.00   240.11   261.34   300.24   303.84   306.86
eigval :      324.78   329.84   331.62   344.51   349.08   363.04
eigval :      372.38   380.82   382.14   401.43   407.39   415.26
eigval :      416.86   451.62   455.63   464.13   493.43   506.29
eigval :      506.54   520.20   520.28   537.18   542.00   543.97
eigval :      544.47   554.29   559.70   580.34   584.19   586.91
eigval :      619.44   620.38   632.06   653.03   675.41   688.38
eigval :      688.90   693.91   702.75   702.75   713.39   734.57
eigval :      766.12   771.45   772.10   773.75   774.93   790.53
eigval :      808.26   824.98   825.47   848.95   858.66   858.78
eigval :      867.03   868.95   870.94   876.45   908.53   909.45
eigval :      912.68   912.90   913.73   913.93   920.49   920.76
eigval :      921.38   922.00   936.81   937.04   957.98   958.04
eigval :     1012.21  1012.39  1029.04  1062.79  1074.40  1074.63
eigval :     1094.81  1106.41  1107.18  1113.29  1113.40  1115.54
eigval :     1136.87  1137.44  1149.88  1149.92  1168.31  1170.69
eigval :     1180.79  1181.99  1182.46  1183.56  1195.33  1200.96
eigval :     1235.11  1236.41  1240.47  1242.21  1254.29  1254.47
eigval :     1264.08  1283.61  1293.11  1293.28  1296.92  1304.79
eigval :     1307.76  1320.07  1327.29  1327.66  1335.24  1335.61
eigval :     1339.93  1396.47  1396.53  1415.10  1415.29  1418.40
eigval :     1418.72  1426.30  1427.68  1428.84  1439.99  1446.75
eigval :     1456.57  1456.99  1475.16  1476.78  1481.25  1481.39
eigval :     1483.78  1483.96  1492.42  1492.48  1497.86  1497.95
eigval :     1519.62  1555.58  1555.74  1567.67  1570.59  1579.20
eigval :     1579.41  1589.16  1590.40  3025.25  3025.31  3029.60
eigval :     3029.67  3045.65  3045.67  3051.68  3051.71  3051.96
eigval :     3052.00  3061.45  3061.55  3077.28  3079.73  3079.89
eigval :     3082.19  3082.28  3087.27  3087.33  3089.34  3090.73
eigval :     3090.74  3095.41  3095.53  3100.64  3100.66  3100.88
eigval :     3101.52  3107.24  3107.50

   temp. (K)  partition function   enthalpy   heat capacity  entropy
                                   cal/mol     cal/K/mol   cal/K/mol   J/K/mol
 298.15  VIB  0.470E+15            20115.051    129.245    122.842
         ROT  0.444E+08              888.752      2.981     37.976
         INT  0.209E+23            21003.804    132.226    160.817
         TR   0.125E+29             1481.254      4.968     44.783
         TOT                       22485.0575   137.1938   205.6004   860.2323

       T/K    H(0)-H(T)+PV         H(T)/Eh          T*S/Eh         G(T)/Eh
   ------------------------------------------------------------------------
    298.15    0.358322E-01    0.590760E+00    0.976874E-01    0.493073E+00
   ------------------------------------------------------------------------

         :::::::::::::::::::::::::::::::::::::::::::::::::::::
         ::                  THERMODYNAMIC                  ::
         :::::::::::::::::::::::::::::::::::::::::::::::::::::
         :: total free energy        -106.894796557624 Eh   ::
         ::.................................................::
         :: total energy             -107.387869540221 Eh   ::
         :: zero point energy           0.554928168897 Eh   ::
         :: G(RRHO) w/o ZPVE           -0.061855186300 Eh   ::
         :: G(RRHO) contrib.            0.493072982597 Eh   ::
         :::::::::::::::::::::::::::::::::::::::::::::::::::::

           -------------------------------------------------
          | TOTAL ENERGY             -107.387869540221 Eh   |
          | TOTAL ENTHALPY           -106.797109151383 Eh   |
          | TOTAL FREE ENERGY        -106.894796557624 Eh   |
          | GRADIENT NORM               0.000053318737 Eh/α |
          | HOMO-LUMO GAP               1.298033347684 eV   |
           -------------------------------------------------

 * finished run on 2025/09/04 at 05:25:43.888
