   * xtb version 6.7.1 (edcfbbe) compiled by 'albert@albert-system' on 2024-07-22

   ID    Z sym.   atoms
    1    6 C      1-9, 11-14, 16-31, 35-41
    2    7 N      10, 15, 32, 34
    3   16 S      33
    4    1 H      42-71

          program call               : xtb data2507/toluene/BTZ–DMAC/BTZ–DMAC_toluene_S0_crest.xyz --gfn 2 --gbsa toluene --ohess vtight --parallel 40 --molden --ceasefiles --namespace data2507/toluene/BTZ–DMAC/BTZ–DMAC_toluene_S0_finalOpt
      * Solvation model:               GBSA
        Solvent                        toluene
        Solvent mass                       9.2140E+01 g/mol
          :  Hamiltonian                  GFN2-xTB          :
 * total energy  :  -107.4421268 Eh     change       -0.5083308E-08 Eh
 * total energy  :  -107.4421818 Eh     change       -0.5508537E-04 Eh
 * total energy  :  -107.4422053 Eh     change       -0.2347002E-04 Eh
 * total energy  :  -107.4422153 Eh     change       -0.9971018E-05 Eh
 * total energy  :  -107.4422214 Eh     change       -0.6138149E-05 Eh
 * total energy  :  -107.4422250 Eh     change       -0.3583612E-05 Eh
 * total energy  :  -107.4422287 Eh     change       -0.3646959E-05 Eh
 * total energy  :  -107.4422320 Eh     change       -0.3376861E-05 Eh
 * total energy  :  -107.4422346 Eh     change       -0.2542584E-05 Eh
 * total energy  :  -107.4422364 Eh     change       -0.1776504E-05 Eh
 * total energy  :  -107.4422376 Eh     change       -0.1230926E-05 Eh
 * total energy  :  -107.4422383 Eh     change       -0.7356451E-06 Eh
 * total energy  :  -107.4422387 Eh     change       -0.4068161E-06 Eh
 * total energy  :  -107.4422390 Eh     change       -0.2855445E-06 Eh
 * total energy  :  -107.4422392 Eh     change       -0.2144772E-06 Eh
 * total energy  :  -107.4422394 Eh     change       -0.1683120E-06 Eh
 * total energy  :  -107.4422396 Eh     change       -0.1764380E-06 Eh
 * total energy  :  -107.4422397 Eh     change       -0.1695080E-06 Eh
 * total energy  :  -107.4422398 Eh     change       -0.9730540E-07 Eh
   *** GEOMETRY OPTIMIZATION CONVERGED AFTER 19 ITERATIONS ***

 final structure:
================
71
 xtb: 6.7.1 (edcfbbe)
C           -6.37621771825794       -0.05621784386155       -1.36416420035284
C           -5.73273698692150        0.07842163541091        0.02874560857655
C           -6.82092215652503        0.14848086867763        1.11677415269461
C           -4.92173680427239        1.36017967119235        0.06233454073418
C           -5.56540500322999        2.57457084768070       -0.13835938157642
C           -4.88285109637622        3.77654558965128       -0.15785139572264
C           -3.51021862892292        3.77433236775658        0.01083776195055
C           -2.84631066957837        2.58224499963368        0.21309681411446
C           -3.53647865125984        1.36776905561789        0.25860624223360
N           -2.84447443839365        0.18177453969940        0.48055806738903
C           -1.43290691937520        0.18381413045056        0.48689520478425
C           -0.70063364192254        0.67386970106888        1.54260048945182
C            0.70438497636504        0.67303555701707        1.54194625896640
C            1.43525080013247        0.18247462179981        0.48538239366310
N            2.84657804494412        0.17930151042614        0.47773133301918
C            3.49486101797941       -1.05017616139132        0.49283537260000
C            2.76571461711225       -2.20608731054331        0.78522258322251
C            3.37061752291993       -3.44519771851412        0.80278510886609
C            4.72555581448677       -3.55071816963615        0.54479538263743
C            5.45699343571309       -2.40411531682841        0.29643638317971
C            4.87175145677740       -1.14483319236684        0.27390963064954
C            5.73550463993028        0.07700056249500        0.02925075464361
C            6.37992983116099       -0.04669404825906       -1.36423224144570
C            6.82284178321026        0.13686376994784        1.11873139268784
C            4.92567256640036        1.35917608540114        0.07259620126289
C            5.57102483521037        2.57453101305570       -0.11663778841121
C            4.88970914103333        3.77728437232925       -0.12819596997707
C            3.51653294965150        3.77489703946995        0.03604749952895
C            2.85103282929343        2.58187497457244        0.22720311980263
C            3.53998424658151        1.36645512223848        0.26595931591174
C            0.71958805043166       -0.32458190523575       -0.62474592039990
N            1.21706012250753       -0.81394993411975       -1.76044934140670
S           -0.00140732993472       -1.23027544541048       -2.72293209580360
N           -1.21832109159030       -0.81324231547883       -1.75881483674516
C           -0.71898353891561       -0.32407582826125       -0.62382968183001
C           -3.49347146412476       -1.04708985107701        0.50306045841500
C           -2.76499732181204       -2.20152675591478        0.80282708150893
C           -3.37087163759066       -3.44002225407683        0.82912146770774
C           -4.72596257678156       -3.54623628010820        0.57224000643625
C           -5.45648281353527       -2.40088554610057        0.31542165766570
C           -4.87030413415624       -1.14225610175893        0.28395538187125
H           -7.00497954460686        0.80158816897442       -1.58578922846827
H           -6.98774494171881       -0.95232791166267       -1.42141476198990
H           -5.59937681448053       -0.12017406287902       -2.12439059462866
H           -6.35832335936245        0.24908054266832        2.09717778569589
H           -7.42917398741844       -0.75133061478829        1.11537073808349
H           -7.47535657591829        1.00039841708622        0.95662190138064
H           -6.63376892426124        2.58805409247800       -0.29037063040639
H           -5.41598769627238        4.70215106683718       -0.31350180860364
H           -2.95091741394495        4.69798455247833       -0.01716196449100
H           -1.77353736544455        2.59258935547621        0.32941720848130
H           -1.22226277358080        1.06516858770877        2.40341450291980
H            1.22718012375383        1.06347424305920        2.40245345284361
H            1.71141587067564       -2.13014079562884        1.00679188197801
H            2.78278915241969       -4.32403459961193        1.02434030179290
H            5.21146250952294       -4.51471183495753        0.54915309093734
H            6.51647212716608       -2.49912926439774        0.11403874180258
H            5.60365945461720       -0.10269796061585       -2.12566847219265
H            7.01036117108973        0.81193017317233       -1.57783640210109
H            6.98990676399937       -0.94336224296076       -1.42873692352264
H            7.43042717411201       -0.76334774419655        1.11006736034705
H            7.47808367895500        0.98960397595861        0.96654305263871
H            6.35943055994630        0.22927884449810        2.09955856815881
H            6.63977673198832        2.58819234803280       -0.26584402802279
H            5.42413318961057        4.70362755450595       -0.27474537698030
H            2.95803720500646        4.69917428074971        0.01324805300466
H            1.77789147315146        2.59242155103677        0.33981368288233
H           -1.71050466961015       -2.12472047333065        1.02325109444860
H           -2.78366055843209       -4.31779874583569        1.05646560573378
H           -5.21265670024025       -4.50977896284974        0.58354081543657
H           -6.51598630178822       -2.49641227225502        0.13341907553669

          :  Hamiltonian                  GFN2-xTB          :
         :: gradient norm              0.000089940883 Eh/a0 ::
         :: HOMO-LUMO gap              0.896254333488 eV    ::
         :: SCC energy              -109.270159568857 Eh    ::
         :: -> dispersion             -0.104941552543 Eh    ::
         :: -> Gsolv                  -0.041890376859 Eh    ::
         :: repulsion energy           1.827919723058 Eh    ::

    * Orbital Energies and Occupations

         #    Occupation            Energy/Eh            Energy/eV
      -------------------------------------------------------------
         1        2.0000           -0.7725428             -21.0220
       ...           ...                  ...                  ...
        88        2.0000           -0.4165341             -11.3345
        89        2.0000           -0.4128797             -11.2350
        90        2.0000           -0.4107199             -11.1763
        91        2.0000           -0.4085667             -11.1177
        92        2.0000           -0.4065443             -11.0626
        93        2.0000           -0.4064503             -11.0601
        94        2.0000           -0.4046248             -11.0104
        95        2.0000           -0.4009650             -10.9108
        96        2.0000           -0.4008590             -10.9079
        97        2.0000           -0.3955582             -10.7637
        98        2.0000           -0.3954099             -10.7597
        99        2.0000           -0.3527469              -9.5987
       100        2.0000           -0.3503185              -9.5327 (HOMO)
       101                         -0.3173818              -8.6364 (LUMO)
       102                         -0.2362842              -6.4296
       103                         -0.2358272              -6.4172
       104                         -0.2274519              -6.1893
       105                         -0.2271986              -6.1824
       106                         -0.2255576              -6.1377
       107                         -0.2225126              -6.0549
       108                         -0.2222849              -6.0487
       109                         -0.2215752              -6.0294
       110                         -0.2212384              -6.0202
       111                         -0.1949506              -5.3049
       ...                                ...                  ...
       199                          0.7130605              19.4034
      -------------------------------------------------------------
                  HL-Gap            0.0329367 Eh            0.8963 eV

     #   Z          covCN         q      C6AA      α(0)
     1   6 C        3.761    -0.105    22.553     6.770
     2   6 C        3.909     0.021    20.165     6.383
     3   6 C        3.761    -0.106    22.569     6.772
     4   6 C        2.979    -0.012    28.300     8.726
     5   6 C        2.928    -0.037    28.925     8.820
     6   6 C        2.917    -0.045    29.121     8.849
     7   6 C        2.919    -0.035    28.867     8.811
     8   6 C        2.924    -0.060    29.491     8.906
     9   6 C        2.925     0.060    26.660     8.468
    10   7 N        2.752    -0.070    22.598     7.060
    11   6 C        2.916     0.056    26.742     8.480
    12   6 C        2.920    -0.050    29.235     8.867
    13   6 C        2.920    -0.050    29.237     8.867
    14   6 C        2.916     0.056    26.742     8.480
    15   7 N        2.752    -0.070    22.592     7.059
    16   6 C        2.931     0.063    26.583     8.456
    17   6 C        2.925    -0.055    29.356     8.885
    18   6 C        2.919    -0.035    28.871     8.811
    19   6 C        2.917    -0.044    29.104     8.847
    20   6 C        2.928    -0.037    28.923     8.820
    21   6 C        2.979    -0.011    28.286     8.724
    22   6 C        3.909     0.021    20.165     6.383
    23   6 C        3.761    -0.105    22.553     6.770
    24   6 C        3.761    -0.106    22.570     6.773
    25   6 C        2.979    -0.012    28.300     8.726
    26   6 C        2.928    -0.037    28.924     8.820
    27   6 C        2.917    -0.045    29.120     8.849
    28   6 C        2.919    -0.035    28.866     8.811
    29   6 C        2.924    -0.060    29.490     8.906
    30   6 C        2.925     0.060    26.662     8.468
    31   6 C        3.348     0.075    23.757     7.685
    32   7 N        1.853    -0.278    28.057     7.851
    33  16 S        2.678     0.362   127.154    18.979
    34   7 N        1.853    -0.278    28.058     7.851
    35   6 C        3.348     0.075    23.755     7.685
    36   6 C        2.931     0.063    26.583     8.456
    37   6 C        2.925    -0.055    29.359     8.886
    38   6 C        2.919    -0.035    28.871     8.811
    39   6 C        2.917    -0.045    29.105     8.847
    40   6 C        2.928    -0.037    28.923     8.820
    41   6 C        2.979    -0.011    28.287     8.724
    42   1 H        0.925     0.044     2.395     2.420
    43   1 H        0.925     0.045     2.389     2.417
    44   1 H        0.925     0.032     2.560     2.502
    45   1 H        0.925     0.031     2.570     2.507
    46   1 H        0.925     0.045     2.389     2.417
    47   1 H        0.925     0.045     2.386     2.416
    48   1 H        0.926     0.038     2.477     2.461
    49   1 H        0.926     0.030     2.579     2.512
    50   1 H        0.926     0.029     2.601     2.522
    51   1 H        0.926     0.017     2.775     2.605
    52   1 H        0.926     0.059     2.213     2.326
    53   1 H        0.926     0.059     2.213     2.326
    54   1 H        0.926     0.012     2.865     2.647
    55   1 H        0.926     0.028     2.614     2.528
    56   1 H        0.926     0.031     2.570     2.507
    57   1 H        0.926     0.038     2.471     2.458
    58   1 H        0.925     0.032     2.560     2.502
    59   1 H        0.925     0.044     2.395     2.420
    60   1 H        0.925     0.045     2.389     2.417
    61   1 H        0.925     0.045     2.389     2.417
    62   1 H        0.925     0.045     2.386     2.415
    63   1 H        0.925     0.031     2.570     2.507
    64   1 H        0.926     0.038     2.476     2.460
    65   1 H        0.926     0.031     2.579     2.511
    66   1 H        0.926     0.029     2.600     2.521
    67   1 H        0.926     0.017     2.773     2.604
    68   1 H        0.926     0.012     2.866     2.647
    69   1 H        0.926     0.028     2.615     2.529
    70   1 H        0.926     0.031     2.571     2.508
    71   1 H        0.926     0.038     2.472     2.459

molecular dipole:
                 x           y           z       tot (Debye)
 q only:        0.010      -0.020      -0.108
   full:        0.010       0.094       0.122       0.392

 projected vibrational frequencies (cm⁻¹)
eigval :       -0.00    -0.00    -0.00    -0.00    -0.00     0.00
eigval :       11.94    14.28    16.31    19.39    28.82    46.56
eigval :       51.92    62.46    93.87    95.03   104.35   105.26
eigval :      113.89   127.37   131.07   157.37   166.39   170.37
eigval :      182.45   192.07   194.18   216.07   218.77   229.77
eigval :      230.96   236.81   262.30   289.33   305.15   306.42
eigval :      323.03   331.39   331.53   344.97   347.44   356.02
eigval :      374.68   379.32   394.54   409.76   411.48   417.14
eigval :      452.15   453.31   470.67   479.74   489.02   514.43
eigval :      515.00   521.92   523.19   541.18   547.11   547.56
eigval :      547.82   558.87   559.57   585.40   587.20   594.62
eigval :      624.22   633.53   654.34   655.53   681.86   683.62
eigval :      684.69   695.66   695.93   718.59   731.65   746.28
eigval :      776.57   777.47   777.97   779.14   823.41   824.11
eigval :      842.47   845.58   851.30   865.13   866.67   866.97
eigval :      871.30   871.86   896.91   909.29   912.18   912.24
eigval :      913.19   913.28   913.44   915.81   921.82   922.02
eigval :      922.34   922.82   937.13   937.61   955.60   956.38
eigval :     1012.77  1013.19  1039.47  1062.18  1075.97  1076.16
eigval :     1102.63  1106.98  1113.14  1113.39  1118.91  1119.26
eigval :     1139.52  1139.79  1158.57  1158.71  1168.43  1175.76
eigval :     1184.81  1184.98  1186.26  1187.35  1195.09  1207.51
eigval :     1240.38  1241.41  1247.54  1249.12  1264.57  1267.31
eigval :     1276.55  1283.33  1293.41  1293.50  1303.35  1321.94
eigval :     1322.11  1324.48  1330.82  1331.42  1332.50  1333.46
eigval :     1345.86  1376.71  1398.08  1398.25  1416.78  1416.91
eigval :     1434.80  1435.07  1437.34  1437.59  1474.93  1475.82
eigval :     1484.64  1484.88  1486.14  1486.48  1488.52  1493.29
eigval :     1493.46  1495.48  1495.53  1501.22  1501.63  1531.80
eigval :     1562.27  1574.51  1574.80  1589.65  1589.84  1590.65
eigval :     1590.94  1599.76  1600.67  3021.99  3022.21  3025.35
eigval :     3025.45  3040.26  3040.58  3043.82  3043.95  3048.34
eigval :     3048.62  3054.15  3054.30  3070.70  3071.08  3074.02
eigval :     3074.13  3078.76  3078.92  3082.75  3082.87  3084.96
eigval :     3085.05  3090.27  3092.34  3092.51  3095.21  3095.29
eigval :     3098.70  3099.03  3100.10

   temp. (K)  partition function   enthalpy   heat capacity  entropy
                                   cal/mol     cal/K/mol   cal/K/mol   J/K/mol
 298.15  VIB  0.118E+16            20030.202    127.736    122.986
         ROT  0.443E+08              888.752      2.981     37.969
         INT  0.523E+23            20918.954    130.717    160.955
         TR   0.125E+29             1481.254      4.968     44.783
         TOT                       22400.2081   135.6853   205.7376   860.8061

       T/K    H(0)-H(T)+PV         H(T)/Eh          T*S/Eh         G(T)/Eh
   ------------------------------------------------------------------------
    298.15    0.356970E-01    0.592656E+00    0.977526E-01    0.494904E+00
   ------------------------------------------------------------------------

         :::::::::::::::::::::::::::::::::::::::::::::::::::::
         ::                  THERMODYNAMIC                  ::
         :::::::::::::::::::::::::::::::::::::::::::::::::::::
         :: total free energy        -106.947336060497 Eh   ::
         ::.................................................::
         :: total energy             -107.442239845414 Eh   ::
         :: zero point energy           0.556959353902 Eh   ::
         :: G(RRHO) w/o ZPVE           -0.062055568985 Eh   ::
         :: G(RRHO) contrib.            0.494903784918 Eh   ::
         :::::::::::::::::::::::::::::::::::::::::::::::::::::

           -------------------------------------------------
          | TOTAL ENERGY             -107.442239845414 Eh   |
          | TOTAL ENTHALPY           -106.849583487680 Eh   |
          | TOTAL FREE ENERGY        -106.947336060497 Eh   |
          | GRADIENT NORM               0.000090035800 Eh/α |
          | HOMO-LUMO GAP               0.896253832362 eV   |
           -------------------------------------------------

 * finished run on 2025/09/04 at 05:25:37.478
