   * xtb version 6.7.1 (edcfbbe) compiled by 'albert@albert-system' on 2024-07-22

   ID    Z sym.   atoms
    1    6 C      1-9, 11-14, 16-31, 35-41
    2    7 N      10, 15, 32, 34
    3   16 S      33
    4    1 H      42-71

          program call               : xtb data2507/toluene/BTZ–DMAC/BTZ–DMAC.xyz --gfn 2 --gbsa toluene --ohess vtight --parallel 40 --molden --ceasefiles --namespace data2507/toluene/BTZ–DMAC/BTZ–DMAC_toluene_S0_preOpt
      * Solvation model:               GBSA
        Solvent                        toluene
        Solvent mass                       9.2140E+01 g/mol
          :  Hamiltonian                  GFN2-xTB          :
 * total energy  :  -107.4064621 Eh     change       -0.1084317E-08 Eh
 * total energy  :  -107.4280419 Eh     change       -0.2157981E-01 Eh
 * total energy  :  -107.4361223 Eh     change       -0.8080387E-02 Eh
 * total energy  :  -107.4382723 Eh     change       -0.2150012E-02 Eh
 * total energy  :  -107.4397024 Eh     change       -0.1430090E-02 Eh
 * total energy  :  -107.4403825 Eh     change       -0.6801518E-03 Eh
 * total energy  :  -107.4407253 Eh     change       -0.3427128E-03 Eh
 * total energy  :  -107.4409072 Eh     change       -0.1819390E-03 Eh
 * total energy  :  -107.4410085 Eh     change       -0.1013380E-03 Eh
 * total energy  :  -107.4410786 Eh     change       -0.7011378E-04 Eh
 * total energy  :  -107.4421671 Eh     change       -0.3743260E-06 Eh
 * total energy  :  -107.4421674 Eh     change       -0.3463285E-06 Eh
 * total energy  :  -107.4421678 Eh     change       -0.3464821E-06 Eh
 * total energy  :  -107.4421681 Eh     change       -0.3653318E-06 Eh
 * total energy  :  -107.4421685 Eh     change       -0.3866589E-06 Eh
 * total energy  :  -107.4421689 Eh     change       -0.3780716E-06 Eh
 * total energy  :  -107.4421693 Eh     change       -0.3554112E-06 Eh
 * total energy  :  -107.4421696 Eh     change       -0.3177058E-06 Eh
 * total energy  :  -107.4421696 Eh     change       -0.2025743E-08 Eh
   *** GEOMETRY OPTIMIZATION CONVERGED AFTER 122 ITERATIONS ***

 final structure:
================
71
 xtb: 6.7.1 (edcfbbe)
C           -6.50479936280338        0.06298711097281       -1.40524199128055
C           -5.75641678447516        0.00754109322543       -0.06029334832755
C           -6.75851327104319       -0.05823673858962        1.10784367855558
C           -4.92304198819425        1.26753157200872        0.07823359937294
C           -5.55555764946642        2.50403873702212        0.06802174372592
C           -4.85350704792157        3.69213933028515        0.15095517207085
C           -3.47325211557550        3.65480890722487        0.23023663550046
C           -2.82024929600548        2.43988676808116        0.24589925669422
C           -3.52871643646003        1.23635634843843        0.18908220942043
N           -2.84606714533605        0.02572830834821        0.22528760665493
C           -1.43407293614853        0.02018307347847        0.22500195175781
C           -0.70220273209107        0.35147890920088        1.34106986325257
C            0.70240665025684        0.35166437551667        1.34086956700426
C            1.43406001409876        0.02047502764342        0.22462852910903
N            2.84605831173941        0.02602467109715        0.22467618992398
C            3.50997441073677       -1.18981058846284        0.11777849163124
C            2.78455317920468       -2.38060972135359        0.21255350575753
C            3.40900541205144       -3.60602074061731        0.11025073947174
C            4.77859477900581       -3.66488951265675       -0.07434332221017
C            5.50350044082743       -2.48887342733733       -0.13023980607313
C            4.89893196893916       -1.24268190700168       -0.03002064438985
C            5.75648110949402        0.00766344567958       -0.06005850613909
C            6.50543455820534        0.06268163668468       -1.40470949222594
C            6.75808547876033       -0.05782020109841        1.10851558327832
C            4.92309880589019        1.26772896519122        0.07774558910713
C            5.55563244827376        2.50422222714842        0.06727175955643
C            4.85356724124770        3.69235992244488        0.14957274818546
C            3.47328950339548        3.65507419929398        0.22850083818680
C            2.82026724176771        2.44016569397344        0.24442930797042
C            3.52874211278127        1.23661187204884        0.18822080088905
C            0.71955448804166       -0.31919915500765       -0.94791733869854
N            1.21719514791379       -0.63517896517347       -2.14354709290666
S           -0.00034070817641       -0.90459918701401       -3.15753424352579
N           -1.21767934295297       -0.63541814788335       -2.14323942084472
C           -0.71979828206048       -0.31936043806254       -0.94772056041221
C           -3.51003093475769       -1.19005449332128        0.11806811221861
C           -2.78469069083045       -2.38088486792826        0.21304031806641
C           -3.40916380816585       -3.60626107825859        0.11043829950922
C           -4.77867825110996       -3.66505132433271       -0.07474571258599
C           -5.50351390256131       -2.48900197745475       -0.13082435979738
C           -4.89893455320616       -1.24284610452649       -0.03021858486632
H           -7.14863166013883        0.93654935387856       -1.45545266073233
H           -7.11948497159521       -0.82214875819649       -1.54214558263343
H           -5.78870813219129        0.11510592545293       -2.22368965950908
H           -6.22168644064885       -0.10556101284535        2.05391437733222
H           -7.38990919209278       -0.93838867758991        1.02750937143459
H           -7.39836203972856        0.81945528755539        1.11954374198202
H           -6.63096232086224        2.54704903082378       -0.01163916961207
H           -5.37828051183116        4.63542760218435        0.14296949711133
H           -2.89988267748419        4.56903430824538        0.27699968794702
H           -1.74225922230770        2.42382957748169        0.29531829697658
H           -1.22493060888093        0.61636101290760        2.24812020213458
H            1.22532141138754        0.61667637457464        2.24776807598782
H            1.71772853919891       -2.34412953522384        0.37612073790074
H            2.82422812492695       -4.51156674707204        0.18044263790459
H            5.28017713363312       -4.61694651408347       -0.16027946071669
H            6.57377885878035       -2.54969450232508       -0.25517817635828
H            5.78968007983878        0.11452942537154       -2.22346809576270
H            7.14928575646058        0.93622797969327       -1.45493717273359
H            7.12018135273527       -0.82249477812972       -1.54107189899744
H            6.22087483963386       -0.10493921481357        2.05437890653757
H            7.38953856414315       -0.93797451293703        1.02864654734465
H            7.39790166168294        0.81989543368872        1.12027396510357
H            6.63106152752894        2.54719708909586       -0.01207757743088
H            5.37835342955641        4.63563922335382        0.14138156134852
H            2.89992881484361        4.56932944677017        0.27477033431837
H            1.74226147771511        2.42410800831702        0.29357067633178
H           -1.71792867661170       -2.34443225501089        0.37703526208045
H           -2.82447335221239       -4.51184483578059        0.18084970857767
H           -5.28026694032106       -4.61707924408099       -0.16097404664525
H           -6.57373988844737       -2.54976811023673       -0.25623775982055

          :  Hamiltonian                  GFN2-xTB          :
         :: gradient norm              0.000045565673 Eh/a0 ::
         :: HOMO-LUMO gap              0.882460914836 eV    ::
         :: SCC energy              -109.270118343563 Eh    ::
         :: -> dispersion             -0.104810373227 Eh    ::
         :: -> Gsolv                  -0.041867981282 Eh    ::
         :: repulsion energy           1.827948756313 Eh    ::

    * Orbital Energies and Occupations

         #    Occupation            Energy/Eh            Energy/eV
      -------------------------------------------------------------
         1        2.0000           -0.7731546             -21.0386
       ...           ...                  ...                  ...
        88        2.0000           -0.4166865             -11.3386
        89        2.0000           -0.4129246             -11.2363
        90        2.0000           -0.4107584             -11.1773
        91        2.0000           -0.4086639             -11.1203
        92        2.0000           -0.4065443             -11.0626
        93        2.0000           -0.4065161             -11.0619
        94        2.0000           -0.4050468             -11.0219
        95        2.0000           -0.4009891             -10.9115
        96        2.0000           -0.4009070             -10.9092
        97        2.0000           -0.3955861             -10.7644
        98        2.0000           -0.3954531             -10.7608
        99        2.0000           -0.3524861              -9.5916
       100        2.0000           -0.3503764              -9.5342 (HOMO)
       101                         -0.3179466              -8.6518 (LUMO)
       102                         -0.2368458              -6.4449
       103                         -0.2361482              -6.4259
       104                         -0.2274938              -6.1904
       105                         -0.2273697              -6.1870
       106                         -0.2259247              -6.1477
       107                         -0.2225227              -6.0552
       108                         -0.2223444              -6.0503
       109                         -0.2215931              -6.0299
       110                         -0.2212877              -6.0215
       111                         -0.1945946              -5.2952
       ...                                ...                  ...
       199                          0.7133231              19.4105
      -------------------------------------------------------------
                  HL-Gap            0.0324298 Eh            0.8825 eV

     #   Z          covCN         q      C6AA      α(0)
     1   6 C        3.761    -0.105    22.557     6.770
     2   6 C        3.909     0.021    20.166     6.383
     3   6 C        3.761    -0.106    22.565     6.772
     4   6 C        2.979    -0.012    28.304     8.727
     5   6 C        2.928    -0.037    28.924     8.820
     6   6 C        2.917    -0.045    29.122     8.849
     7   6 C        2.919    -0.035    28.866     8.810
     8   6 C        2.924    -0.060    29.480     8.904
     9   6 C        2.926     0.060    26.662     8.468
    10   7 N        2.752    -0.069    22.585     7.058
    11   6 C        2.915     0.057    26.730     8.478
    12   6 C        2.920    -0.049    29.219     8.864
    13   6 C        2.920    -0.049    29.219     8.864
    14   6 C        2.915     0.057    26.730     8.478
    15   7 N        2.752    -0.069    22.585     7.058
    16   6 C        2.930     0.063    26.592     8.457
    17   6 C        2.925    -0.055    29.365     8.887
    18   6 C        2.919    -0.035    28.870     8.811
    19   6 C        2.917    -0.045    29.110     8.848
    20   6 C        2.928    -0.037    28.923     8.820
    21   6 C        2.979    -0.011    28.295     8.725
    22   6 C        3.909     0.021    20.166     6.383
    23   6 C        3.761    -0.105    22.557     6.770
    24   6 C        3.761    -0.106    22.565     6.772
    25   6 C        2.979    -0.012    28.304     8.727
    26   6 C        2.928    -0.037    28.924     8.820
    27   6 C        2.917    -0.045    29.122     8.849
    28   6 C        2.919    -0.035    28.866     8.810
    29   6 C        2.924    -0.060    29.480     8.904
    30   6 C        2.926     0.060    26.662     8.468
    31   6 C        3.348     0.074    23.774     7.690
    32   7 N        1.853    -0.277    28.042     7.849
    33  16 S        2.677     0.365   127.072    18.973
    34   7 N        1.853    -0.277    28.042     7.849
    35   6 C        3.348     0.074    23.774     7.690
    36   6 C        2.930     0.063    26.592     8.457
    37   6 C        2.925    -0.055    29.365     8.887
    38   6 C        2.919    -0.035    28.870     8.811
    39   6 C        2.917    -0.045    29.110     8.848
    40   6 C        2.928    -0.037    28.923     8.820
    41   6 C        2.979    -0.011    28.295     8.725
    42   1 H        0.925     0.044     2.393     2.419
    43   1 H        0.925     0.044     2.390     2.418
    44   1 H        0.925     0.032     2.560     2.502
    45   1 H        0.925     0.031     2.573     2.508
    46   1 H        0.925     0.045     2.389     2.417
    47   1 H        0.925     0.045     2.388     2.416
    48   1 H        0.926     0.038     2.476     2.461
    49   1 H        0.926     0.031     2.579     2.511
    50   1 H        0.926     0.029     2.602     2.523
    51   1 H        0.926     0.016     2.798     2.616
    52   1 H        0.926     0.059     2.213     2.326
    53   1 H        0.926     0.059     2.213     2.326
    54   1 H        0.926     0.011     2.868     2.648
    55   1 H        0.926     0.028     2.615     2.529
    56   1 H        0.926     0.031     2.573     2.508
    57   1 H        0.926     0.038     2.473     2.459
    58   1 H        0.925     0.032     2.560     2.502
    59   1 H        0.925     0.044     2.393     2.419
    60   1 H        0.925     0.044     2.390     2.418
    61   1 H        0.925     0.031     2.573     2.508
    62   1 H        0.925     0.045     2.389     2.417
    63   1 H        0.925     0.045     2.388     2.416
    64   1 H        0.926     0.038     2.476     2.461
    65   1 H        0.926     0.031     2.579     2.511
    66   1 H        0.926     0.029     2.602     2.523
    67   1 H        0.926     0.016     2.798     2.616
    68   1 H        0.926     0.011     2.867     2.648
    69   1 H        0.926     0.028     2.615     2.529
    70   1 H        0.926     0.031     2.573     2.508
    71   1 H        0.926     0.038     2.473     2.459

molecular dipole:
                 x           y           z       tot (Debye)
 q only:       -0.000      -0.000      -0.050
   full:       -0.000       0.077       0.190       0.522

 projected vibrational frequencies (cm⁻¹)
eigval :       -0.00    -0.00    -0.00     0.00     0.00     0.00
eigval :       10.63    13.13    15.90    19.56    21.21    47.44
eigval :       55.08    62.88    98.61    98.88   103.70   103.92
eigval :      112.35   125.52   126.04   157.82   160.07   170.32
eigval :      181.26   188.24   188.44   216.82   219.83   228.41
eigval :      230.22   236.25   260.37   290.77   304.25   305.85
eigval :      325.11   331.62   331.77   346.02   349.23   355.97
eigval :      375.15   379.22   392.24   410.10   410.84   416.94
eigval :      451.76   453.34   471.27   479.58   488.78   516.95
eigval :      517.41   521.30   522.42   540.98   546.95   549.62
eigval :      549.78   558.88   560.54   585.37   586.91   595.49
eigval :      623.50   633.92   654.49   655.61   682.21   684.69
eigval :      685.32   696.36   696.42   718.91   731.54   746.35
eigval :      774.81   776.24   776.52   777.94   822.89   824.02
eigval :      837.36   846.71   851.50   863.76   864.64   865.93
eigval :      867.35   872.15   898.37   905.42   911.74   912.01
eigval :      913.50   913.86   914.52   914.84   919.33   919.54
eigval :      922.58   922.75   938.43   938.68   958.99   959.03
eigval :     1012.94  1013.01  1039.48  1062.82  1075.96  1076.14
eigval :     1103.65  1107.95  1113.75  1113.87  1118.98  1119.30
eigval :     1139.29  1139.55  1159.14  1159.16  1168.81  1175.51
eigval :     1184.88  1185.34  1185.80  1187.01  1194.47  1207.68
eigval :     1240.62  1241.66  1248.14  1249.67  1265.28  1267.66
eigval :     1276.30  1284.19  1293.38  1293.43  1302.43  1322.70
eigval :     1322.84  1325.51  1331.76  1332.34  1332.48  1333.58
eigval :     1346.45  1374.71  1399.76  1399.84  1418.46  1418.47
eigval :     1434.79  1435.04  1437.59  1437.90  1475.21  1476.10
eigval :     1485.20  1485.22  1485.57  1485.60  1488.93  1493.91
eigval :     1494.07  1495.80  1495.83  1500.83  1501.05  1532.31
eigval :     1561.65  1574.64  1574.88  1589.65  1589.86  1590.63
eigval :     1590.94  1599.79  1600.73  3021.47  3021.52  3024.69
eigval :     3024.72  3040.91  3040.92  3043.18  3043.21  3048.96
eigval :     3048.97  3053.23  3053.29  3071.01  3071.49  3073.50
eigval :     3073.54  3079.99  3080.25  3082.50  3082.55  3085.46
eigval :     3085.61  3089.22  3090.12  3090.86  3095.35  3095.37
eigval :     3097.26  3097.33  3099.29

   temp. (K)  partition function   enthalpy   heat capacity  entropy
                                   cal/mol     cal/K/mol   cal/K/mol   J/K/mol
 298.15  VIB  0.190E+16            20055.284    127.772    123.522
         ROT  0.446E+08              888.752      2.981     37.983
         INT  0.847E+23            20944.037    130.752    161.506
         TR   0.125E+29             1481.254      4.968     44.783
         TOT                       22425.2905   135.7206   206.2890   863.1131

       T/K    H(0)-H(T)+PV         H(T)/Eh          T*S/Eh         G(T)/Eh
   ------------------------------------------------------------------------
    298.15    0.357370E-01    0.592648E+00    0.980146E-01    0.494633E+00
   ------------------------------------------------------------------------

         :::::::::::::::::::::::::::::::::::::::::::::::::::::
         ::                  THERMODYNAMIC                  ::
         :::::::::::::::::::::::::::::::::::::::::::::::::::::
         :: total free energy        -106.947536259513 Eh   ::
         ::.................................................::
         :: total energy             -107.442169585220 Eh   ::
         :: zero point energy           0.556910907833 Eh   ::
         :: G(RRHO) w/o ZPVE           -0.062277582127 Eh   ::
         :: G(RRHO) contrib.            0.494633325706 Eh   ::
         :::::::::::::::::::::::::::::::::::::::::::::::::::::

           -------------------------------------------------
          | TOTAL ENERGY             -107.442169585220 Eh   |
          | TOTAL ENTHALPY           -106.849521702142 Eh   |
          | TOTAL FREE ENERGY        -106.947536259513 Eh   |
          | GRADIENT NORM               0.000045533906 Eh/α |
          | HOMO-LUMO GAP               0.882460924941 eV   |
           -------------------------------------------------

 * finished run on 2025/09/04 at 05:21:48.160
