   * xtb version 6.7.1 (edcfbbe) compiled by 'albert@albert-system' on 2024-07-22

   ID    Z sym.   atoms
    1    6 C      1-9, 11-14, 16-31, 35-41
    2    7 N      10, 15, 32, 34
    3   16 S      33
    4    1 H      42-71

          program call               : xtb data2507/toluene/BTZ–DMAC/BTZ–DMAC_toluene_T1_crest.xyz --gfn 2 --uhf 2 --gbsa toluene --ohess vtight --parallel 40 --molden --ceasefiles --namespace data2507/toluene/BTZ–DMAC/BTZ–DMAC_toluene_T1_finalOpt
      * Solvation model:               GBSA
        Solvent                        toluene
        Solvent mass                       9.2140E+01 g/mol
          :  Hamiltonian                  GFN2-xTB          :
 * total energy  :  -107.3881523 Eh     change       -0.8435862E-08 Eh
 * total energy  :  -107.3882584 Eh     change       -0.1060233E-03 Eh
 * total energy  :  -107.3882934 Eh     change       -0.3502581E-04 Eh
 * total energy  :  -107.3883007 Eh     change       -0.7299212E-05 Eh
 * total energy  :  -107.3883051 Eh     change       -0.4431351E-05 Eh
 * total energy  :  -107.3883081 Eh     change       -0.3030973E-05 Eh
 * total energy  :  -107.3883109 Eh     change       -0.2718469E-05 Eh
 * total energy  :  -107.3883129 Eh     change       -0.2002499E-05 Eh
 * total energy  :  -107.3883145 Eh     change       -0.1622127E-05 Eh
 * total energy  :  -107.3883162 Eh     change       -0.1664111E-05 Eh
 * total energy  :  -107.3883502 Eh     change       -0.1985875E-05 Eh
 * total energy  :  -107.3883522 Eh     change       -0.1935011E-05 Eh
 * total energy  :  -107.3883540 Eh     change       -0.1873269E-05 Eh
 * total energy  :  -107.3883560 Eh     change       -0.1923835E-05 Eh
 * total energy  :  -107.3883580 Eh     change       -0.2030934E-05 Eh
 * total energy  :  -107.3883596 Eh     change       -0.1587174E-05 Eh
 * total energy  :  -107.3883602 Eh     change       -0.6158497E-06 Eh
 * total energy  :  -107.3883606 Eh     change       -0.3660309E-06 Eh
 * total energy  :  -107.3883607 Eh     change       -0.7999888E-07 Eh
   *** GEOMETRY OPTIMIZATION CONVERGED AFTER 41 ITERATIONS ***

 final structure:
================
71
 xtb: 6.7.1 (edcfbbe)
C           -6.42249675720156        0.55596015462937       -1.13206811010275
C           -5.73511768837212        0.01581337247107        0.13766252934905
C           -6.79156081639161       -0.46020967453139        1.15409101070125
C           -4.92553680280510        1.13675231039810        0.75306170105027
C           -5.57313164229781        2.28615954226860        1.18728580869666
C           -4.88417731049499        3.36533658646981        1.70867491055751
C           -3.50066010062314        3.31916109526918        1.77605089004536
C           -2.83171510844184        2.19431769176905        1.34832934138727
C           -3.52715403058295        1.07863409708480        0.85997364571769
N           -2.82913105458979       -0.04792811618079        0.46367097245158
C           -1.41600124905028       -0.03156863872488        0.45547792138724
C           -0.68875834851561       -0.00120109190174        1.65757099496035
C            0.68719173375698        0.00322588008227        1.65810495924045
C            1.41543794033158        0.03430987251971        0.45662232676820
N            2.82857948501864        0.04853350337151        0.46616548515751
C            3.52423035372609       -1.07971459974679        0.86198872325478
C            2.82626757366872       -2.19502594531796        1.34762874058093
C            3.49268895876327       -3.32174507976037        1.77436193102813
C            4.87620314538016       -3.37027004644679        1.70856410664899
C            5.56770559739611       -2.29133379778058        1.19006083376103
C            4.92265904376334       -1.14005019048692        0.75696591711060
C            5.73510230159704       -0.01929397765022        0.14506731314881
C            6.42621921164614       -0.55880978015018       -1.12289811168539
C            6.78829722674332        0.45500603082521        1.16568829555837
C            4.86810648319262        1.15902203916860       -0.24041177362183
C            5.45491161265553        2.29451293699083       -0.78359802716232
C            4.71515945216037        3.41398933158725       -1.11531820517366
C            3.34985592311976        3.42439021580780       -0.87362397354817
C            2.74257472011076        2.31142974642709       -0.33911839953800
C            3.47863387715684        1.15337912458301       -0.05171177054121
C            0.72160084717210        0.03891170160489       -0.76456855851597
N            1.24713229505626        0.07201635816058       -1.98511142255729
S            0.00108366428873        0.00359759005570       -3.08174647316877
N           -1.24578955205290       -0.06624734376091       -1.98614298218438
C           -0.72118297475954       -0.03448356853673       -0.76516188906585
C           -3.47676314566712       -1.15373635509455       -0.05523051112213
C           -2.73855488370690       -2.31073969494591       -0.34138522612218
C           -3.34329135782214       -3.42455091881758       -0.87697985823570
C           -4.70815217753705       -3.41599455194447       -1.12124071901731
C           -5.45007995115601       -2.29757366192247       -0.79082602920347
C           -4.86590039251433       -1.16138099267904       -0.24625604047150
H           -7.03257935692119       -0.21433855555610       -1.59466064824006
H           -5.67021250699806        0.87710242330804       -1.85056116356308
H           -7.05880090964638        1.40382166841182       -0.89575440744840
H           -6.30147288436201       -0.83295065284948        2.05157795525971
H           -7.39714374215843       -1.25849651628545        0.73639803031826
H           -7.45138799755908        0.35487454837663        1.43482474963591
H           -6.64735291224912        2.34905517791893        1.11210295143511
H           -5.41938964182839        4.24165487924042        2.04059432414714
H           -2.94108726444782        4.16218197803209        2.15260034795167
H           -1.75395079688270        2.17456733658369        1.37930980282703
H           -1.23193513786474       -0.01420973494751        2.59102153738385
H            1.22963745846798        0.01507657926144        2.59199598909657
H            1.74850993913905       -2.17359604462878        1.37709660596145
H            2.93111591184617       -4.16447873228221        2.14857713037050
H            5.40946177219449       -4.24807614600449        2.03969356115925
H            6.64194994157327       -2.35574428560351        1.11660114881537
H            5.67617853701049       -0.87959522147451       -1.84389586505758
H            7.03772020754985        0.21169628618396       -1.58320343971527
H            7.06193000188520       -1.40670295141027       -0.88516548623047
H            7.44590864748572       -0.36111197154212        1.44868124705467
H            7.39647343806678        1.25256188109486        0.75037930839120
H            6.29538276237439        0.82823845168111        2.06145103245478
H            6.51976788324377        2.31051257912935       -0.95587987136015
H            5.20052591962455        4.27741375942099       -1.54398722990569
H            2.76027058846239        4.30115558616893       -1.09640341066673
H            1.68302556206421        2.32776619456456       -0.13618245819706
H           -1.67928910807130       -2.32541302796948       -0.13689258324426
H           -2.75205033657731       -4.30039632853533       -1.09890153226580
H           -5.19151313075048       -4.28008901699984       -1.55081433254154
H           -6.51457101789545       -2.31507613895478       -0.96518284595525

          :  Hamiltonian                  GFN2-xTB          :
         :: gradient norm              0.000099375385 Eh/a0 ::
         :: HOMO-LUMO gap              1.300250740526 eV    ::
         :: SCC energy              -109.203594361416 Eh    ::
         :: -> dispersion             -0.104811323787 Eh    ::
         :: -> Gsolv                  -0.047626533096 Eh    ::
         :: repulsion energy           1.815233710446 Eh    ::

    * Orbital Energies and Occupations

         #    Occupation            Energy/Eh            Energy/eV
      -------------------------------------------------------------
         1        2.0000           -0.7139444             -19.4274
       ...           ...                  ...                  ...
        89        2.0000           -0.4152997             -11.3009
        90        2.0000           -0.4150532             -11.2942
        91        2.0000           -0.4099816             -11.1562
        92        2.0000           -0.4099030             -11.1540
        93        2.0000           -0.4039269             -10.9914
        94        2.0000           -0.4037161             -10.9857
        95        2.0000           -0.3884613             -10.5706
        96        2.0000           -0.3875319             -10.5453
        97        2.0000           -0.3791536             -10.3173
        98        2.0000           -0.3776948             -10.2776
        99        1.9809           -0.3610047              -9.8234
       100        1.0191           -0.3535232              -9.6199
       101        1.0000           -0.2857029              -7.7744 (HOMO)
       102                         -0.2379196              -6.4741 (LUMO)
       103                         -0.2379056              -6.4737
       104                         -0.2314816              -6.2989
       105                         -0.2314043              -6.2968
       106                         -0.2292629              -6.2386
       107                         -0.2291967              -6.2368
       108                         -0.2125872              -5.7848
       109                         -0.2061079              -5.6085
       110                         -0.2012625              -5.4766
       111                         -0.1969257              -5.3586
       112                         -0.1930066              -5.2520
       ...                                ...                  ...
       199                          0.7037745              19.1507
      -------------------------------------------------------------
                  HL-Gap            0.0477833 Eh            1.3002 eV

     #   Z          covCN         q      C6AA      α(0)
     1   6 C        3.761    -0.106    22.571     6.773
     2   6 C        3.909     0.023    20.127     6.377
     3   6 C        3.761    -0.109    22.623     6.780
     4   6 C        2.979    -0.004    28.107     8.696
     5   6 C        2.926    -0.035    28.867     8.811
     6   6 C        2.917    -0.035    28.874     8.812
     7   6 C        2.918    -0.031    28.766     8.795
     8   6 C        2.923    -0.049    29.226     8.865
     9   6 C        2.928     0.063    26.583     8.455
    10   7 N        2.753    -0.027    21.762     6.929
    11   6 C        2.920     0.016    27.664     8.625
    12   6 C        2.913    -0.065    29.614     8.924
    13   6 C        2.913    -0.065    29.614     8.924
    14   6 C        2.920     0.016    27.664     8.625
    15   7 N        2.753    -0.027    21.763     6.929
    16   6 C        2.928     0.063    26.583     8.455
    17   6 C        2.923    -0.049    29.226     8.865
    18   6 C        2.918    -0.031    28.766     8.795
    19   6 C        2.917    -0.035    28.874     8.812
    20   6 C        2.926    -0.035    28.867     8.811
    21   6 C        2.979    -0.004    28.107     8.696
    22   6 C        3.909     0.023    20.127     6.377
    23   6 C        3.761    -0.106    22.572     6.773
    24   6 C        3.761    -0.109    22.622     6.780
    25   6 C        2.979    -0.003    28.093     8.694
    26   6 C        2.926    -0.035    28.871     8.812
    27   6 C        2.918    -0.034    28.847     8.808
    28   6 C        2.918    -0.030    28.746     8.792
    29   6 C        2.924    -0.040    29.002     8.831
    30   6 C        2.932     0.069    26.451     8.435
    31   6 C        3.284     0.090    24.580     7.969
    32   7 N        1.846    -0.331    29.429     8.040
    33  16 S        2.572     0.088   137.511    19.737
    34   7 N        1.846    -0.331    29.429     8.040
    35   6 C        3.284     0.090    24.580     7.969
    36   6 C        2.932     0.069    26.451     8.435
    37   6 C        2.924    -0.040    29.002     8.832
    38   6 C        2.918    -0.030    28.746     8.792
    39   6 C        2.918    -0.034    28.847     8.808
    40   6 C        2.926    -0.035    28.870     8.812
    41   6 C        2.979    -0.003    28.093     8.694
    42   1 H        0.925     0.051     2.307     2.375
    43   1 H        0.925     0.034     2.524     2.484
    44   1 H        0.925     0.051     2.309     2.376
    45   1 H        0.925     0.036     2.504     2.474
    46   1 H        0.925     0.051     2.302     2.372
    47   1 H        0.925     0.052     2.294     2.368
    48   1 H        0.926     0.049     2.332     2.388
    49   1 H        0.926     0.043     2.412     2.429
    50   1 H        0.926     0.039     2.460     2.453
    51   1 H        0.926     0.032     2.551     2.498
    52   1 H        0.926     0.032     2.560     2.502
    53   1 H        0.926     0.032     2.560     2.502
    54   1 H        0.926     0.032     2.552     2.498
    55   1 H        0.926     0.039     2.460     2.453
    56   1 H        0.926     0.043     2.412     2.429
    57   1 H        0.926     0.049     2.332     2.388
    58   1 H        0.925     0.034     2.524     2.484
    59   1 H        0.925     0.051     2.307     2.375
    60   1 H        0.925     0.051     2.308     2.376
    61   1 H        0.925     0.052     2.294     2.368
    62   1 H        0.925     0.051     2.301     2.372
    63   1 H        0.925     0.036     2.504     2.475
    64   1 H        0.926     0.049     2.329     2.387
    65   1 H        0.926     0.043     2.410     2.428
    66   1 H        0.926     0.037     2.485     2.465
    67   1 H        0.926     0.026     2.640     2.541
    68   1 H        0.926     0.026     2.640     2.541
    69   1 H        0.926     0.037     2.485     2.465
    70   1 H        0.926     0.043     2.410     2.428
    71   1 H        0.926     0.049     2.329     2.386

molecular dipole:
                 x           y           z       tot (Debye)
 q only:       -0.001      -0.004       1.738
   full:       -0.001      -0.004       2.070       5.261

 projected vibrational frequencies (cm⁻¹)
eigval :       -0.00    -0.00     0.00     0.00     0.00     0.00
eigval :       13.71    14.18    17.24    23.03    34.27    47.96
eigval :       59.68    64.35    96.66    97.24   101.29   102.43
eigval :      113.52   117.89   121.11   156.06   164.07   166.43
eigval :      182.18   184.28   186.35   211.71   214.75   226.94
eigval :      236.60   239.26   263.61   301.79   304.06   307.02
eigval :      326.16   329.32   329.97   343.05   348.79   363.73
eigval :      375.36   376.33   384.26   400.62   408.05   413.21
eigval :      416.41   452.33   456.10   466.44   498.28   506.57
eigval :      506.70   511.70   522.70   532.01   541.99   544.22
eigval :      544.32   554.91   561.19   583.07   583.45   586.72
eigval :      607.16   628.76   630.81   653.69   675.25   688.12
eigval :      690.40   691.01   703.59   703.65   714.02   734.18
eigval :      767.65   769.01   770.88   774.53   774.75   798.61
eigval :      808.49   825.41   825.92   849.99   858.64   864.79
eigval :      868.47   869.81   869.89   885.67   908.21   909.51
eigval :      912.56   912.69   913.83   913.87   916.81   917.27
eigval :      922.49   922.64   936.36   936.75   957.56   958.05
eigval :     1013.02  1013.11  1027.19  1061.98  1074.74  1074.82
eigval :     1094.87  1106.81  1107.62  1113.11  1113.49  1115.96
eigval :     1136.57  1136.90  1149.24  1149.40  1168.83  1171.58
eigval :     1180.24  1180.91  1182.11  1182.97  1195.59  1202.02
eigval :     1234.62  1236.24  1241.83  1242.78  1255.27  1255.80
eigval :     1263.21  1284.19  1292.62  1292.80  1297.23  1304.49
eigval :     1306.67  1317.10  1327.67  1327.97  1335.21  1335.54
eigval :     1337.63  1396.56  1396.93  1415.26  1415.62  1418.49
eigval :     1418.55  1427.61  1428.17  1438.48  1443.71  1444.42
eigval :     1456.08  1457.46  1475.27  1475.96  1478.95  1479.28
eigval :     1483.03  1483.33  1491.47  1491.63  1497.29  1497.55
eigval :     1521.61  1555.44  1555.48  1567.50  1570.27  1579.35
eigval :     1579.42  1589.25  1590.06  3025.12  3025.54  3028.62
eigval :     3029.04  3046.14  3046.27  3051.25  3051.44  3052.74
eigval :     3052.81  3060.53  3060.73  3077.08  3079.63  3079.82
eigval :     3082.41  3082.82  3087.15  3087.32  3089.24  3090.50
eigval :     3090.61  3096.44  3096.58  3100.58  3100.63  3101.03
eigval :     3101.52  3107.28  3107.59

   temp. (K)  partition function   enthalpy   heat capacity  entropy
                                   cal/mol     cal/K/mol   cal/K/mol   J/K/mol
 298.15  VIB  0.821E+15            20192.169    129.173    123.791
         ROT  0.222E+08              888.752      2.981     36.598
         INT  0.183E+23            21080.921    132.154    160.389
         TR   0.125E+29             1481.254      4.968     44.783
         TOT                       22562.1751   137.1225   205.1721   858.4400

       T/K    H(0)-H(T)+PV         H(T)/Eh          T*S/Eh         G(T)/Eh
   ------------------------------------------------------------------------
    298.15    0.359551E-01    0.590756E+00    0.974839E-01    0.493272E+00
   ------------------------------------------------------------------------

         :::::::::::::::::::::::::::::::::::::::::::::::::::::
         ::                  THERMODYNAMIC                  ::
         :::::::::::::::::::::::::::::::::::::::::::::::::::::
         :: total free energy        -106.895088928655 Eh   ::
         ::.................................................::
         :: total energy             -107.388360649567 Eh   ::
         :: zero point energy           0.554800480499 Eh   ::
         :: G(RRHO) w/o ZPVE           -0.061528759587 Eh   ::
         :: G(RRHO) contrib.            0.493271720912 Eh   ::
         :::::::::::::::::::::::::::::::::::::::::::::::::::::

           -------------------------------------------------
          | TOTAL ENERGY             -107.388360649567 Eh   |
          | TOTAL ENTHALPY           -106.797605054466 Eh   |
          | TOTAL FREE ENERGY        -106.895088928655 Eh   |
          | GRADIENT NORM               0.000099419559 Eh/α |
          | HOMO-LUMO GAP               1.300249538521 eV   |
           -------------------------------------------------

 * finished run on 2025/09/04 at 05:30:14.682
