   * xtb version 6.7.1 (edcfbbe) compiled by 'albert@albert-system' on 2024-07-22

   ID    Z sym.   atoms
    1    6 C      1-5, 7-13, 15-19, 21-47, 49, 50
    2    7 N      6, 14, 20, 48
    3    1 H      51-80

          program call               : xtb data2507/toluene/SpiroAC-TRZ/SpiroAC-TRZ_toluene_S0_crest.xyz --gfn 2 --gbsa toluene --ohess vtight --parallel 40 --molden --ceasefiles --namespace data2507/toluene/SpiroAC-TRZ/SpiroAC-TRZ_toluene_S0_finalOpt
      * Solvation model:               GBSA
        Solvent                        toluene
        Solvent mass                       9.2140E+01 g/mol
          :  Hamiltonian                  GFN2-xTB          :
 * total energy  :  -125.5952743 Eh     change       -0.1545175E-08 Eh
 * total energy  :  -125.5953104 Eh     change       -0.3609792E-04 Eh
 * total energy  :  -125.5953219 Eh     change       -0.1146390E-04 Eh
 * total energy  :  -125.5953265 Eh     change       -0.4633571E-05 Eh
 * total energy  :  -125.5953309 Eh     change       -0.4446352E-05 Eh
 * total energy  :  -125.5953335 Eh     change       -0.2567195E-05 Eh
 * total energy  :  -125.5953373 Eh     change       -0.3766573E-05 Eh
 * total energy  :  -125.5953429 Eh     change       -0.5598884E-05 Eh
 * total energy  :  -125.5953492 Eh     change       -0.6355326E-05 Eh
 * total energy  :  -125.5953556 Eh     change       -0.6347289E-05 Eh
 * total energy  :  -125.5955214 Eh     change       -0.1054973E-05 Eh
 * total energy  :  -125.5955221 Eh     change       -0.7718021E-06 Eh
 * total energy  :  -125.5955226 Eh     change       -0.4811067E-06 Eh
 * total energy  :  -125.5955230 Eh     change       -0.3425304E-06 Eh
 * total energy  :  -125.5955233 Eh     change       -0.3327789E-06 Eh
 * total energy  :  -125.5955237 Eh     change       -0.3833686E-06 Eh
 * total energy  :  -125.5955242 Eh     change       -0.4931642E-06 Eh
 * total energy  :  -125.5955248 Eh     change       -0.6432108E-06 Eh
 * total energy  :  -125.5955248 Eh     change       -0.8013302E-08 Eh
   *** GEOMETRY OPTIMIZATION CONVERGED AFTER 68 ITERATIONS ***

 final structure:
================
80
 xtb: 6.7.1 (edcfbbe)
C            7.98450661907021       -4.77301171534729        0.22617921560631
C            6.60057005630662       -4.79805135816632        0.14117951171922
C            5.88801751251326       -3.61553109772925        0.08840220530358
C            6.55840127467704       -2.39314392627194        0.11846813775793
C            5.80775735061290       -1.13885088124057        0.06161355497434
N            6.49524748256398       -0.00082287303229        0.00694173493023
C            5.77445261994434        1.11675423129355       -0.03954635105877
C            6.48673168537780        2.39283097277385       -0.10456653782691
C            5.78004041873496        3.59444397927362       -0.06824444295753
C            6.45589373269837        4.79795812349041       -0.12825961244132
C            7.83910778590973        4.81477565826652       -0.22627120281522
C            8.54750970174004        3.62321417660608       -0.26417395694666
C            7.87751216396520        2.41644424720642       -0.20298994753889
N            4.44353301157913        1.14360018768050       -0.02923364557911
C            3.83766885023293       -0.03954990402392        0.02253369688509
C            2.37467599370253       -0.05939735915033        0.03031233636995
C            1.65631529277070        1.13466768144244       -0.02603806033567
C            0.27692573829822        1.11771043656108       -0.02106462152536
C           -0.40612273171517       -0.09456462638754        0.03777829230902
N           -1.82440662026050       -0.10676033409639        0.03599860268872
C           -2.50326100663363        0.30116602508902        1.17768109288141
C           -1.79733156788880        0.62795877717606        2.33921701544668
C           -2.45886274576662        1.03353787835101        3.48066188068459
C           -3.84101110852590        1.11368550877741        3.49482463330443
C           -4.54692580767468        0.76961486700640        2.35713413757433
C           -3.89910199102341        0.36009059922044        1.20061381542435
C           -4.73212079218473       -0.01059639641519       -0.00265250266883
C           -5.80887135791325       -1.01019538267516        0.37416629942145
C           -5.65285075592200       -2.28969164901942        0.86063753890816
C           -6.78987533672878       -3.03576505565991        1.14339879456918
C           -8.05525411009664       -2.50582456786683        0.94006131587942
C           -8.21719461820426       -1.21928962559491        0.45004079082821
C           -7.08656300889613       -0.47044874169310        0.16682776179699
C           -6.93866532646421        0.88361266318645       -0.34682103090402
C           -7.88363408805521        1.82965463413058       -0.70938629837580
C           -7.44623771718425        3.05997172798850       -1.17456961670382
C           -6.09213037808557        3.34171203357224       -1.27650481705222
C           -5.14057730503838        2.39664532881432       -0.91547148855215
C           -5.57087999439231        1.17276935344877       -0.45233018233155
C           -3.89600441067575       -0.52112796452559       -1.15175593831521
C           -4.54240657635221       -0.95456627999870       -2.30033625912473
C           -3.83445821204493       -1.38589975724121       -3.40653440348123
C           -2.45067467460318       -1.36680140327973       -3.37002628905523
C           -1.79021011322076       -0.94083732122775       -2.23534277830592
C           -2.49922423933067       -0.52925967589457       -1.10304016690543
C            0.30748410045958       -1.28932998088176        0.09648081333012
C            1.68711566220418       -1.27113431660776        0.09328363473807
N            4.47801764069828       -1.20467825279646        0.06674715863010
C            7.95017105498283       -2.37467385543386        0.20345593587347
C            8.65693563534091       -3.56060072741329        0.25771892857473
H            8.53921790767755       -5.69869418950389        0.26765968914441
H            6.07737400010683       -5.74248105965677        0.11630515878242
H            4.81128684986789       -3.61624841385264        0.02152070517511
H            4.70449398887722        3.56272312672347        0.00922922632837
H            5.90457890233375        5.72612415674905       -0.09864194610369
H            8.36509106152142        5.75680520645254       -0.27336993086073
H            9.62461117987059        3.63666543099694       -0.34154893246221
H            8.41207988718317        1.47980943085732       -0.23269170509611
H            2.19820443431146        2.06558567539909       -0.07870934812315
H           -0.28313906614320        2.04010573329522       -0.06295490116170
H           -0.72040649657887        0.55770167432239        2.34796944542834
H           -1.88846169786270        1.28349061496228        4.36316245355059
H           -4.36400732374331        1.43259147105647        4.38340342620164
H           -5.62651500187414        0.81599704860459        2.35869504296550
H           -4.66759301533369       -2.70418910975204        1.01975636094484
H           -6.68734973603646       -4.04070341481509        1.52656080292536
H           -8.92596352728135       -3.10424054971977        1.16714065014556
H           -9.20470112433081       -0.81064309109568        0.29346066475309
H           -8.93934568224839        1.61507027614460       -0.63181875812142
H           -8.16909058514823        3.81013995169938       -1.46181460002681
H           -5.77334329956947        4.30710267335183       -1.64204214226880
H           -4.08599537182460        2.61756894885179       -0.99754435351885
H           -5.62267135215647       -0.94591563603705       -2.32254754682244
H           -4.35677401856399       -1.72030420825919       -4.28981590187573
H           -1.87750876044157       -1.68110389192645       -4.22987176329776
H           -0.71130841696840       -0.91942317254287       -2.22876901826714
H           -0.22884399100872       -2.22545851743736        0.14437469960806
H            2.25258607792918       -2.18812149062831        0.14344481262530
H            8.45627343235348       -1.42221722936543        0.22841190004967
H            9.73464823859201       -3.54166686525322        0.32474930780471

          :  Hamiltonian                  GFN2-xTB          :
         :: gradient norm              0.000057879001 Eh/a0 ::
         :: HOMO-LUMO gap              1.471813324429 eV    ::
         :: SCC energy              -127.928331860441 Eh    ::
         :: -> dispersion             -0.115860949221 Eh    ::
         :: -> Gsolv                  -0.055734512113 Eh    ::
         :: repulsion energy           2.332807049083 Eh    ::

    * Orbital Energies and Occupations

         #    Occupation            Energy/Eh            Energy/eV
      -------------------------------------------------------------
         1        2.0000           -0.6925493             -18.8452
       ...           ...                  ...                  ...
       105        2.0000           -0.4162556             -11.3269
       106        2.0000           -0.4141884             -11.2706
       107        2.0000           -0.4136049             -11.2548
       108        2.0000           -0.4126323             -11.2283
       109        2.0000           -0.4099875             -11.1563
       110        2.0000           -0.4077226             -11.0947
       111        2.0000           -0.3979410             -10.8285
       112        2.0000           -0.3956145             -10.7652
       113        2.0000           -0.3934517             -10.7064
       114        2.0000           -0.3826654             -10.4129
       115        2.0000           -0.3822145             -10.4006
       116        2.0000           -0.3791086             -10.3161
       117        2.0000           -0.3510280              -9.5520 (HOMO)
       118                         -0.2969399              -8.0801 (LUMO)
       119                         -0.2946691              -8.0184
       120                         -0.2537464              -6.9048
       121                         -0.2516122              -6.8467
       122                         -0.2434706              -6.6252
       123                         -0.2343971              -6.3783
       124                         -0.2343850              -6.3779
       125                         -0.2322489              -6.3198
       126                         -0.2247898              -6.1168
       127                         -0.2243051              -6.1037
       128                         -0.2230041              -6.0683
       ...                                ...                  ...
       230                          0.7283750              19.8201
      -------------------------------------------------------------
                  HL-Gap            0.0540881 Eh            1.4718 eV

     #   Z          covCN         q      C6AA      α(0)
     1   6 C        2.920    -0.022    28.551     8.762
     2   6 C        2.918    -0.027    28.677     8.782
     3   6 C        2.923    -0.026    28.647     8.777
     4   6 C        2.983    -0.010    28.251     8.719
     5   6 C        2.979     0.217    23.434     7.941
     6   7 N        1.844    -0.321    29.173     8.005
     7   6 C        2.979     0.217    23.434     7.941
     8   6 C        2.983    -0.010    28.251     8.719
     9   6 C        2.923    -0.026    28.647     8.777
    10   6 C        2.918    -0.027    28.677     8.782
    11   6 C        2.920    -0.022    28.551     8.762
    12   6 C        2.918    -0.027    28.676     8.781
    13   6 C        2.923    -0.026    28.644     8.777
    14   7 N        1.844    -0.322    29.188     8.007
    15   6 C        2.980     0.216    23.444     7.942
    16   6 C        2.983    -0.010    28.258     8.720
    17   6 C        2.923    -0.025    28.626     8.774
    18   6 C        2.920    -0.037    28.910     8.817
    19   6 C        2.927     0.075    26.317     8.413
    20   7 N        2.752    -0.068    22.549     7.053
    21   6 C        2.925     0.058    26.691     8.472
    22   6 C        2.924    -0.058    29.448     8.899
    23   6 C        2.920    -0.033    28.824     8.804
    24   6 C        2.917    -0.043    29.072     8.842
    25   6 C        2.926    -0.035    28.882     8.813
    26   6 C        2.982    -0.007    28.195     8.710
    27   6 C        3.949     0.012    20.307     6.403
    28   6 C        3.056     0.002    27.933     8.667
    29   6 C        2.914    -0.033    28.832     8.805
    30   6 C        2.922    -0.033    28.815     8.803
    31   6 C        2.921    -0.033    28.832     8.805
    32   6 C        2.914    -0.035    28.880     8.812
    33   6 C        3.034     0.000    27.987     8.677
    34   6 C        3.033     0.000    27.985     8.677
    35   6 C        2.914    -0.035    28.874     8.811
    36   6 C        2.921    -0.033    28.833     8.806
    37   6 C        2.922    -0.033    28.818     8.803
    38   6 C        2.914    -0.034    28.843     8.807
    39   6 C        3.058     0.002    27.934     8.667
    40   6 C        2.983    -0.007    28.197     8.710
    41   6 C        2.926    -0.036    28.884     8.814
    42   6 C        2.917    -0.043    29.074     8.842
    43   6 C        2.920    -0.033    28.825     8.804
    44   6 C        2.923    -0.059    29.459     8.901
    45   6 C        2.924     0.058    26.690     8.472
    46   6 C        2.919    -0.037    28.915     8.818
    47   6 C        2.923    -0.025    28.628     8.774
    48   7 N        1.844    -0.322    29.188     8.007
    49   6 C        2.923    -0.026    28.644     8.777
    50   6 C        2.918    -0.027    28.676     8.781
    51   1 H        0.926     0.050     2.320     2.382
    52   1 H        0.926     0.048     2.348     2.396
    53   1 H        0.926     0.051     2.313     2.378
    54   1 H        0.926     0.051     2.313     2.378
    55   1 H        0.926     0.048     2.348     2.396
    56   1 H        0.926     0.050     2.320     2.382
    57   1 H        0.926     0.048     2.349     2.397
    58   1 H        0.926     0.051     2.311     2.377
    59   1 H        0.926     0.060     2.203     2.321
    60   1 H        0.926     0.054     2.266     2.354
    61   1 H        0.926     0.027     2.625     2.533
    62   1 H        0.926     0.032     2.554     2.499
    63   1 H        0.926     0.031     2.577     2.510
    64   1 H        0.926     0.029     2.602     2.522
    65   1 H        0.926     0.026     2.648     2.545
    66   1 H        0.926     0.032     2.558     2.501
    67   1 H        0.926     0.032     2.555     2.499
    68   1 H        0.926     0.033     2.547     2.496
    69   1 H        0.926     0.033     2.543     2.494
    70   1 H        0.926     0.032     2.552     2.498
    71   1 H        0.926     0.032     2.557     2.501
    72   1 H        0.926     0.025     2.656     2.549
    73   1 H        0.926     0.029     2.603     2.523
    74   1 H        0.926     0.030     2.579     2.512
    75   1 H        0.926     0.032     2.555     2.500
    76   1 H        0.926     0.028     2.615     2.529
    77   1 H        0.926     0.055     2.255     2.348
    78   1 H        0.926     0.060     2.204     2.321
    79   1 H        0.926     0.051     2.311     2.377
    80   1 H        0.926     0.048     2.349     2.397

molecular dipole:
                 x           y           z       tot (Debye)
 q only:        0.610       0.006       0.002
   full:        0.631       0.009       0.000       1.604

 projected vibrational frequencies (cm⁻¹)
eigval :       -0.00    -0.00    -0.00     0.00     0.00     0.00
eigval :        3.96     6.91    17.42    23.75    35.24    37.16
eigval :       38.89    46.47    49.62    51.78    55.30    56.66
eigval :       69.66    86.38    89.77    94.24   109.04   112.69
eigval :      141.96   146.26   161.17   165.62   180.93   182.61
eigval :      212.11   235.72   239.10   245.82   253.27   258.99
eigval :      280.65   294.43   296.01   322.17   366.25   367.33
eigval :      367.74   377.19   380.01   388.60   399.01   402.04
eigval :      406.22   414.03   417.36   425.03   436.00   443.36
eigval :      459.39   462.12   462.90   499.92   502.54   505.70
eigval :      512.88   540.76   554.84   587.04   587.34   587.63
eigval :      588.08   601.15   602.60   606.20   607.37   616.61
eigval :      628.98   629.78   635.00   652.51   664.72   673.35
eigval :      675.16   679.34   684.86   687.52   711.19   726.62
eigval :      731.26   751.69   754.00   767.73   769.95   775.71
eigval :      777.55   785.28   794.59   826.48   844.99   846.90
eigval :      863.05   864.75   871.33   875.73   876.02   877.48
eigval :      878.07   891.55   898.42   909.04   909.60   909.99
eigval :      911.16   912.29   913.96   919.21   919.67   922.48
eigval :      924.31   924.77   926.19   927.94   929.29   930.79
eigval :      931.68   933.95   934.01   948.59   974.33   989.50
eigval :     1005.20  1013.40  1048.02  1073.36  1075.00  1075.12
eigval :     1078.08  1086.87  1088.08  1107.58  1108.50  1109.19
eigval :     1112.75  1120.16  1124.72  1139.60  1142.44  1162.21
eigval :     1167.45  1174.62  1176.96  1177.23  1178.10  1180.68
eigval :     1183.48  1184.07  1188.06  1193.89  1202.74  1203.40
eigval :     1205.31  1209.10  1231.83  1235.18  1244.92  1252.44
eigval :     1258.57  1267.09  1268.42  1269.98  1273.69  1282.67
eigval :     1311.87  1315.21  1324.78  1325.51  1326.63  1328.00
eigval :     1332.21  1332.67  1365.35  1367.12  1367.42  1374.31
eigval :     1403.44  1427.74  1428.14  1428.96  1430.36  1434.25
eigval :     1436.09  1459.93  1463.16  1469.32  1470.05  1478.08
eigval :     1480.87  1493.25  1506.59  1509.15  1563.62  1572.50
eigval :     1581.19  1582.34  1584.80  1585.58  1587.52  1587.99
eigval :     1592.48  1593.13  1595.05  1599.49  1601.85  1603.35
eigval :     3068.52  3068.95  3071.87  3072.46  3075.70  3075.86
eigval :     3077.82  3077.91  3078.38  3078.57  3078.72  3079.93
eigval :     3082.65  3083.35  3087.23  3088.91  3089.24  3090.18
eigval :     3091.38  3092.09  3092.23  3092.44  3098.23  3099.70
eigval :     3103.77  3104.67  3105.20  3106.49  3109.15  3110.29

   temp. (K)  partition function   enthalpy   heat capacity  entropy
                                   cal/mol     cal/K/mol   cal/K/mol   J/K/mol
 298.15  VIB  0.574E+19            22771.867    143.160    144.050
         ROT  0.109E+09              888.752      2.981     39.763
         INT  0.627E+27            23660.620    146.141    183.813
         TR   0.156E+29             1481.254      4.968     45.225
         TOT                       25141.8735   151.1090   229.0378   958.2943

       T/K    H(0)-H(T)+PV         H(T)/Eh          T*S/Eh         G(T)/Eh
   ------------------------------------------------------------------------
    298.15    0.400661E-01    0.650808E+00    0.108823E+00    0.541985E+00
   ------------------------------------------------------------------------

         :::::::::::::::::::::::::::::::::::::::::::::::::::::
         ::                  THERMODYNAMIC                  ::
         :::::::::::::::::::::::::::::::::::::::::::::::::::::
         :: total free energy        -125.053540153346 Eh   ::
         ::.................................................::
         :: total energy             -125.595524810034 Eh   ::
         :: zero point energy           0.610741795855 Eh   ::
         :: G(RRHO) w/o ZPVE           -0.068757139167 Eh   ::
         :: G(RRHO) contrib.            0.541984656688 Eh   ::
         :::::::::::::::::::::::::::::::::::::::::::::::::::::

           -------------------------------------------------
          | TOTAL ENERGY             -125.595524810034 Eh   |
          | TOTAL ENTHALPY           -124.944716888373 Eh   |
          | TOTAL FREE ENERGY        -125.053540153346 Eh   |
          | GRADIENT NORM               0.000057870408 Eh/α |
          | HOMO-LUMO GAP               1.471812686561 eV   |
           -------------------------------------------------

 * finished run on 2025/07/16 at 23:49:14.644
