   * xtb version 6.7.1 (edcfbbe) compiled by 'albert@albert-system' on 2024-07-22

   ID    Z sym.   atoms
    1    6 C      1-5, 7-13, 15-19, 21-47, 49, 50
    2    7 N      6, 14, 20, 48
    3    1 H      51-80

          program call               : xtb data2507/toluene/SpiroAC-TRZ/SpiroAC-TRZ.xyz --gfn 2 --gbsa toluene --ohess vtight --parallel 40 --molden --ceasefiles --namespace data2507/toluene/SpiroAC-TRZ/SpiroAC-TRZ_toluene_S0_preOpt
      * Solvation model:               GBSA
        Solvent                        toluene
        Solvent mass                       9.2140E+01 g/mol
          :  Hamiltonian                  GFN2-xTB          :
 * total energy  :  -125.5744287 Eh     change       -0.1780634E-08 Eh
 * total energy  :  -125.5888266 Eh     change       -0.1439791E-01 Eh
 * total energy  :  -125.5932979 Eh     change       -0.4471233E-02 Eh
 * total energy  :  -125.5943346 Eh     change       -0.1036691E-02 Eh
 * total energy  :  -125.5949414 Eh     change       -0.6067999E-03 Eh
 * total energy  :  -125.5951406 Eh     change       -0.1992181E-03 Eh
 * total energy  :  -125.5952376 Eh     change       -0.9700715E-04 Eh
 * total energy  :  -125.5952956 Eh     change       -0.5797762E-04 Eh
 * total energy  :  -125.5953054 Eh     change       -0.9844736E-05 Eh
 * total energy  :  -125.5953109 Eh     change       -0.5452939E-05 Eh
 * total energy  :  -125.5953213 Eh     change       -0.1783927E-05 Eh
 * total energy  :  -125.5953225 Eh     change       -0.1230203E-05 Eh
 * total energy  :  -125.5953234 Eh     change       -0.8805944E-06 Eh
 * total energy  :  -125.5953241 Eh     change       -0.6780119E-06 Eh
 * total energy  :  -125.5953246 Eh     change       -0.5657162E-06 Eh
 * total energy  :  -125.5953251 Eh     change       -0.4691334E-06 Eh
 * total energy  :  -125.5953255 Eh     change       -0.3656462E-06 Eh
 * total energy  :  -125.5953258 Eh     change       -0.2831549E-06 Eh
 * total energy  :  -125.5953258 Eh     change       -0.2834327E-08 Eh
   *** GEOMETRY OPTIMIZATION CONVERGED AFTER 22 ITERATIONS ***

 final structure:
================
80
 xtb: 6.7.1 (edcfbbe)
C            7.98007579539259       -4.79732330215946        0.00002967536116
C            6.59331052439437       -4.80069601273881        0.00001594821925
C            5.89727465158787       -3.60722274220854        0.00001540474607
C            6.58718850149616       -2.39529097223658        0.00002032509691
C            5.85477480470517       -1.12924698953016        0.00001740567494
N            6.55823950730417        0.00000768338386        0.00000433198717
C            5.85476650008435        1.12925715993559       -0.00002732954031
C            6.58717031865136        2.39530684780741       -0.00000768193088
C            5.89724668907696        3.60723305874730       -0.00006719855048
C            6.59327286848012        4.80071196278523       -0.00008738323914
C            7.98003816420535        4.79735044079815       -0.00003345594237
C            8.67197246858606        3.59553144149384        0.00004393438117
C            7.98175326544104        2.39878197438573        0.00005845322570
N            4.52377443414889        1.17507592354027       -0.00002918640982
C            3.90139719444137       -0.00000219429958        0.00000495075830
C            2.43667889083175       -0.00000674874650       -0.00002425122198
C            1.73490719567305        1.20467163013398       -0.00008984644203
C            0.35448393175242        1.20518472458510       -0.00008507221095
C           -0.34129789116617       -0.00001364958313       -0.00002586532275
N           -1.76429352787919       -0.00001621513114       -0.00002074373092
C           -2.43771419809072       -0.00000251947277        1.21245334216127
C           -1.72368612722413        0.00000614789820        2.41386192266240
C           -2.38120243396205        0.00001990468711        3.62756138718302
C           -3.76505674320232        0.00002791820538        3.67093147831217
C           -4.47726462350874        0.00002047964332        2.48557843470347
C           -3.83446193851625        0.00000484117348        1.25659921642938
C           -4.67225893744146       -0.00000537855327       -0.00000816283874
C           -5.63499074127784       -1.17282999747963        0.00001774867098
C           -5.33939835628712       -2.51822912545155        0.00003399677166
C           -6.38851433987780       -3.42842169963345        0.00007497463996
C           -7.70523562447832       -2.99305969163277        0.00009681683065
C           -8.00742170160894       -1.64019642499022        0.00007773631197
C           -6.96476979232168       -0.72792206035465        0.00003831668389
C           -6.96476211295854        0.72793504571159        0.00001889661154
C           -8.00740451159346        1.64022022441931        0.00002670755448
C           -7.70520444142786        2.99308036561191       -0.00000131604547
C           -6.38847864980679        3.42842874070362       -0.00003790657648
C           -5.33937211303412        2.51822526262917       -0.00004576098428
C           -5.63497850360462        1.17282918062326       -0.00001602786380
C           -3.83447414936226       -0.00002285402733       -1.25662193795280
C           -4.47728800993352       -0.00003555104190       -2.48559551686429
C           -3.76509043426104       -0.00005023887106       -3.67095486260446
C           -2.38123563510213       -0.00005231402325       -3.62759729764895
C           -1.72370839128388       -0.00004148168977       -2.41390367169043
C           -2.43772597328650       -0.00002562212322       -1.21248916301871
C            0.35448987802786       -1.20520859227640        0.00003013581705
C            1.73491325942424       -1.20468863749284        0.00002879579179
N            4.52378299906253       -1.17507576654624        0.00002099275010
C            7.98177149990957       -2.39875485933730        0.00002758118875
C            8.67200040231575       -3.59549871371928        0.00003722119049
H            8.52186077103144       -5.73153599909993        0.00001309244411
H            6.05496422225076       -5.73688800942979        0.00001058808804
H            4.81861604266862       -3.59137629643514        0.00001932884087
H            4.81858821990114        3.59137787742041       -0.00013040966892
H            6.05491897907837        5.73689959916942       -0.00014149772877
H            8.52181560759867        5.73156750332848       -0.00002570614907
H            9.75192914254230        3.59321824919409        0.00009067173562
H            8.50349305256445        1.45457328709083        0.00009933774238
H            2.28906589586490        2.12984675163366       -0.00010907319623
H           -0.19440872906765        2.13512644987328       -0.00011494476751
H           -0.64440220895358        0.00000534275054        2.39206031267047
H           -1.80668456741643        0.00002770422252        4.54227221714930
H           -4.28498497855103        0.00003593474293        4.61678738306449
H           -5.55770866358657        0.00002109666434        2.50666205229926
H           -4.31372459399010       -2.85846244132776        0.00001744299270
H           -6.17622948681331       -4.48778458901814        0.00008564472662
H           -8.50601663799803       -3.71870387820248        0.00012750865329
H           -9.03473629323706       -1.30653573393012        0.00009789074043
H           -9.03472257375399        1.30657021026305        0.00004589601305
H           -8.50597800471841        3.71873279012645       -0.00000033953318
H           -6.17618289857258        4.48778946691557       -0.00005416221979
H           -4.31369481328528        2.85844803744771       -0.00006252465914
H           -5.55773238144829       -0.00002970487489       -2.50666935301178
H           -4.28502676305545       -0.00005478261634       -4.61680640841392
H           -1.80672598916759       -0.00006316038823       -4.54231331082216
H           -0.64442422627466       -0.00004653147004       -2.39211104143980
H           -0.19439822954854       -2.13515301662935        0.00006959524904
H            2.28907655920138       -2.12986103840546        0.00006880558146
H            8.50350364498395       -1.45454195768730        0.00003177396182
H            9.75195705925358       -3.59317676487995        0.00002073657166

          :  Hamiltonian                  GFN2-xTB          :
         :: gradient norm              0.000041308425 Eh/a0 ::
         :: HOMO-LUMO gap              1.412396017131 eV    ::
         :: SCC energy              -127.928598546792 Eh    ::
         :: -> dispersion             -0.115794223332 Eh    ::
         :: -> Gsolv                  -0.055677172809 Eh    ::
         :: repulsion energy           2.333272776646 Eh    ::

    * Orbital Energies and Occupations

         #    Occupation            Energy/Eh            Energy/eV
      -------------------------------------------------------------
         1        2.0000           -0.6935583             -18.8727
       ...           ...                  ...                  ...
       105        2.0000           -0.4168042             -11.3418
       106        2.0000           -0.4146386             -11.2829
       107        2.0000           -0.4140765             -11.2676
       108        2.0000           -0.4122068             -11.2167
       109        2.0000           -0.4097873             -11.1509
       110        2.0000           -0.4070662             -11.0768
       111        2.0000           -0.3975589             -10.8181
       112        2.0000           -0.3951678             -10.7531
       113        2.0000           -0.3930609             -10.6957
       114        2.0000           -0.3835871             -10.4379
       115        2.0000           -0.3830074             -10.4222
       116        2.0000           -0.3788144             -10.3081
       117        2.0000           -0.3499002              -9.5213 (HOMO)
       118                         -0.2979956              -8.1089 (LUMO)
       119                         -0.2955364              -8.0420
       120                         -0.2544490              -6.9239
       121                         -0.2513043              -6.8383
       122                         -0.2449430              -6.6652
       123                         -0.2347045              -6.3866
       124                         -0.2346922              -6.3863
       125                         -0.2315294              -6.3002
       126                         -0.2244474              -6.1075
       127                         -0.2235800              -6.0839
       128                         -0.2224586              -6.0534
       ...                                ...                  ...
       230                          0.7287787              19.8311
      -------------------------------------------------------------
                  HL-Gap            0.0519046 Eh            1.4124 eV

     #   Z          covCN         q      C6AA      α(0)
     1   6 C        2.920    -0.022    28.545     8.761
     2   6 C        2.918    -0.027    28.674     8.781
     3   6 C        2.923    -0.026    28.644     8.777
     4   6 C        2.983    -0.010    28.250     8.719
     5   6 C        2.979     0.216    23.439     7.942
     6   7 N        1.844    -0.319    29.132     7.999
     7   6 C        2.979     0.216    23.439     7.942
     8   6 C        2.983    -0.010    28.250     8.719
     9   6 C        2.923    -0.026    28.644     8.777
    10   6 C        2.918    -0.027    28.674     8.781
    11   6 C        2.920    -0.022    28.545     8.761
    12   6 C        2.918    -0.027    28.673     8.781
    13   6 C        2.924    -0.026    28.641     8.776
    14   7 N        1.844    -0.320    29.159     8.003
    15   6 C        2.981     0.216    23.445     7.942
    16   6 C        2.983    -0.008    28.223     8.714
    17   6 C        2.923    -0.024    28.613     8.772
    18   6 C        2.920    -0.035    28.883     8.813
    19   6 C        2.927     0.077    26.289     8.408
    20   7 N        2.753    -0.071    22.616     7.063
    21   6 C        2.925     0.059    26.679     8.471
    22   6 C        2.924    -0.059    29.464     8.902
    23   6 C        2.919    -0.033    28.828     8.805
    24   6 C        2.917    -0.044    29.092     8.845
    25   6 C        2.926    -0.036    28.886     8.814
    26   6 C        2.982    -0.008    28.214     8.713
    27   6 C        3.949     0.012    20.308     6.403
    28   6 C        3.057     0.002    27.933     8.667
    29   6 C        2.914    -0.034    28.838     8.806
    30   6 C        2.922    -0.033    28.818     8.803
    31   6 C        2.921    -0.034    28.835     8.806
    32   6 C        2.914    -0.035    28.879     8.812
    33   6 C        3.034     0.000    27.988     8.678
    34   6 C        3.034     0.000    27.988     8.678
    35   6 C        2.914    -0.035    28.879     8.812
    36   6 C        2.921    -0.034    28.835     8.806
    37   6 C        2.922    -0.033    28.818     8.803
    38   6 C        2.914    -0.034    28.838     8.806
    39   6 C        3.057     0.002    27.933     8.667
    40   6 C        2.982    -0.008    28.214     8.713
    41   6 C        2.926    -0.036    28.886     8.814
    42   6 C        2.917    -0.044    29.092     8.845
    43   6 C        2.919    -0.033    28.828     8.805
    44   6 C        2.924    -0.059    29.464     8.902
    45   6 C        2.925     0.059    26.679     8.471
    46   6 C        2.920    -0.035    28.883     8.813
    47   6 C        2.923    -0.024    28.613     8.772
    48   7 N        1.844    -0.320    29.159     8.003
    49   6 C        2.924    -0.026    28.641     8.776
    50   6 C        2.918    -0.027    28.673     8.781
    51   1 H        0.926     0.050     2.317     2.380
    52   1 H        0.926     0.048     2.345     2.395
    53   1 H        0.926     0.051     2.309     2.376
    54   1 H        0.926     0.051     2.309     2.376
    55   1 H        0.926     0.048     2.345     2.395
    56   1 H        0.926     0.050     2.317     2.380
    57   1 H        0.926     0.048     2.345     2.395
    58   1 H        0.926     0.051     2.306     2.375
    59   1 H        0.926     0.061     2.188     2.313
    60   1 H        0.926     0.056     2.251     2.346
    61   1 H        0.926     0.026     2.651     2.546
    62   1 H        0.926     0.031     2.566     2.505
    63   1 H        0.926     0.030     2.590     2.517
    64   1 H        0.926     0.028     2.614     2.528
    65   1 H        0.926     0.025     2.655     2.548
    66   1 H        0.926     0.032     2.559     2.502
    67   1 H        0.926     0.032     2.556     2.500
    68   1 H        0.926     0.033     2.548     2.496
    69   1 H        0.926     0.033     2.548     2.496
    70   1 H        0.926     0.032     2.556     2.500
    71   1 H        0.926     0.032     2.559     2.502
    72   1 H        0.926     0.025     2.655     2.548
    73   1 H        0.926     0.028     2.614     2.528
    74   1 H        0.926     0.030     2.590     2.517
    75   1 H        0.926     0.031     2.566     2.505
    76   1 H        0.926     0.026     2.651     2.546
    77   1 H        0.926     0.056     2.251     2.346
    78   1 H        0.926     0.061     2.188     2.313
    79   1 H        0.926     0.051     2.306     2.375
    80   1 H        0.926     0.048     2.345     2.395

molecular dipole:
                 x           y           z       tot (Debye)
 q only:        0.832      -0.000      -0.000
   full:        0.850      -0.000      -0.000       2.160

 projected vibrational frequencies (cm⁻¹)
eigval :       -0.00    -0.00    -0.00     0.00     0.00     0.00
eigval :      -22.45   -16.18   -12.05     5.15    10.09    14.37
eigval :       22.19    41.86    42.27    51.25    51.26    56.22
eigval :       69.99    82.33    85.48    91.93   107.39   111.11
eigval :      139.02   147.08   160.52   162.37   179.61   180.57
eigval :      208.05   236.54   237.68   242.38   252.36   258.93
eigval :      279.29   292.15   294.84   319.72   361.77   362.74
eigval :      363.33   375.53   380.74   384.02   399.65   400.76
eigval :      401.58   414.08   416.36   422.47   437.89   438.68
eigval :      459.22   459.40   460.57   498.25   500.20   503.94
eigval :      511.91   539.55   554.46   587.20   587.25   587.58
eigval :      588.76   601.08   602.54   606.51   606.87   616.23
eigval :      626.88   629.88   633.12   652.87   661.79   670.85
eigval :      673.34   679.72   682.48   685.83   712.30   727.10
eigval :      729.74   751.65   754.05   769.56   772.33   775.46
eigval :      777.72   786.23   795.12   824.88   845.38   846.72
eigval :      867.01   867.74   870.17   874.76   876.44   878.78
eigval :      880.28   892.11   899.08   909.22   910.11   910.76
eigval :      912.25   912.85   918.34   919.56   920.55   920.94
eigval :      921.28   925.09   927.01   927.86   928.13   929.73
eigval :      930.61   934.63   934.70   949.11   974.26   989.25
eigval :     1005.39  1013.18  1048.16  1072.99  1073.80  1074.15
eigval :     1077.54  1086.68  1087.78  1105.76  1106.73  1107.02
eigval :     1110.82  1119.55  1125.01  1139.72  1141.15  1161.56
eigval :     1165.07  1176.22  1176.58  1177.03  1177.31  1180.00
eigval :     1182.33  1182.35  1185.28  1192.40  1201.12  1203.30
eigval :     1205.54  1208.89  1231.42  1233.31  1244.28  1251.61
eigval :     1258.67  1265.91  1267.23  1268.56  1272.40  1282.97
eigval :     1313.28  1313.99  1324.91  1325.01  1326.63  1327.82
eigval :     1333.53  1336.26  1365.63  1366.66  1369.10  1374.44
eigval :     1401.57  1428.07  1428.40  1429.11  1430.37  1435.68
eigval :     1436.99  1460.15  1462.55  1469.05  1470.03  1479.56
eigval :     1480.52  1494.64  1507.46  1511.00  1565.76  1572.47
eigval :     1580.91  1582.43  1584.96  1586.21  1587.72  1589.20
eigval :     1592.12  1592.84  1595.41  1599.94  1602.12  1603.50
eigval :     3067.82  3068.22  3071.50  3072.10  3074.57  3074.64
eigval :     3077.39  3077.46  3078.32  3078.54  3078.77  3079.70
eigval :     3082.33  3082.45  3086.80  3088.73  3088.81  3089.34
eigval :     3089.93  3090.50  3091.71  3091.93  3096.43  3097.58
eigval :     3103.85  3104.66  3105.26  3106.21  3109.24  3110.35

   temp. (K)  partition function   enthalpy   heat capacity  entropy
                                   cal/mol     cal/K/mol   cal/K/mol   J/K/mol
 298.15  VIB  0.696E+19            22385.248    141.254    141.362
         ROT  0.546E+08              888.752      2.981     38.386
         INT  0.380E+27            23274.001    144.235    179.748
         TR   0.156E+29             1481.254      4.968     45.225
         TOT                       24755.2547   149.2028   224.9732   941.2880

       T/K    H(0)-H(T)+PV         H(T)/Eh          T*S/Eh         G(T)/Eh
   ------------------------------------------------------------------------
    298.15    0.394500E-01    0.649705E+00    0.106892E+00    0.542813E+00
   ------------------------------------------------------------------------

         :::::::::::::::::::::::::::::::::::::::::::::::::::::
         ::                  THERMODYNAMIC                  ::
         :::::::::::::::::::::::::::::::::::::::::::::::::::::
         :: total free energy        -125.052512862801 Eh   ::
         ::.................................................::
         :: total energy             -125.595325770146 Eh   ::
         :: zero point energy           0.610254941892 Eh   ::
         :: G(RRHO) w/o ZPVE           -0.067442034547 Eh   ::
         :: G(RRHO) contrib.            0.542812907345 Eh   ::
         :::::::::::::::::::::::::::::::::::::::::::::::::::::

           -------------------------------------------------
          | TOTAL ENERGY             -125.595325770146 Eh   |
          | TOTAL ENTHALPY           -124.945620818805 Eh   |
          | TOTAL FREE ENERGY        -125.052512862801 Eh   |
          | GRADIENT NORM               0.000041307830 Eh/α |
          | HOMO-LUMO GAP               1.412396114730 eV   |
           -------------------------------------------------

 * finished run on 2025/07/16 at 23:45:39.218
