   * xtb version 6.7.1 (edcfbbe) compiled by 'albert@albert-system' on 2024-07-22

   ID    Z sym.   atoms
    1    6 C      1-5, 7-13, 15-19, 21-47, 49, 50
    2    7 N      6, 14, 20, 48
    3    1 H      51-80

          program call               : xtb data2507/toluene/SpiroAC-TRZ/SpiroAC-TRZ_toluene_S0_finalOpt.xtbopt.xyz --gfn 2 --uhf 2 --gbsa toluene --ohess vtight --parallel 40 --molden --ceasefiles --namespace data2507/toluene/SpiroAC-TRZ/SpiroAC-TRZ_toluene_T1_preOpt
      * Solvation model:               GBSA
        Solvent                        toluene
        Solvent mass                       9.2140E+01 g/mol
          :  Hamiltonian                  GFN2-xTB          :
 * total energy  :  -125.5170078 Eh     change       -0.1115878E-06 Eh
 * total energy  :  -125.5191257 Eh     change       -0.2117914E-02 Eh
 * total energy  :  -125.5201904 Eh     change       -0.1064629E-02 Eh
 * total energy  :  -125.5203628 Eh     change       -0.1724879E-03 Eh
 * total energy  :  -125.5205222 Eh     change       -0.1593128E-03 Eh
 * total energy  :  -125.5205499 Eh     change       -0.2772283E-04 Eh
 * total energy  :  -125.5205617 Eh     change       -0.1178349E-04 Eh
 * total energy  :  -125.5205656 Eh     change       -0.3971349E-05 Eh
 * total energy  :  -125.5205702 Eh     change       -0.4570298E-05 Eh
 * total energy  :  -125.5205745 Eh     change       -0.4279932E-05 Eh
 * total energy  :  -125.5206265 Eh     change       -0.1785850E-06 Eh
 * total energy  :  -125.5206269 Eh     change       -0.3964935E-06 Eh
 * total energy  :  -125.5206271 Eh     change       -0.2216452E-06 Eh
 * total energy  :  -125.5206273 Eh     change       -0.2264251E-06 Eh
 * total energy  :  -125.5206275 Eh     change       -0.1349124E-06 Eh
 * total energy  :  -125.5206276 Eh     change       -0.1165790E-06 Eh
 * total energy  :  -125.5206277 Eh     change       -0.1295749E-06 Eh
 * total energy  :  -125.5206278 Eh     change       -0.1109909E-06 Eh
 * total energy  :  -125.5206279 Eh     change       -0.8617067E-07 Eh
   *** GEOMETRY OPTIMIZATION CONVERGED AFTER 52 ITERATIONS ***

 final structure:
================
80
 xtb: 6.7.1 (edcfbbe)
C            7.95015541226107       -4.80728578444718        0.39821470243285
C            6.56443348770115       -4.82431110027771        0.32397233861567
C            5.85916875835276       -3.64145356652732        0.23228353839540
C            6.53422410959702       -2.41937459464595        0.21204498600435
C            5.79445690776974       -1.16514086247862        0.11311038680204
N            6.50531872711393       -0.02248478412645        0.01365969504622
C            5.78580056493989        1.11542852560557       -0.08049488859921
C            6.51546714628593        2.37481428691815       -0.18623707714589
C            5.83076607773221        3.59156593245073       -0.20754099705050
C            6.52631874143369        4.77961294298951       -0.30564084501488
C            7.91185656260041        4.77324973913432       -0.38523671612392
C            8.59930184241305        3.56891413803576       -0.36526316458641
C            7.90919797051793        2.37687653474936       -0.26611709380566
N            4.47730143675066        1.14388580590588       -0.08396120736694
C            3.80700998319486       -0.03181825802337        0.02434934910914
C            2.38855156479141       -0.03618698352284        0.02852475891167
C            1.65758431024584        1.16692341864607       -0.09392828276077
C            0.28709139427441        1.16136388759343       -0.09459744842557
C           -0.41184816709725       -0.04443751359728        0.02728266874742
N           -1.83566715191950       -0.04624279974977        0.02078513521381
C           -2.51025290567336        0.33350752639964        1.16203737500554
C           -1.79618096713450        0.66466931823753        2.32382320612376
C           -2.45632001125470        1.05075963844055        3.46857350830755
C           -3.84394456721860        1.11419183172602        3.48872713724073
C           -4.55749404536729        0.77526056142329        2.35434123760684
C           -3.91303694300805        0.38120938600833        1.19045636902409
C           -4.73844747218237        0.01140143412636       -0.01114851750456
C           -5.77376701909413       -1.04192414704435        0.35357503568584
C           -5.55628893238176       -2.32409648946709        0.80668993056530
C           -6.65889916036331       -3.12241259795204        1.08480361210316
C           -7.94712737059711       -2.63975078292882        0.91006592997927
C           -8.16841878814925       -1.34963342551070        0.45370133099852
C           -7.07338266152917       -0.54804321866794        0.17472641430123
C           -6.98699405558557        0.82262716121846       -0.30744819614540
C           -7.97351731745312        1.73796458746524       -0.63680301736337
C           -7.59158578171458        2.99566130878385       -1.07704930159112
C           -6.25158068317900        3.33529853245230       -1.18707374506769
C           -5.25715958224238        2.42180623169053       -0.86002232042337
C           -5.63460053231323        1.17204993848522       -0.42198767728127
C           -3.90290505584989       -0.43604052276721       -1.17899417681070
C           -4.53770804608133       -0.83884223353722       -2.34521151198647
C           -3.81464318059799       -1.22675284674539       -3.45760690279245
C           -2.42641877333786       -1.20145468355291       -3.41389208441400
C           -1.77561642493260       -0.80653495248488       -2.26679505653999
C           -2.49993542293657       -0.42916331156520       -1.12555427555259
C            0.29404895306415       -1.24588996653218        0.15295369987883
C            1.66460624348870       -1.24332625277989        0.15368722011287
N            4.48625260373004       -1.20312262856782        0.12714560170935
C            7.92820918016002       -2.41070101105078        0.28614812007889
C            8.62805969610283       -3.59754894262476        0.37910488769669
H            8.49945812251804       -5.73441345012060        0.46997640549254
H            6.03494288456865       -5.76602764734191        0.33783682424556
H            4.78133787378420       -3.63883784254658        0.17286094547530
H            4.75322705983927        3.58066661424521       -0.14390538040523
H            5.98936628075692        5.71708567700679       -0.32040089946102
H            8.45353220634830        5.70444398846996       -0.46204428769799
H            9.67798247173703        3.56144737244324       -0.42764278261113
H            8.42935234657837        1.43119266866441       -0.25061633437203
H            2.20857033979732        2.08937229949786       -0.19266129540794
H           -0.26655771057438        2.08405874484547       -0.19368969463619
H           -0.71907245030328        0.60995167549922        2.31472086948040
H           -1.88770791911188        1.30191283170173        4.35099167979355
H           -4.36290132630344        1.41897392152888        4.38411211259443
H           -5.63666746172883        0.81210413154480        2.36399634776884
H           -4.55396832326247       -2.70282182555716        0.94461312527667
H           -6.50962063659143       -4.13095555840590        1.44136458058793
H           -8.78920031603882       -3.27872314198717        1.13315815100329
H           -9.17328822822838       -0.97823367593920        0.31925450733240
H           -9.01811712721363        1.47835997273787       -0.55257343582675
H           -8.34759855770460        3.72193370941900       -1.33800450354351
H           -5.97625123674506        4.32112629259629       -1.53193953776681
H           -4.21424646429874        2.68896215343972       -0.94980365400451
H           -5.61700009587275       -0.84249122133622       -2.37480435152093
H           -4.32651609124750       -1.53815377073282       -4.35480990196792
H           -1.84985348349782       -1.48914503489906       -4.27982492428233
H           -0.69775600974170       -0.78163994888648       -2.24049226758639
H           -0.25440779303908       -2.17161674961744        0.25284650466773
H            2.22095081819084       -2.16239274135467        0.25393832319876
H            8.44084072208101       -1.46090322624526        0.27120839651840
H            9.70689307220067       -3.58179429445006        0.43706967080654

          :  Hamiltonian                  GFN2-xTB          :
         :: gradient norm              0.000082304276 Eh/a0 ::
         :: HOMO-LUMO gap              0.175202273755 eV    ::
         :: SCC energy              -127.845265915411 Eh    ::
         :: -> dispersion             -0.115579592562 Eh    ::
         :: -> Gsolv                  -0.060965404252 Eh    ::
         :: repulsion energy           2.324638013982 Eh    ::

    * Orbital Energies and Occupations

         #    Occupation            Energy/Eh            Energy/eV
      -------------------------------------------------------------
         1        2.0000           -0.6899910             -18.7756
       ...           ...                  ...                  ...
       106        2.0000           -0.4079435             -11.1007
       107        2.0000           -0.4078851             -11.0991
       108        2.0000           -0.4077364             -11.0951
       109        2.0000           -0.4077102             -11.0944
       110        2.0000           -0.4052696             -11.0279
       111        2.0000           -0.4024998             -10.9526
       112        2.0000           -0.4017204             -10.9314
       113        2.0000           -0.3951317             -10.7521
       114        2.0000           -0.3868540             -10.5268
       115        1.8817           -0.3682517             -10.0206
       116        1.7618           -0.3674481              -9.9988
       117        1.3566           -0.3657831              -9.9535
       118        0.9673           -0.2825813              -7.6894 (HOMO)
       119        0.0327           -0.2761426              -7.5142 (LUMO)
       120                         -0.2588439              -7.0435
       121                         -0.2487950              -6.7701
       122                         -0.2420600              -6.5868
       123                         -0.2388857              -6.5004
       124                         -0.2376382              -6.4665
       125                         -0.2322359              -6.3195
       126                         -0.2248752              -6.1192
       127                         -0.2248337              -6.1180
       128                         -0.2247664              -6.1162
       129                         -0.2228007              -6.0627
       ...                                ...                  ...
       230                          0.7215448              19.6342
      -------------------------------------------------------------
                  HL-Gap            0.0064387 Eh            0.1752 eV

     #   Z          covCN         q      C6AA      α(0)
     1   6 C        2.920    -0.030    28.753     8.793
     2   6 C        2.918    -0.031    28.763     8.795
     3   6 C        2.923    -0.031    28.776     8.797
     4   6 C        2.983    -0.010    28.260     8.720
     5   6 C        2.933     0.209    23.577     7.963
     6   7 N        1.843    -0.346    29.839     8.095
     7   6 C        2.933     0.209    23.580     7.964
     8   6 C        2.983    -0.010    28.260     8.720
     9   6 C        2.923    -0.031    28.777     8.797
    10   6 C        2.918    -0.031    28.763     8.795
    11   6 C        2.920    -0.030    28.754     8.793
    12   6 C        2.917    -0.030    28.759     8.794
    13   6 C        2.924    -0.030    28.761     8.795
    14   7 N        1.845    -0.301    28.649     7.933
    15   6 C        2.935     0.168    24.388     8.099
    16   6 C        2.976    -0.020    28.495     8.756
    17   6 C        2.922    -0.042    29.037     8.837
    18   6 C        2.914    -0.041    29.016     8.833
    19   6 C        2.929     0.032    27.276     8.565
    20   7 N        2.753    -0.011    21.463     6.881
    21   6 C        2.928     0.062    26.612     8.460
    22   6 C        2.922    -0.045    29.126     8.850
    23   6 C        2.918    -0.026    28.649     8.777
    24   6 C        2.917    -0.029    28.715     8.787
    25   6 C        2.923    -0.031    28.771     8.796
    26   6 C        2.982     0.004    27.920     8.668
    27   6 C        3.948     0.014    20.281     6.399
    28   6 C        3.056     0.003    27.896     8.662
    29   6 C        2.913    -0.032    28.805     8.801
    30   6 C        2.923    -0.030    28.760     8.795
    31   6 C        2.921    -0.031    28.768     8.796
    32   6 C        2.915    -0.033    28.821     8.803
    33   6 C        3.032     0.003    27.922     8.667
    34   6 C        3.032     0.003    27.919     8.667
    35   6 C        2.915    -0.033    28.818     8.803
    36   6 C        2.921    -0.031    28.769     8.796
    37   6 C        2.923    -0.030    28.761     8.795
    38   6 C        2.913    -0.032    28.810     8.802
    39   6 C        3.057     0.004    27.890     8.661
    40   6 C        2.982     0.004    27.920     8.668
    41   6 C        2.923    -0.031    28.772     8.796
    42   6 C        2.917    -0.029    28.715     8.787
    43   6 C        2.918    -0.026    28.649     8.777
    44   6 C        2.922    -0.046    29.130     8.851
    45   6 C        2.928     0.062    26.612     8.460
    46   6 C        2.914    -0.041    29.020     8.834
    47   6 C        2.921    -0.042    29.039     8.837
    48   7 N        1.845    -0.301    28.657     7.934
    49   6 C        2.924    -0.030    28.760     8.795
    50   6 C        2.917    -0.030    28.759     8.794
    51   1 H        0.926     0.041     2.440     2.443
    52   1 H        0.926     0.039     2.455     2.450
    53   1 H        0.926     0.041     2.440     2.443
    54   1 H        0.926     0.041     2.441     2.443
    55   1 H        0.926     0.039     2.456     2.451
    56   1 H        0.926     0.041     2.440     2.443
    57   1 H        0.926     0.039     2.468     2.457
    58   1 H        0.926     0.041     2.438     2.442
    59   1 H        0.926     0.037     2.485     2.465
    60   1 H        0.926     0.036     2.496     2.471
    61   1 H        0.926     0.047     2.363     2.404
    62   1 H        0.926     0.047     2.357     2.401
    63   1 H        0.926     0.048     2.345     2.395
    64   1 H        0.926     0.045     2.379     2.412
    65   1 H        0.926     0.030     2.592     2.518
    66   1 H        0.926     0.037     2.496     2.470
    67   1 H        0.926     0.037     2.489     2.467
    68   1 H        0.926     0.039     2.464     2.455
    69   1 H        0.926     0.039     2.460     2.452
    70   1 H        0.926     0.037     2.487     2.466
    71   1 H        0.926     0.036     2.496     2.471
    72   1 H        0.926     0.029     2.599     2.521
    73   1 H        0.926     0.045     2.379     2.412
    74   1 H        0.926     0.048     2.345     2.395
    75   1 H        0.926     0.047     2.357     2.401
    76   1 H        0.926     0.047     2.360     2.403
    77   1 H        0.926     0.037     2.489     2.467
    78   1 H        0.926     0.037     2.486     2.465
    79   1 H        0.926     0.041     2.437     2.441
    80   1 H        0.926     0.039     2.468     2.457

molecular dipole:
                 x           y           z       tot (Debye)
 q only:       -4.750       0.005      -0.011
   full:       -4.596       0.007      -0.012      11.683

 projected vibrational frequencies (cm⁻¹)
eigval :       -0.00    -0.00    -0.00     0.00     0.00     0.00
eigval :        5.70    10.57    17.06    25.02    38.06    40.09
eigval :       41.78    44.26    51.83    53.62    54.65    59.44
eigval :       73.25    84.51    94.44   106.60   110.23   111.60
eigval :      139.71   143.00   160.17   163.62   180.36   199.82
eigval :      220.61   234.78   236.78   240.94   244.56   250.89
eigval :      273.02   290.96   292.08   323.84   355.62   370.16
eigval :      370.81   372.28   376.56   387.59   394.38   396.63
eigval :      399.98   410.40   412.67   422.60   424.33   433.19
eigval :      445.26   455.17   457.40   481.65   501.41   501.67
eigval :      525.59   537.68   551.27   557.19   567.45   571.77
eigval :      586.05   586.68   588.73   590.24   598.42   600.04
eigval :      604.04   608.88   615.94   647.02   654.83   662.43
eigval :      665.73   666.75   673.92   678.49   689.55   692.22
eigval :      693.86   717.00   729.13   752.79   762.48   762.89
eigval :      763.75   770.71   776.82   780.83   793.65   806.86
eigval :      807.78   836.63   866.51   869.92   871.69   872.55
eigval :      875.62   876.04   888.55   890.32   896.11   897.58
eigval :      898.97   903.78   908.41   908.84   909.43   914.07
eigval :      916.51   917.54   921.50   923.57   923.85   925.27
eigval :      926.05   926.34   926.73   926.77   943.09   954.94
eigval :      983.83   991.37   992.72  1000.34  1058.75  1072.62
eigval :     1073.20  1075.07  1077.47  1084.89  1099.03  1099.74
eigval :     1107.37  1109.21  1118.99  1124.87  1136.60  1140.14
eigval :     1140.30  1156.66  1165.75  1171.06  1174.11  1176.30
eigval :     1177.25  1177.91  1179.52  1182.24  1183.81  1187.08
eigval :     1196.27  1199.97  1223.99  1230.68  1234.92  1238.35
eigval :     1250.39  1254.22  1255.79  1267.39  1269.43  1272.72
eigval :     1274.85  1280.76  1301.62  1303.40  1322.29  1324.91
eigval :     1329.39  1330.26  1330.62  1335.59  1354.21  1364.31
eigval :     1396.27  1398.09  1411.94  1421.37  1424.60  1425.89
eigval :     1430.17  1433.58  1435.42  1449.89  1456.64  1462.90
eigval :     1465.62  1468.06  1468.92  1480.73  1485.58  1545.70
eigval :     1557.14  1562.67  1568.46  1569.66  1573.10  1582.03
eigval :     1583.50  1585.25  1592.83  1594.28  1597.79  1599.60
eigval :     3070.77  3071.10  3072.65  3072.93  3073.18  3073.79
eigval :     3074.31  3074.85  3076.51  3077.01  3084.15  3085.24
eigval :     3085.76  3086.17  3087.38  3087.77  3090.13  3090.43
eigval :     3091.46  3093.46  3093.94  3094.08  3094.32  3096.03
eigval :     3096.35  3098.03  3101.87  3102.53  3109.25  3110.82

   temp. (K)  partition function   enthalpy   heat capacity  entropy
                                   cal/mol     cal/K/mol   cal/K/mol   J/K/mol
 298.15  VIB  0.220E+19            23059.885    146.144    144.533
         ROT  0.110E+09              888.752      2.981     39.770
         INT  0.241E+27            23948.637    149.125    184.303
         TR   0.156E+29             1481.254      4.968     45.225
         TOT                       25429.8908   154.0927   229.5278   960.3444

       T/K    H(0)-H(T)+PV         H(T)/Eh          T*S/Eh         G(T)/Eh
   ------------------------------------------------------------------------
    298.15    0.405251E-01    0.645727E+00    0.109056E+00    0.536671E+00
   ------------------------------------------------------------------------

         :::::::::::::::::::::::::::::::::::::::::::::::::::::
         ::                  THERMODYNAMIC                  ::
         :::::::::::::::::::::::::::::::::::::::::::::::::::::
         :: total free energy        -124.983957381817 Eh   ::
         ::.................................................::
         :: total energy             -125.520627896378 Eh   ::
         :: zero point energy           0.605201476692 Eh   ::
         :: G(RRHO) w/o ZPVE           -0.068530962131 Eh   ::
         :: G(RRHO) contrib.            0.536670514561 Eh   ::
         :::::::::::::::::::::::::::::::::::::::::::::::::::::

           -------------------------------------------------
          | TOTAL ENERGY             -125.520627896378 Eh   |
          | TOTAL ENTHALPY           -124.874901309131 Eh   |
          | TOTAL FREE ENERGY        -124.983957381817 Eh   |
          | GRADIENT NORM               0.000077953192 Eh/α |
          | HOMO-LUMO GAP               0.175206617648 eV   |
           -------------------------------------------------

 * finished run on 2025/07/16 at 23:49:24.288
