   * xtb version 6.7.1 (edcfbbe) compiled by 'albert@albert-system' on 2024-07-22

   ID    Z sym.   atoms
    1    6 C      1-5, 7-13, 15-19, 21-47, 49, 50
    2    7 N      6, 14, 20, 48
    3    1 H      51-80

          program call               : xtb data2507/toluene/SpiroAC-TRZ/SpiroAC-TRZ_toluene_T1_crest.xyz --gfn 2 --uhf 2 --gbsa toluene --ohess vtight --parallel 40 --molden --ceasefiles --namespace data2507/toluene/SpiroAC-TRZ/SpiroAC-TRZ_toluene_T1_finalOpt
      * Solvation model:               GBSA
        Solvent                        toluene
        Solvent mass                       9.2140E+01 g/mol
          :  Hamiltonian                  GFN2-xTB          :
 * total energy  :  -125.5204353 Eh     change       -0.6532858E-08 Eh
 * total energy  :  -125.5205752 Eh     change       -0.1399179E-03 Eh
 * total energy  :  -125.5206183 Eh     change       -0.4312932E-04 Eh
 * total energy  :  -125.5206214 Eh     change       -0.3017504E-05 Eh
 * total energy  :  -125.5206232 Eh     change       -0.1803530E-05 Eh
 * total energy  :  -125.5206249 Eh     change       -0.1761034E-05 Eh
 * total energy  :  -125.5206263 Eh     change       -0.1367621E-05 Eh
 * total energy  :  -125.5206278 Eh     change       -0.1468925E-05 Eh
 * total energy  :  -125.5206299 Eh     change       -0.2090757E-05 Eh
 * total energy  :  -125.5206325 Eh     change       -0.2677514E-05 Eh
 * total energy  :  -125.5206884 Eh     change       -0.3906691E-06 Eh
 * total energy  :  -125.5206888 Eh     change       -0.4794206E-06 Eh
 * total energy  :  -125.5206894 Eh     change       -0.5127329E-06 Eh
 * total energy  :  -125.5206899 Eh     change       -0.5192269E-06 Eh
 * total energy  :  -125.5206903 Eh     change       -0.3992284E-06 Eh
 * total energy  :  -125.5206907 Eh     change       -0.4083106E-06 Eh
 * total energy  :  -125.5206912 Eh     change       -0.5417012E-06 Eh
 * total energy  :  -125.5206920 Eh     change       -0.7924365E-06 Eh
 * total energy  :  -125.5206920 Eh     change       -0.1193983E-07 Eh
   *** GEOMETRY OPTIMIZATION CONVERGED AFTER 68 ITERATIONS ***

 final structure:
================
80
 xtb: 6.7.1 (edcfbbe)
C            7.96622340781152       -4.78200788320930        0.25217374786026
C            6.58040028971479       -4.80141588053071        0.17976287507335
C            5.87164719508759       -3.61889086863192        0.11650466631801
C            6.54303121609773       -2.39450117336796        0.12347995062086
C            5.79898530053331       -1.14106447579785        0.05700201511650
N            6.50494596080771        0.00774878830006       -0.00271028449280
C            5.78062837723862        1.14473126769689       -0.06209582001184
C            6.50491155444420        2.41006195674295       -0.12704972435885
C            5.81465562367388        3.62385332009774       -0.12176635717802
C            6.50531109524638        4.81720350000131       -0.18280497745270
C            7.89144185184858        4.81926812757306       -0.25134038305340
C            8.58439978373336        3.61794149685426       -0.25758096460102
C            7.89919981255624        2.42061577133632       -0.19547065101939
N            4.47198102659318        1.16771489902031       -0.06575582694044
C            3.80641149812022       -0.01419710828273       -0.00264366747318
C            2.38786427618122       -0.02517747641728       -0.00197782671239
C            1.65208740900346        1.17904158314159       -0.06818427647452
C            0.28140875845654        1.16776570144192       -0.06528327867869
C           -0.41152736821957       -0.04516084249619        0.00130392826079
N           -1.83648598937727       -0.05200158165745        0.00517440868216
C           -2.50159031010936        0.16759180375980        1.19239884538882
C           -1.77666809587109        0.35620550058294        2.37897304035598
C           -2.42727709694534        0.58185184608777        3.57103127384576
C           -3.81529220304018        0.62279370937586        3.61372398593478
C           -4.53885913080533        0.42795380313624        2.45206985032808
C           -3.90426888768485        0.19784047518292        1.23983796034316
C           -4.73866608330258       -0.00937818686675        0.00559341450719
C           -5.75892843608155       -1.11624137942636        0.22494972534177
C           -5.52224349517145       -2.44850990359712        0.48044984070659
C           -6.61285858626142       -3.29236258088686        0.65018457032202
C           -7.90805874148166       -2.80424907317737        0.56490536321899
C           -8.14851739952343       -1.46383266749534        0.30568760396854
C           -7.06552345491956       -0.61676979525487        0.13476872755450
C           -6.99857192480342        0.81030725558617       -0.14443797873830
C           -7.99763024312311        1.75318095609775       -0.32447334700142
C           -7.63306277516134        3.06527691044451       -0.58347768512971
C           -6.29791346674015        3.43202705645465       -0.66005479231582
C           -5.29093920373490        2.49175022794469       -0.48073801077034
C           -5.65113692877916        1.18759370744964       -0.22460517377445
C           -3.91155480221622       -0.28264388302333       -1.22052446646384
C           -4.55367657860356       -0.52900151122447       -2.42556370483411
C           -3.83715593413035       -0.76803497748945       -3.58333152356311
C           -2.44851258072949       -0.75256861369338       -3.54476193366993
C           -1.79045539170696       -0.51023985449647       -2.36005655872819
C           -2.50836474927500       -0.28045080073569       -1.17650816663420
C            0.29872704517941       -1.24827211972840        0.06612674454199
C            1.66950832879305       -1.23989310196733        0.06549307035906
N            4.49085149405895       -1.18478066380254        0.06044605357422
C            7.93719699772639       -2.38344184045156        0.19558719060336
C            8.64051781647088       -3.57008806498363        0.25997137912516
H            8.51837202122596       -5.70890350343434        0.30164571281047
H            6.05360649368085       -5.74472497770014        0.17289185865415
H            4.79368807094451       -3.61796901948660        0.05951065652470
H            4.73668185776350        3.60653399627833       -0.06774931176484
H            5.96404770326341        5.75229838730499       -0.17729514593253
H            8.42935081473043        5.75458747396520       -0.29894237551149
H            9.66357973664353        3.61697582492988       -0.31113879786059
H            8.42365943863375        1.47719474553243       -0.20047808940309
H            2.19917648223276        2.10746540998235       -0.12263860031502
H           -0.27630893196786        2.09185392924809       -0.11679181654480
H           -0.69903142477652        0.32042994112907        2.34940438388666
H           -1.85124412557993        0.72530699711094        4.47250854797986
H           -4.32684332997728        0.80123602703829        4.54670702878286
H           -5.61807510035106        0.45272227910394        2.47755042960884
H           -4.51421360720287       -2.83131593253970        0.54758914518989
H           -6.44873727679093       -4.34068997986220        0.85182155985265
H           -8.74049130159862       -3.47916332098987        0.70152123309257
H           -9.15894810303650       -1.08921237495592        0.23907665716752
H           -9.03869784150651        1.47310528709517       -0.26564200818112
H           -8.39913948746424        3.81342260194719       -0.72679577850336
H           -6.03642843226496        4.46031800643717       -0.86216531830298
H           -4.25158795449293        2.78024572954458       -0.54155890864663
H           -5.63324513010268       -0.53164670808358       -2.44838090175384
H           -4.35460888578750       -0.95998383724458       -4.51034850354917
H           -1.87779108940535       -0.92940471986051       -4.44367884663684
H           -0.71226901070495       -0.49439462712131       -2.33394530913553
H           -0.24578760447790       -2.18011426373800        0.11970721004913
H            2.22980697447875       -2.16049554820529        0.11883310156296
H            8.44710014596558       -1.43206750762257        0.20172097577727
H            9.71940008185041       -3.55261503630774        0.31654949402345

          :  Hamiltonian                  GFN2-xTB          :
         :: gradient norm              0.000093682617 Eh/a0 ::
         :: HOMO-LUMO gap              0.173128132170 eV    ::
         :: SCC energy              -127.845624088687 Eh    ::
         :: -> dispersion             -0.115560618008 Eh    ::
         :: -> Gsolv                  -0.060984337229 Eh    ::
         :: repulsion energy           2.324932087515 Eh    ::

    * Orbital Energies and Occupations

         #    Occupation            Energy/Eh            Energy/eV
      -------------------------------------------------------------
         1        2.0000           -0.6899916             -18.7756
       ...           ...                  ...                  ...
       106        2.0000           -0.4079701             -11.1014
       107        2.0000           -0.4078977             -11.0995
       108        2.0000           -0.4077618             -11.0958
       109        2.0000           -0.4077497             -11.0954
       110        2.0000           -0.4052766             -11.0281
       111        2.0000           -0.4025015             -10.9526
       112        2.0000           -0.4017450             -10.9320
       113        2.0000           -0.3949364             -10.7468
       114        2.0000           -0.3868801             -10.5275
       115        1.8826           -0.3684086             -10.0249
       116        1.7596           -0.3675854             -10.0025
       117        1.3578           -0.3659364              -9.9576
       118        0.9660           -0.2826182              -7.6904 (HOMO)
       119        0.0340           -0.2762568              -7.5173 (LUMO)
       120                         -0.2588581              -7.0439
       121                         -0.2487771              -6.7696
       122                         -0.2419898              -6.5849
       123                         -0.2389321              -6.5017
       124                         -0.2376474              -6.4667
       125                         -0.2322437              -6.3197
       126                         -0.2248928              -6.1196
       127                         -0.2248240              -6.1178
       128                         -0.2247723              -6.1164
       129                         -0.2228306              -6.0635
       ...                                ...                  ...
       230                          0.7215754              19.6351
      -------------------------------------------------------------
                  HL-Gap            0.0063614 Eh            0.1731 eV

     #   Z          covCN         q      C6AA      α(0)
     1   6 C        2.920    -0.030    28.754     8.793
     2   6 C        2.918    -0.031    28.763     8.795
     3   6 C        2.923    -0.031    28.778     8.797
     4   6 C        2.983    -0.010    28.260     8.720
     5   6 C        2.933     0.209    23.583     7.964
     6   7 N        1.843    -0.346    29.829     8.094
     7   6 C        2.932     0.209    23.579     7.964
     8   6 C        2.983    -0.010    28.259     8.720
     9   6 C        2.923    -0.031    28.776     8.797
    10   6 C        2.918    -0.031    28.763     8.795
    11   6 C        2.920    -0.030    28.753     8.793
    12   6 C        2.917    -0.030    28.758     8.794
    13   6 C        2.924    -0.030    28.760     8.795
    14   7 N        1.845    -0.301    28.644     7.932
    15   6 C        2.935     0.168    24.389     8.099
    16   6 C        2.976    -0.020    28.500     8.757
    17   6 C        2.922    -0.042    29.036     8.837
    18   6 C        2.914    -0.041    29.019     8.833
    19   6 C        2.929     0.032    27.276     8.565
    20   7 N        2.753    -0.011    21.474     6.882
    21   6 C        2.928     0.062    26.607     8.459
    22   6 C        2.922    -0.045    29.125     8.850
    23   6 C        2.918    -0.026    28.647     8.777
    24   6 C        2.917    -0.029    28.715     8.787
    25   6 C        2.923    -0.031    28.771     8.796
    26   6 C        2.982     0.004    27.921     8.668
    27   6 C        3.948     0.014    20.281     6.399
    28   6 C        3.056     0.003    27.895     8.662
    29   6 C        2.913    -0.032    28.805     8.801
    30   6 C        2.923    -0.030    28.760     8.795
    31   6 C        2.921    -0.031    28.769     8.796
    32   6 C        2.915    -0.033    28.821     8.803
    33   6 C        3.032     0.003    27.922     8.667
    34   6 C        3.032     0.003    27.919     8.667
    35   6 C        2.915    -0.033    28.818     8.803
    36   6 C        2.921    -0.031    28.769     8.796
    37   6 C        2.923    -0.030    28.761     8.795
    38   6 C        2.913    -0.032    28.809     8.801
    39   6 C        3.057     0.004    27.890     8.661
    40   6 C        2.981     0.004    27.922     8.668
    41   6 C        2.923    -0.031    28.771     8.796
    42   6 C        2.917    -0.029    28.715     8.787
    43   6 C        2.918    -0.026    28.647     8.777
    44   6 C        2.922    -0.045    29.127     8.850
    45   6 C        2.928     0.062    26.607     8.459
    46   6 C        2.914    -0.041    29.022     8.834
    47   6 C        2.922    -0.042    29.037     8.837
    48   7 N        1.845    -0.300    28.636     7.931
    49   6 C        2.924    -0.030    28.761     8.795
    50   6 C        2.917    -0.030    28.759     8.794
    51   1 H        0.926     0.041     2.441     2.443
    52   1 H        0.926     0.039     2.456     2.451
    53   1 H        0.926     0.041     2.441     2.443
    54   1 H        0.926     0.041     2.441     2.443
    55   1 H        0.926     0.040     2.455     2.450
    56   1 H        0.926     0.041     2.439     2.442
    57   1 H        0.926     0.039     2.467     2.456
    58   1 H        0.926     0.041     2.437     2.441
    59   1 H        0.926     0.037     2.486     2.466
    60   1 H        0.926     0.036     2.500     2.473
    61   1 H        0.926     0.046     2.367     2.406
    62   1 H        0.926     0.047     2.357     2.401
    63   1 H        0.926     0.048     2.344     2.394
    64   1 H        0.926     0.045     2.379     2.412
    65   1 H        0.926     0.030     2.593     2.518
    66   1 H        0.926     0.037     2.495     2.470
    67   1 H        0.926     0.037     2.489     2.467
    68   1 H        0.926     0.039     2.463     2.454
    69   1 H        0.926     0.039     2.460     2.453
    70   1 H        0.926     0.037     2.487     2.466
    71   1 H        0.926     0.037     2.496     2.470
    72   1 H        0.926     0.029     2.599     2.521
    73   1 H        0.926     0.045     2.379     2.412
    74   1 H        0.926     0.048     2.344     2.394
    75   1 H        0.926     0.047     2.357     2.401
    76   1 H        0.926     0.046     2.365     2.405
    77   1 H        0.926     0.037     2.494     2.470
    78   1 H        0.926     0.037     2.487     2.466
    79   1 H        0.926     0.041     2.438     2.442
    80   1 H        0.926     0.039     2.468     2.457

molecular dipole:
                 x           y           z       tot (Debye)
 q only:       -4.745      -0.012       0.007
   full:       -4.591      -0.010       0.006      11.670

 projected vibrational frequencies (cm⁻¹)
eigval :       -0.00    -0.00     0.00     0.00     0.00     0.00
eigval :      -15.14    10.33    12.42    24.86    41.66    42.32
eigval :       42.68    43.68    51.50    51.64    53.43    53.78
eigval :       73.51    87.72    95.33   106.06   109.88   110.34
eigval :      142.44   144.28   159.41   163.57   180.72   198.48
eigval :      221.31   235.48   236.84   241.09   244.31   250.97
eigval :      273.33   291.02   292.04   323.89   354.41   369.31
eigval :      370.06   371.66   375.37   386.55   394.16   395.49
eigval :      400.23   410.30   412.73   423.20   424.68   432.87
eigval :      445.42   455.61   457.15   481.90   500.72   501.74
eigval :      525.90   539.41   551.43   557.65   566.54   571.69
eigval :      585.41   586.43   588.90   590.15   598.67   600.07
eigval :      604.50   608.01   616.13   647.25   654.28   656.21
eigval :      665.66   666.35   674.68   678.46   689.97   692.25
eigval :      694.28   717.65   729.25   752.94   762.78   763.10
eigval :      767.62   770.16   774.84   784.34   793.63   806.51
eigval :      808.00   837.44   869.13   870.83   871.98   872.55
eigval :      874.98   879.25   888.78   890.00   896.49   897.98
eigval :      899.56   904.27   908.61   910.02   912.03   913.86
eigval :      917.01   917.50   922.75   922.90   925.28   926.50
eigval :      926.76   926.96   927.10   927.60   943.15   955.10
eigval :      983.59   990.95   993.35  1000.56  1058.82  1072.69
eigval :     1073.51  1075.14  1077.66  1085.01  1098.16  1098.78
eigval :     1107.58  1108.71  1120.00  1124.46  1136.64  1140.29
eigval :     1140.78  1156.96  1165.69  1171.33  1174.28  1176.59
eigval :     1177.20  1178.07  1178.35  1182.40  1183.49  1186.14
eigval :     1196.85  1200.03  1223.05  1229.68  1233.79  1238.28
eigval :     1251.65  1254.57  1255.53  1267.58  1269.23  1272.54
eigval :     1275.14  1280.83  1302.51  1305.25  1322.39  1323.99
eigval :     1329.47  1330.37  1330.89  1335.84  1353.55  1364.50
eigval :     1396.61  1397.72  1412.18  1420.80  1424.67  1426.15
eigval :     1430.00  1433.09  1436.21  1449.96  1456.56  1462.46
eigval :     1465.43  1468.23  1469.34  1482.22  1485.95  1545.76
eigval :     1557.67  1563.47  1568.41  1569.64  1573.36  1581.98
eigval :     1583.41  1585.39  1592.71  1594.52  1597.75  1599.86
eigval :     3070.80  3071.05  3072.46  3073.28  3073.41  3073.77
eigval :     3074.33  3075.29  3075.85  3076.58  3083.89  3085.00
eigval :     3085.80  3086.06  3086.47  3086.73  3088.96  3089.02
eigval :     3091.38  3093.15  3093.96  3094.21  3094.42  3096.03
eigval :     3096.46  3098.09  3101.50  3101.68  3108.62  3109.09

   temp. (K)  partition function   enthalpy   heat capacity  entropy
                                   cal/mol     cal/K/mol   cal/K/mol   J/K/mol
 298.15  VIB  0.115E+19            23051.708    146.106    143.892
         ROT  0.110E+09              888.752      2.981     39.769
         INT  0.126E+27            23940.460    149.087    183.661
         TR   0.156E+29             1481.254      4.968     45.225
         TOT                       25421.7141   154.0550   228.8860   957.6589

       T/K    H(0)-H(T)+PV         H(T)/Eh          T*S/Eh         G(T)/Eh
   ------------------------------------------------------------------------
    298.15    0.405121E-01    0.645753E+00    0.108751E+00    0.537002E+00
   ------------------------------------------------------------------------

         :::::::::::::::::::::::::::::::::::::::::::::::::::::
         ::                  THERMODYNAMIC                  ::
         :::::::::::::::::::::::::::::::::::::::::::::::::::::
         :: total free energy        -124.983690187110 Eh   ::
         ::.................................................::
         :: total energy             -125.520692046286 Eh   ::
         :: zero point energy           0.605240889743 Eh   ::
         :: G(RRHO) w/o ZPVE           -0.068239030567 Eh   ::
         :: G(RRHO) contrib.            0.537001859176 Eh   ::
         :::::::::::::::::::::::::::::::::::::::::::::::::::::

           -------------------------------------------------
          | TOTAL ENERGY             -125.520692046286 Eh   |
          | TOTAL ENTHALPY           -124.874939076482 Eh   |
          | TOTAL FREE ENERGY        -124.983690187110 Eh   |
          | GRADIENT NORM               0.000089358377 Eh/α |
          | HOMO-LUMO GAP               0.173103062603 eV   |
           -------------------------------------------------

 * finished run on 2025/07/16 at 23:55:40.602
