   * xtb version 6.7.1 (edcfbbe) compiled by 'albert@albert-system' on 2024-07-22

   ID    Z sym.   atoms
    1    8 O      1, 21, 25
    2   15 P      2, 24
    3    6 C      3-20, 22, 23, 26-52, 54-85
    4    7 N      53
    5    1 H      86-138

          program call               : xtb data2507/gas/9PhCzFDBFDPO/9PhCzFDBFDPO_gas_T1_crest.xyz --gfn 2 --spinpol --tblite --uhf 2 --ohess vtight --parallel 40 --molden --ceasefiles --namespace data2507/gas/9PhCzFDBFDPO/9PhCzFDBFDPO_gas_T1_finalOpt
 * total energy  :  -216.4201990 Eh     change       -0.1494206E-07 Eh
 * total energy  :  -216.4202426 Eh     change       -0.4361280E-04 Eh
 * total energy  :  -216.4202595 Eh     change       -0.1697895E-04 Eh
 * total energy  :  -216.4202616 Eh     change       -0.2057799E-05 Eh
 * total energy  :  -216.4202633 Eh     change       -0.1696927E-05 Eh
 * total energy  :  -216.4202649 Eh     change       -0.1635970E-05 Eh
 * total energy  :  -216.4202664 Eh     change       -0.1506801E-05 Eh
 * total energy  :  -216.4202674 Eh     change       -0.9624140E-06 Eh
 * total energy  :  -216.4202682 Eh     change       -0.7752889E-06 Eh
 * total energy  :  -216.4202690 Eh     change       -0.8499120E-06 Eh
 * total energy  :  -216.4202719 Eh     change       -0.4889870E-06 Eh
 * total energy  :  -216.4202727 Eh     change       -0.7359584E-06 Eh
 * total energy  :  -216.4202734 Eh     change       -0.7219080E-06 Eh
 * total energy  :  -216.4202739 Eh     change       -0.4811340E-06 Eh
 * total energy  :  -216.4202744 Eh     change       -0.5076469E-06 Eh
 * total energy  :  -216.4202750 Eh     change       -0.6412804E-06 Eh
 * total energy  :  -216.4202756 Eh     change       -0.5780773E-06 Eh
 * total energy  :  -216.4202761 Eh     change       -0.4579363E-06 Eh
 * total energy  :  -216.4202761 Eh     change       -0.1035121E-07 Eh
   *** GEOMETRY OPTIMIZATION CONVERGED AFTER 22 ITERATIONS ***

 final structure:
================
138
 xtb: 6.7.1 (edcfbbe)
O          -10.63931945992696       -0.33871222424844        0.23114024300608
P           -9.27026698448911        0.07675504881904       -0.09989514762967
C           -9.11785780651956        0.67887100213928       -1.81165025766207
C           -7.89810979762822        0.86302513332224       -2.44785522763125
C           -7.86985871193343        1.28636223101059       -3.76403811883023
C           -9.05246255820239        1.53564486365472       -4.44202167614319
C          -10.27059146125384        1.35377038058524       -3.80722942960770
C          -10.30268249516990        0.91849885581258       -2.49485920327343
C           -8.69324387730633        1.41320132774414        0.99422232057503
C           -9.16484687676705        2.69363253614270        0.74195396927564
C           -8.84857187931766        3.72913118193942        1.60265612568314
C           -8.07567706940903        3.47862892971479        2.72539174515710
C           -7.63396247569560        2.19383826123835        2.99483282236200
C           -7.94206847091925        1.15813524435909        2.13043207900399
C           -8.07468194613534       -1.28743054355477        0.03029107556356
C           -8.61569466540357       -2.56903014920996        0.03806409420501
C           -7.81913203669062       -3.70626582363025        0.07398809995802
C           -6.44200075593031       -3.60301781236602        0.09773842144890
C           -5.87590369068843       -2.33290114426482        0.09798425251431
C           -6.69171794540210       -1.18471624817691        0.06877760198114
O           -5.94635572441799       -0.04273513958491        0.08881044813817
C           -4.64428162362910       -0.43592057342710        0.12294620604721
C           -3.51654034134497        0.37097551378029        0.14991094360105
P           -3.46652222274911        2.18807072693160        0.23082568295975
O           -2.10629147844658        2.69561374552438        0.00343832910230
C           -4.07907995630926        2.63499687155817        1.88942204714133
C           -4.41393700139309        3.96290567932657        2.11612431925884
C           -4.72497596748875        4.38913581747795        3.39378825526651
C           -4.68896084561037        3.49149981219338        4.44922610103899
C           -4.34639827347254        2.16824859752385        4.22482821220619
C           -4.03920659531466        1.73804825249141        2.94515755009413
C           -4.66176649373324        2.85535182670156       -0.96583434289448
C           -5.99131345153783        3.10177738248680       -0.65737307933183
C           -6.81071402827564        3.69322693089817       -1.60209577014893
C           -6.31150611235547        4.02442311610489       -2.85128438823195
C           -4.98667512026438        3.76416695264041       -3.16354274594720
C           -4.16022717683450        3.18543879575408       -2.21798844552324
C           -2.28087710217528       -0.26329936492811        0.15304864028022
C           -2.14190076099928       -1.65390843177431        0.14629195812791
C           -0.80149673487902       -2.25754698992631        0.14638057422171
C            0.22343629089713       -1.70579553798040       -0.61878931154551
C            1.48339727133364       -2.26837047054518       -0.61904790372959
C            1.76175707535703       -3.38986361899015        0.15509897186465
C            3.13564424945220       -4.02228832682258        0.10491071611793
C            4.24310713797804       -3.00317068172327        0.03117831716156
C            4.16870569687727       -1.80994453945845        0.77437217843960
C            5.18260965641086       -0.89996279543645        0.76389019828896
C            6.37551795496702       -1.10031795827940       -0.00719761619833
C            7.40796544669282       -0.14906990701088       -0.05430704367585
C            7.46625371221114        0.97556376951339        0.84781995116426
C            8.44609480529586        1.90937510715822        0.78074099540622
C            9.48873291938336        1.81200364327816       -0.17895695338066
N           10.48617714961501        2.76139831656240       -0.24318584000540
C           10.30961174772252        4.13242384477274       -0.15029855008237
C            9.13660090743199        4.86845748983483       -0.05588938874305
C            9.23828281234367        6.24700222102545       -0.01180523055461
C           10.47502881134990        6.88627113373530       -0.07526570149874
C           11.64451224538386        6.16152153917082       -0.21136868240002
C           11.56699669309205        4.77738241491093       -0.25840516721519
C           12.54541528545841        3.74016120856918       -0.42701272512022
C           13.92551150568725        3.74598970385121       -0.56569411619124
C           14.58619243342194        2.53588978676290       -0.66844226670105
C           13.88880536211107        1.33072158406511       -0.60939368757647
C           12.51293488449257        1.30031180114924       -0.47268409712062
C           11.83841397959732        2.51178529561974       -0.41050542995216
C            9.47015749089369        0.70531160768659       -1.06924123178136
C            8.48101798004662       -0.21984083266611       -1.01630820012431
C            6.43778331685172       -2.33969312663624       -0.72739518337662
C            5.42129836303615       -3.24819703944303       -0.69439614053920
C            3.15981321650629       -5.02030309472428       -1.03736419743254
C            2.91939829486355       -4.79921148151837       -2.37621613424754
C            2.98611101848214       -5.87592862513836       -3.25050209725533
C            3.28461515152497       -7.14898734680736       -2.78899946607191
C            3.52147167485284       -7.37795652344372       -1.44339811400751
C            3.45670479048798       -6.30737090990345       -0.56649227578514
C            3.65062808269302       -6.24118955835189        0.87189285660713
C            3.97273218580048       -7.22638115432611        1.79091478253608
C            4.08962104502529       -6.87698338053123        3.12613721417421
C            3.89019374374067       -5.56686025650483        3.53682902241070
C            3.57153847243711       -4.57428629824441        2.62086856879585
C            3.44652587391037       -4.91787663749020        1.29110693463075
C            0.73934266980898       -3.94951251243393        0.90956461034032
C           -0.52440174376547       -3.39090826766242        0.90575766939752
C           -3.28019664902174       -2.45090133499369        0.14089466683852
C           -4.52688044853751       -1.84019571507856        0.12411468018376
H           -6.97681990714031        0.68399846785864       -1.91723728873225
H           -6.92075272137448        1.42424386613644       -4.26113314946209
H           -9.02399078037902        1.86804048366613       -5.46956939097353
H          -11.19229819305211        1.54528336687376       -4.33717259288886
H          -11.23864017372522        0.75032941197033       -1.98111366348322
H           -9.78400172898481        2.86129994819144       -0.13012547919096
H           -9.20652727402153        4.72900314814761        1.40399030337574
H           -7.82541066896626        4.28398843609720        3.39985544048511
H           -7.04916098086456        2.00009219471824        3.88139336077139
H           -7.60846009493897        0.15147504989456        2.34043676590789
H           -9.69249008400071       -2.65264918441878        0.02280070760492
H           -8.28518078139527       -4.67997511802859        0.07978638164992
H           -5.81321801416545       -4.47959335985089        0.11828679241554
H           -4.41851082165526        4.65441314706238        1.28390995220528
H           -4.98412182931413        5.42290416476024        3.57077094269046
H           -4.92324805404864        3.82526004875435        5.44976786103410
H           -4.31133964116246        1.47109121389924        5.04998389189030
H           -3.76079065625856        0.70839549987555        2.76534168770379
H           -6.37577716456504        2.83834571245437        0.31638014433016
H           -7.84256510310062        3.89972155196522       -1.36146422795785
H           -6.95801997435454        4.48825482410026       -3.58196593126236
H           -4.59786184057101        4.02260686022725       -4.13794275620576
H           -3.11570360045289        2.99895502696399       -2.42451657186204
H           -1.40449762152899        0.36783194103879        0.18027533351100
H            0.02427598883162       -0.83920844103237       -1.23141148159397
H            2.26595198217804       -1.82534806445011       -1.21824793735491
H            3.27792282370359       -1.60726615918902        1.35221497595816
H            5.06205966616485        0.01012682001840        1.32879508678242
H            6.73651887230408        1.05201892507777        1.63694072883905
H            8.48901084483829        2.70667941486509        1.50830247487876
H            8.17114410510837        4.38750643985858       -0.03736122774322
H            8.33951532576375        6.83993358146920        0.06547144672180
H           10.51462178052460        7.96439397181531       -0.03375156829796
H           12.59949362169528        6.65881126861714       -0.28760815260419
H           14.46939896385141        4.67813957996394       -0.58458614122479
H           15.65998817582510        2.51941273909577       -0.77952497652450
H           14.43426326537703        0.40066286804049       -0.66334893822704
H           11.98849757920115        0.36060020573262       -0.39671791466347
H           10.22241634513084        0.65387034718997       -1.84276114354717
H            8.46861075963195       -1.00269845846500       -1.75673290008645
H            7.32499097192579       -2.58150681306611       -1.29002004378640
H            5.51690438085512       -4.17513950239252       -1.24198992662462
H            2.68538670622742       -3.81047033165019       -2.74176055129641
H            2.80263737254642       -5.71923190194892       -4.30336277016187
H            3.33132050651226       -7.97158157869137       -3.48782142006552
H            3.75156016725009       -8.37070533173875       -1.08602397271537
H            4.13004302653024       -8.24638601729856        1.47291204309553
H            4.34000473809804       -7.63201651111180        3.85709001459937
H            3.98480748962613       -5.31554725004273        4.58307309997832
H            3.42011458483774       -3.55627853418735        2.94729402097339
H            0.93416501550458       -4.82625180106233        1.51012218153765
H           -1.30013578062282       -3.82712646114378        1.51829681807091
H           -3.20280586064253       -3.52694839924368        0.12305346431348

 projected vibrational frequencies (cm⁻¹)
eigval :       -0.00    -0.00    -0.00    -0.00    -0.00     0.00
eigval :        4.36     5.14     7.50    10.23    13.60    17.57
eigval :       22.00    23.34    25.83    28.23    29.36    31.64
eigval :       32.38    36.44    40.58    42.53    49.61    54.78
eigval :       56.12    57.55    66.44    71.44    80.10    80.94
eigval :       81.73    85.80    87.91    93.23    96.29    99.39
eigval :      106.74   110.51   117.93   126.57   126.73   138.83
eigval :      146.00   148.44   150.41   156.90   157.44   167.18
eigval :      174.59   196.18   202.46   208.19   215.65   218.71
eigval :      229.83   231.05   237.58   238.71   241.88   246.06
eigval :      255.49   255.71   267.81   271.30   272.86   275.32
eigval :      279.77   289.57   296.39   301.01   304.40   324.09
eigval :      333.47   336.92   354.79   361.45   362.83   366.93
eigval :      368.61   371.03   375.26   378.96   382.09   387.61
eigval :      392.80   395.69   397.69   411.31   413.99   415.58
eigval :      416.98   430.69   435.41   437.13   440.54   446.41
eigval :      450.38   458.15   465.34   470.74   479.69   484.06
eigval :      494.61   500.25   507.70   514.11   514.61   521.17
eigval :      530.11   533.26   537.54   544.08   547.30   554.94
eigval :      568.60   571.30   582.77   585.29   586.04   586.25
eigval :      587.01   587.47   589.62   591.04   594.29   595.46
eigval :      607.69   610.43   621.21   634.64   637.80   657.30
eigval :      657.65   658.78   659.13   661.81   667.15   670.22
eigval :      676.10   680.58   685.86   688.89   692.22   699.91
eigval :      704.86   706.72   716.95   719.66   722.10   725.86
eigval :      740.46   741.06   742.44   743.60   745.14   754.16
eigval :      755.05   766.57   766.80   775.15   779.22   782.58
eigval :      784.11   785.12   791.90   795.13   797.63   812.83
eigval :      841.22   850.27   863.52   869.13   869.56   874.92
eigval :      876.12   877.37   877.71   878.41   880.11   881.59
eigval :      887.63   888.72   892.49   893.51   895.28   896.51
eigval :      898.09   900.47   901.28   901.97   904.46   904.66
eigval :      905.32   907.11   908.53   910.50   911.43   913.14
eigval :      917.74   918.50   921.14   922.13   923.36   925.33
eigval :      925.61   927.14   927.18   928.63   929.74   933.31
eigval :      933.72   934.64   935.14   935.20   936.71   949.02
eigval :      973.06   973.40   974.80   976.49   977.42   989.96
eigval :     1004.66  1008.17  1016.25  1063.98  1068.35  1071.47
eigval :     1075.58  1078.22  1078.61  1078.88  1079.37  1081.13
eigval :     1092.19  1102.08  1105.40  1110.24  1112.71  1113.72
eigval :     1115.27  1115.76  1123.48  1125.25  1130.74  1131.63
eigval :     1132.52  1141.98  1143.52  1146.09  1146.52  1160.79
eigval :     1166.66  1174.32  1175.33  1176.76  1176.96  1179.67
eigval :     1179.89  1180.44  1181.22  1181.86  1183.63  1187.92
eigval :     1189.58  1190.81  1193.37  1193.83  1198.52  1203.57
eigval :     1205.67  1216.56  1218.95  1222.06  1225.71  1226.98
eigval :     1231.62  1236.54  1240.42  1250.55  1253.70  1254.54
eigval :     1256.42  1258.25  1266.80  1270.50  1271.41  1272.20
eigval :     1273.68  1274.23  1276.37  1286.45  1288.34  1305.76
eigval :     1308.89  1319.33  1319.98  1320.99  1323.07  1324.10
eigval :     1326.67  1329.98  1333.74  1341.95  1342.30  1345.49
eigval :     1356.16  1365.20  1366.71  1375.48  1378.30  1385.33
eigval :     1386.89  1400.81  1403.89  1410.93  1424.06  1425.10
eigval :     1425.33  1425.95  1427.84  1428.93  1434.89  1451.92
eigval :     1454.09  1454.71  1455.19  1457.62  1458.19  1459.34
eigval :     1461.19  1467.63  1470.63  1472.68  1482.82  1499.18
eigval :     1509.97  1525.56  1529.03  1557.87  1558.90  1566.21
eigval :     1569.81  1572.24  1572.90  1576.05  1581.06  1582.98
eigval :     1584.03  1585.97  1586.09  1586.25  1586.74  1586.82
eigval :     1588.79  1588.88  1590.16  1596.87  1598.01  1602.48
eigval :     1606.72  3050.86  3058.98  3061.67  3067.61  3070.61
eigval :     3072.06  3073.03  3073.21  3073.49  3074.20  3074.52
eigval :     3075.00  3076.13  3077.14  3077.26  3078.15  3078.25
eigval :     3079.44  3079.70  3079.96  3081.23  3082.09  3082.85
eigval :     3083.53  3084.43  3085.75  3085.91  3086.72  3087.22
eigval :     3087.46  3087.89  3088.83  3089.40  3089.43  3090.70
eigval :     3091.03  3091.46  3093.04  3093.28  3094.34  3095.64
eigval :     3097.06  3097.14  3097.29  3099.51  3100.53  3101.25
eigval :     3101.47  3101.87  3102.85  3112.26  3113.35  3116.32

   temp. (K)  partition function   enthalpy   heat capacity  entropy
                                   cal/mol     cal/K/mol   cal/K/mol   J/K/mol
 298.15  VIB  0.537E+36            42501.375    260.141    269.756
         ROT  0.671E+09              888.752      2.981     43.372
         INT  0.360E+45            43390.127    263.122    313.128
         TR   0.366E+29             1481.254      4.968     46.915
         TOT                       44871.3814   268.0899   360.0428  1506.4190

       T/K    H(0)-H(T)+PV         H(T)/Eh          T*S/Eh         G(T)/Eh
   ------------------------------------------------------------------------
    298.15    0.715071E-01    0.111954E+01    0.171068E+00    0.948468E+00
   ------------------------------------------------------------------------

         :::::::::::::::::::::::::::::::::::::::::::::::::::::
         ::                  THERMODYNAMIC                  ::
         :::::::::::::::::::::::::::::::::::::::::::::::::::::
         :: total free energy        -215.471808231472 Eh   ::
         ::.................................................::
         :: total energy             -216.420276063205 Eh   ::
         :: zero point energy           1.048028675212 Eh   ::
         :: G(RRHO) w/o ZPVE           -0.099560843479 Eh   ::
         :: G(RRHO) contrib.            0.948467831733 Eh   ::
         :::::::::::::::::::::::::::::::::::::::::::::::::::::

           -------------------------------------------------
          | TOTAL ENERGY             -216.420276063205 Eh   |
          | TOTAL ENTHALPY           -215.300740290171 Eh   |
          | TOTAL FREE ENERGY        -215.471808231472 Eh   |
          | GRADIENT NORM               0.000072015046 Eh/α |
           -------------------------------------------------

 * finished run on 2025/07/17 at 11:23:35.838
