   * xtb version 6.7.1 (edcfbbe) compiled by 'albert@albert-system' on 2024-07-22

   ID    Z sym.   atoms
    1    8 O      1, 21, 25
    2   15 P      2, 24
    3    6 C      3-20, 22, 23, 26-52, 54-85
    4    7 N      53
    5    1 H      86-138

          program call               : xtb data2507/gas/9PhCzFDBFDPO/9PhCzFDBFDPO.xyz --gfn 2 --ohess vtight --parallel 40 --molden --ceasefiles --namespace data2507/gas/9PhCzFDBFDPO/9PhCzFDBFDPO_gas_S0_preOpt
          :  Hamiltonian                  GFN2-xTB          :
 * total energy  :  -216.4735021 Eh     change       -0.4459821E-08 Eh
 * total energy  :  -216.5003510 Eh     change       -0.2684887E-01 Eh
 * total energy  :  -216.5092007 Eh     change       -0.8849745E-02 Eh
 * total energy  :  -216.5116471 Eh     change       -0.2446366E-02 Eh
 * total energy  :  -216.5139522 Eh     change       -0.2305106E-02 Eh
 * total energy  :  -216.5153715 Eh     change       -0.1419283E-02 Eh
 * total energy  :  -216.5162998 Eh     change       -0.9282690E-03 Eh
 * total energy  :  -216.5168699 Eh     change       -0.5700839E-03 Eh
 * total energy  :  -216.5171672 Eh     change       -0.2973794E-03 Eh
 * total energy  :  -216.5173423 Eh     change       -0.1750985E-03 Eh
 * total energy  :  -216.5190994 Eh     change       -0.5363094E-06 Eh
 * total energy  :  -216.5190999 Eh     change       -0.4728423E-06 Eh
 * total energy  :  -216.5191003 Eh     change       -0.4515707E-06 Eh
 * total energy  :  -216.5191008 Eh     change       -0.4986362E-06 Eh
 * total energy  :  -216.5191014 Eh     change       -0.5494749E-06 Eh
 * total energy  :  -216.5191021 Eh     change       -0.6537304E-06 Eh
 * total energy  :  -216.5191028 Eh     change       -0.7498839E-06 Eh
 * total energy  :  -216.5191037 Eh     change       -0.9091434E-06 Eh
 * total energy  :  -216.5191037 Eh     change       -0.5998345E-08 Eh
   *** GEOMETRY OPTIMIZATION CONVERGED AFTER 152 ITERATIONS ***

 final structure:
================
138
 xtb: 6.7.1 (edcfbbe)
O          -10.93037824114662       -0.52678372355570        0.58034190222238
P           -9.59296151750960       -0.10384782046745        0.14673196788692
C           -9.53858556773901        0.34688275387511       -1.61632933895822
C           -8.35732674243400        0.48717342015447       -2.33135124861923
C           -8.40582524610845        0.79468858193772       -3.67882116795161
C           -9.62648903342767        0.97284053278019       -4.31004447621287
C          -10.80620747682605        0.83536285637204       -3.59640651267260
C          -10.76171961827788        0.51511425653433       -2.25167860342309
C           -9.00213941413312        1.33386295980726        1.09468380311975
C           -9.50944116983359        2.57919190684879        0.75222312916522
C           -9.18000640864179        3.69097186411066        1.50630491155881
C           -8.35857017812250        3.55227280076493        2.61380618175806
C           -7.88051724400910        2.30348236833052        2.97502279471333
C           -8.20140667924252        1.19138266409365        2.21680514064134
C           -8.35093582010027       -1.42140412465889        0.33467794179828
C           -8.85194630919595       -2.70913058924442        0.47716884624051
C           -8.02196298754348       -3.81889288031633        0.57680991003766
C           -6.64873955637806       -3.67742411110415        0.53243795615124
C           -6.12215706476944       -2.39942150054100        0.39825878055666
C           -6.97069488770403       -1.27919977991214        0.30375909059463
O           -6.25942468035747       -0.12160343938798        0.19228432041673
C           -4.94608945361281       -0.47604287099714        0.20749095873626
C           -3.84093477612103        0.35809264796368        0.11805943685772
P           -3.83840434489481        2.17736174712135        0.02245316061441
O           -2.50232435887622        2.68877591498539       -0.31189621495270
C           -4.39622808177353        2.76686724012694        1.65495362690336
C           -4.76870194215680        4.09954901591636        1.76509232635821
C           -5.04193971370351        4.64037954205674        3.00755582930740
C           -4.93062339575212        3.85339030750516        4.14300423844975
C           -4.55029629278789        2.52592209602195        4.03420172530624
C           -4.28065581863952        1.98067000183915        2.79042728644202
C           -5.10000576796537        2.69192848278528       -1.18094359055465
C           -6.42486677509680        2.92170755878839       -0.84089195793051
C           -7.30069130041092        3.39746842607479       -1.80010836333721
C           -6.86182932279952        3.62945602785902       -3.09362661729700
C           -5.54134091161511        3.38571182684946       -3.43577507714012
C           -4.65856729516056        2.92328145871412       -2.47702343347300
C           -2.58999832319039       -0.24100162008513        0.13305480341225
C           -2.40940875887639       -1.62286929706033        0.24476377143011
C           -1.05449109167350       -2.19258090314315        0.25387851918330
C           -0.05973705453145       -1.67634546070786       -0.57343548592964
C            1.21173864673552       -2.21298194245245       -0.56625547896903
C            1.53268770496971       -3.27324396749592        0.27491598120227
C            2.91444987262293       -3.89030763154130        0.22986346844818
C            4.01062535567877       -2.85655175589749        0.07187858038502
C            3.92590311471452       -1.63819869501716        0.73683385407143
C            4.94848505004996       -0.71499231900304        0.65080230031834
C            6.09509330548675       -0.98746212747928       -0.09169002686217
C            7.18677147525839       -0.00821554998565       -0.17642965946278
C            6.91690277053785        1.35149904164574       -0.31921306083160
C            7.94066097267665        2.27419185450488       -0.39236850027565
C            9.26632829741193        1.85434372612621       -0.32762053077660
N           10.30925195617653        2.78734340745268       -0.40112005780081
C           10.45443018437109        3.76305577139218       -1.36704678862631
C            9.67194253990636        4.02635767395619       -2.48234504659711
C           10.06134099257888        5.05842591437089       -3.31421862455677
C           11.20524929136452        5.81036928261217       -3.05505906994363
C           12.00056452128683        5.53791223829587       -1.96022406461001
C           11.63001628093033        4.50515533105382       -1.10905389508520
C           12.21354290274849        3.94542771641092        0.07754567655893
C           13.34523525480955        4.25177646372771        0.82171419224223
C           13.61367549038599        3.50894177773256        1.95378703725421
C           12.76212513840043        2.48180347777686        2.35496377271520
C           11.63047881484802        2.15811811681254        1.63148083983875
C           11.36824855903998        2.88548309492502        0.47919312728560
C            9.54636163682495        0.49780590199620       -0.18821862788328
C            8.51705795036589       -0.41822414266044       -0.11192788614632
C            6.18172289489620       -2.21391987785506       -0.74506097008137
C            5.15543395822498       -3.13496867787910       -0.66337032134750
C            2.91492048843099       -4.94484136305928       -0.86104423282302
C            2.65761815486324       -4.79157245581704       -2.20645337895917
C            2.70225851683958       -5.91247341958696       -3.02459335092056
C            2.99439164032617       -7.16295945411413       -2.50176140398249
C            3.24714809362846       -7.32410444956976       -1.14913135384089
C            3.20483813537903       -6.20902499801696       -0.32860859550387
C            3.42317656287220       -6.07053365371329        1.10207094448514
C            3.75039373364917       -7.01018053492560        2.06566883427236
C            3.90269843885371       -6.59055220517778        3.37722279275483
C            3.73416489987998       -5.25755205526623        3.71976006330853
C            3.40720037223842       -4.31144171938998        2.75770752101590
C            3.24751464639922       -4.72456548628025        1.45239782249675
C            0.54016765963975       -3.79654499066712        1.09312227853848
C           -0.73395466827527       -3.26266079233167        1.08461429418557
C           -3.52505061445087       -2.44515484335482        0.34862387186476
C           -4.78654998349065       -1.87065877785745        0.32655060996073
H           -7.40617807926273        0.36415054068064       -1.83872936603394
H           -7.48685271099238        0.89783440902086       -4.23711050976977
H           -9.65787838231149        1.21481372975404       -5.36240343107146
H          -11.75757664023488        0.97146495883860       -4.08959432469017
H          -11.66634221384344        0.38246372780943       -1.67522866972425
H          -10.16633061474930        2.65992362150611       -0.10443139074778
H           -9.56554215420882        4.66349116156072        1.23667183202130
H           -8.09861504040391        4.41735754499394        3.20539939021973
H           -7.25772592093157        2.19759218811697        3.85047100300170
H           -7.83993832469905        0.21244237521372        2.49955504486899
H           -9.92564801266444       -2.82163365364341        0.51678155655656
H           -8.45845767253885       -4.79985333689070        0.68713265293484
H           -5.99383442566061       -4.53213013040146        0.60241640468167
H           -4.83227960548829        4.70463763371150        0.87034301390117
H           -5.33006138451407        5.67795023531001        3.09384097555431
H           -5.13528577662821        4.27719758810670        5.11547664276234
H           -4.45597637456831        1.91574282651589        4.92123194966433
H           -3.97283826414803        0.94760151410892        2.70014155159903
H           -6.76162497506626        2.73602184331540        0.16785724394765
H           -8.32928777755654        3.59174799539553       -1.53665219923238
H           -7.55228463824843        4.00340181019942       -3.83547382380271
H           -5.19968812524037        3.56724404835726       -4.44451751727979
H           -3.61648517105233        2.75395948689590       -2.70883613503704
H           -1.73206154500149        0.41284866716896        0.07099691849182
H           -0.29118371070145       -0.85988097173969       -1.24103517554508
H            1.96876826656977       -1.79587562800159       -1.21441182411370
H            3.04707445171586       -1.40565326356527        1.32090655592693
H            4.86805065754335        0.22037527679803        1.18521876341727
H            5.89260058556805        1.68747593030286       -0.38495031338937
H            7.72012608008005        3.32705623776289       -0.48709519878877
H            8.79357620876310        3.43814080479431       -2.70166618852465
H            9.46720438424914        5.28499463359885       -4.18737266379453
H           11.47415570169463        6.61076990399741       -3.72832044042199
H           12.89568251422718        6.11000890986297       -1.76755212515072
H           13.99606845634221        5.05835635902457        0.51924029076909
H           14.48984931898491        3.72918037913120        2.54545031408200
H           12.98969817941756        1.92816853096917        3.25412682788660
H           10.96735509872872        1.37224237732355        1.96069922207775
H           10.57400399958484        0.16791919780370       -0.15190946251901
H            8.74570168411026       -1.46644253939648        0.01262911415162
H            7.05425591749911       -2.44157922404232       -1.33986815792525
H            5.24522710695893       -4.07969095754485       -1.17956983177592
H            2.42917791660694       -3.82090895778176       -2.62066308354331
H            2.50699607173987       -5.80825679621192       -4.08180937061608
H            3.02399086427322       -8.02099649596708       -3.15745910118405
H            3.47245488610652       -8.29930902742862       -0.74375567251610
H            3.88531078917471       -8.04835345692387        1.80088563875331
H            4.15770766500885       -7.30910598625474        4.14252557553620
H            3.85958998968399       -4.95059293666869        4.74773760545524
H            3.27873143093292       -3.27452695912342        3.03055761480437
H            0.76562611728812       -4.62594668142254        1.74737537863040
H           -1.48336964890454       -3.66874788886129        1.74838137377341
H           -3.41832954029555       -3.51644759884627        0.42053931265371

          :  Hamiltonian                  GFN2-xTB          :
         :: gradient norm              0.000056983241 Eh/a0 ::
         :: HOMO-LUMO gap              2.300784652627 eV    ::
         :: SCC energy              -220.507523993598 Eh    ::
         :: -> dispersion             -0.221401876762 Eh    ::
         :: repulsion energy           3.988420278208 Eh    ::

    * Orbital Energies and Occupations

         #    Occupation            Energy/Eh            Energy/eV
      -------------------------------------------------------------
         1        2.0000           -0.7527658             -20.4838
       ...           ...                  ...                  ...
       189        2.0000           -0.4077558             -11.0956
       190        2.0000           -0.4067975             -11.0695
       191        2.0000           -0.4058180             -11.0429
       192        2.0000           -0.4047400             -11.0135
       193        2.0000           -0.4022946             -10.9470
       194        2.0000           -0.4014881             -10.9250
       195        2.0000           -0.4009235             -10.9097
       196        2.0000           -0.3985006             -10.8438
       197        2.0000           -0.3903570             -10.6222
       198        2.0000           -0.3842913             -10.4571
       199        2.0000           -0.3813558             -10.3772
       200        2.0000           -0.3743077             -10.1854
       201        2.0000           -0.3576610              -9.7325 (HOMO)
       202                         -0.2731088              -7.4317 (LUMO)
       203                         -0.2640669              -7.1856
       204                         -0.2555649              -6.9543
       205                         -0.2524299              -6.8690
       206                         -0.2507133              -6.8223
       207                         -0.2495922              -6.7917
       208                         -0.2467997              -6.7158
       209                         -0.2450347              -6.6677
       210                         -0.2400851              -6.5330
       211                         -0.2397674              -6.5244
       212                         -0.2385681              -6.4918
       ...                                ...                  ...
       403                          1.2065884              32.8329
      -------------------------------------------------------------
                  HL-Gap            0.0845523 Eh            2.3008 eV

     #   Z          covCN         q      C6AA      α(0)
     1   8 O        0.808    -0.357    20.859     6.122
     2  15 P        4.077     0.080   156.702    22.487
     3   6 C        2.921     0.012    27.741     8.637
     4   6 C        2.973    -0.025    28.615     8.774
     5   6 C        2.920    -0.026    28.663     8.779
     6   6 C        2.921    -0.025    28.616     8.772
     7   6 C        2.919    -0.028    28.691     8.784
     8   6 C        3.032    -0.021    28.494     8.756
     9   6 C        2.922     0.021    27.548     8.607
    10   6 C        3.022    -0.018    28.426     8.746
    11   6 C        2.919    -0.025    28.636     8.775
    12   6 C        2.921    -0.025    28.622     8.773
    13   6 C        2.920    -0.026    28.650     8.777
    14   6 C        2.983    -0.015    28.385     8.739
    15   6 C        2.908    -0.012    28.309     8.724
    16   6 C        3.047    -0.025    28.571     8.767
    17   6 C        2.919    -0.036    28.898     8.815
    18   6 C        2.913    -0.030    28.750     8.792
    19   6 C        3.057    -0.020    28.445     8.746
    20   6 C        3.131     0.132    24.932     8.174
    21   8 O        1.715    -0.213    17.538     5.654
    22   6 C        3.130     0.128    24.999     8.186
    23   6 C        2.907    -0.014    28.374     8.734
    24  15 P        4.083     0.082   156.637    22.482
    25   8 O        0.808    -0.361    20.930     6.133
    26   6 C        2.921     0.017    27.636     8.621
    27   6 C        3.018    -0.018    28.424     8.745
    28   6 C        2.919    -0.025    28.627     8.774
    29   6 C        2.920    -0.024    28.614     8.772
    30   6 C        2.920    -0.026    28.643     8.776
    31   6 C        2.983    -0.020    28.500     8.757
    32   6 C        2.922     0.015    27.667     8.626
    33   6 C        2.974    -0.020    28.513     8.759
    34   6 C        2.921    -0.025    28.632     8.775
    35   6 C        2.920    -0.023    28.588     8.768
    36   6 C        2.919    -0.027    28.678     8.782
    37   6 C        3.035    -0.020    28.467     8.751
    38   6 C        3.056    -0.031    28.713     8.788
    39   6 C        2.975     0.006    27.887     8.662
    40   6 C        2.977     0.007    27.852     8.657
    41   6 C        2.924    -0.034    28.846     8.808
    42   6 C        2.923    -0.033    28.816     8.803
    43   6 C        2.980     0.018    27.613     8.620
    44   6 C        3.947     0.007    20.386     6.416
    45   6 C        2.980     0.016    27.658     8.627
    46   6 C        2.922    -0.034    28.854     8.809
    47   6 C        2.924    -0.035    28.869     8.811
    48   6 C        2.977     0.007    27.853     8.657
    49   6 C        2.976     0.007    27.853     8.657
    50   6 C        2.925    -0.033    28.834     8.806
    51   6 C        2.920    -0.043    29.075     8.842
    52   6 C        2.913     0.062    26.602     8.458
    53   7 N        2.802    -0.044    22.090     6.980
    54   6 C        3.076     0.047    26.873     8.499
    55   6 C        2.910    -0.051    29.265     8.871
    56   6 C        2.924    -0.034    28.837     8.806
    57   6 C        2.920    -0.041    29.023     8.834
    58   6 C        2.912    -0.033    28.822     8.803
    59   6 C        3.068    -0.017    28.371     8.734
    60   6 C        3.068    -0.017    28.370     8.734
    61   6 C        2.912    -0.033    28.823     8.803
    62   6 C        2.920    -0.041    29.024     8.835
    63   6 C        2.924    -0.034    28.840     8.807
    64   6 C        2.910    -0.051    29.266     8.871
    65   6 C        3.076     0.047    26.873     8.499
    66   6 C        2.920    -0.043    29.079     8.843
    67   6 C        2.925    -0.034    28.838     8.807
    68   6 C        2.925    -0.035    28.869     8.811
    69   6 C        2.922    -0.036    28.897     8.815
    70   6 C        3.058     0.004    27.876     8.658
    71   6 C        2.914    -0.033    28.834     8.805
    72   6 C        2.922    -0.032    28.802     8.801
    73   6 C        2.921    -0.033    28.811     8.802
    74   6 C        2.915    -0.034    28.845     8.807
    75   6 C        3.035     0.001    27.970     8.675
    76   6 C        3.035     0.001    27.971     8.675
    77   6 C        2.915    -0.034    28.845     8.807
    78   6 C        2.921    -0.033    28.812     8.802
    79   6 C        2.922    -0.032    28.802     8.801
    80   6 C        2.914    -0.033    28.832     8.805
    81   6 C        3.058     0.004    27.877     8.659
    82   6 C        2.922    -0.036    28.892     8.815
    83   6 C        2.924    -0.035    28.860     8.810
    84   6 C        2.918    -0.037    28.915     8.818
    85   6 C        3.054    -0.021    28.482     8.752
    86   1 H        0.926     0.041     2.430     2.438
    87   1 H        0.926     0.034     2.532     2.489
    88   1 H        0.926     0.038     2.476     2.461
    89   1 H        0.926     0.040     2.443     2.444
    90   1 H        0.926     0.064     2.147     2.291
    91   1 H        0.925     0.040     2.449     2.447
    92   1 H        0.926     0.038     2.473     2.459
    93   1 H        0.926     0.037     2.494     2.470
    94   1 H        0.926     0.035     2.510     2.478
    95   1 H        0.926     0.036     2.501     2.473
    96   1 H        0.926     0.074     2.039     2.233
    97   1 H        0.926     0.047     2.358     2.401
    98   1 H        0.926     0.045     2.379     2.412
    99   1 H        0.925     0.043     2.413     2.429
   100   1 H        0.926     0.039     2.465     2.455
   101   1 H        0.926     0.039     2.466     2.456
   102   1 H        0.926     0.037     2.488     2.467
   103   1 H        0.925     0.034     2.533     2.489
   104   1 H        0.926     0.041     2.436     2.441
   105   1 H        0.926     0.033     2.542     2.493
   106   1 H        0.926     0.036     2.497     2.471
   107   1 H        0.926     0.039     2.460     2.453
   108   1 H        0.926     0.060     2.203     2.321
   109   1 H        0.926     0.077     2.007     2.216
   110   1 H        0.926     0.039     2.456     2.451
   111   1 H        0.926     0.035     2.515     2.480
   112   1 H        0.926     0.032     2.560     2.502
   113   1 H        0.926     0.034     2.536     2.490
   114   1 H        0.926     0.038     2.469     2.457
   115   1 H        0.926     0.041     2.437     2.441
   116   1 H        0.926     0.027     2.628     2.535
   117   1 H        0.926     0.028     2.611     2.527
   118   1 H        0.926     0.027     2.628     2.535
   119   1 H        0.926     0.030     2.586     2.515
   120   1 H        0.926     0.030     2.585     2.514
   121   1 H        0.926     0.027     2.630     2.536
   122   1 H        0.926     0.028     2.616     2.529
   123   1 H        0.926     0.027     2.634     2.538
   124   1 H        0.926     0.040     2.449     2.447
   125   1 H        0.926     0.037     2.492     2.469
   126   1 H        0.926     0.032     2.554     2.499
   127   1 H        0.926     0.031     2.572     2.508
   128   1 H        0.926     0.030     2.584     2.514
   129   1 H        0.926     0.031     2.576     2.510
   130   1 H        0.926     0.031     2.578     2.511
   131   1 H        0.926     0.031     2.566     2.505
   132   1 H        0.926     0.031     2.567     2.505
   133   1 H        0.926     0.031     2.578     2.511
   134   1 H        0.926     0.031     2.576     2.510
   135   1 H        0.926     0.030     2.585     2.514
   136   1 H        0.926     0.033     2.546     2.495
   137   1 H        0.926     0.031     2.569     2.506
   138   1 H        0.926     0.046     2.371     2.408

molecular dipole:
                 x           y           z       tot (Debye)
 q only:       -0.191      -0.616      -0.208
   full:       -0.250      -0.710      -0.204       1.982

 projected vibrational frequencies (cm⁻¹)
eigval :       -0.00    -0.00    -0.00     0.00     0.00     0.00
eigval :        4.17     5.07     7.65    10.75    13.71    17.23
eigval :       21.29    22.93    28.10    29.13    30.65    31.56
eigval :       34.33    37.27    39.53    41.37    49.76    54.74
eigval :       55.48    59.04    68.37    71.46    75.90    80.36
eigval :       81.74    85.45    87.19    91.77    97.72    97.92
eigval :      105.86   106.10   113.60   125.16   138.02   144.59
eigval :      148.23   149.18   153.19   156.45   164.82   173.38
eigval :      178.10   194.00   202.36   204.64   212.09   218.45
eigval :      229.14   230.73   237.01   238.70   242.13   254.74
eigval :      255.32   259.53   267.51   271.40   271.72   275.09
eigval :      283.77   294.80   298.55   303.31   319.73   333.86
eigval :      336.95   353.93   361.54   367.07   367.65   368.54
eigval :      371.19   373.87   379.68   383.59   385.03   390.43
eigval :      394.86   399.49   411.44   415.06   417.16   420.88
eigval :      430.03   432.79   435.29   441.51   446.32   455.16
eigval :      458.67   469.57   478.14   484.53   486.36   498.11
eigval :      503.30   508.68   514.61   518.99   522.31   531.32
eigval :      532.33   537.42   541.18   543.07   548.17   557.35
eigval :      574.07   582.36   585.95   586.16   586.74   587.29
eigval :      588.12   592.63   595.27   597.17   606.64   607.99
eigval :      615.97   619.02   623.27   636.67   657.28   658.49
eigval :      658.97   661.74   664.60   673.92   676.08   680.93
eigval :      683.84   687.92   691.70   699.68   701.10   704.85
eigval :      709.57   709.86   717.41   719.94   722.52   729.20
eigval :      740.79   742.49   743.77   744.96   753.35   755.50
eigval :      762.52   769.50   776.50   780.79   785.04   792.53
eigval :      801.61   804.94   814.55   833.14   843.32   855.38
eigval :      866.07   866.74   873.60   874.99   875.63   877.29
eigval :      877.59   878.20   878.86   879.75   881.51   882.35
eigval :      894.70   895.40   897.98   900.43   900.74   901.55
eigval :      902.27   902.69   903.87   904.66   905.68   908.87
eigval :      909.32   917.86   918.94   920.88   921.02   921.38
eigval :      921.76   925.43   927.01   927.16   927.28   927.74
eigval :      928.53   929.82   931.92   933.33   933.80   934.94
eigval :      935.25   935.36   936.83   937.97   940.49   973.00
eigval :      973.30   976.45   977.43   997.24  1007.90  1012.13
eigval :     1015.79  1024.97  1065.42  1070.26  1073.67  1076.21
eigval :     1078.15  1078.59  1078.98  1079.40  1081.58  1083.09
eigval :     1092.30  1102.49  1108.90  1112.68  1113.63  1115.22
eigval :     1115.81  1118.08  1123.73  1125.39  1130.99  1132.77
eigval :     1135.93  1144.00  1147.72  1150.02  1153.10  1162.80
eigval :     1176.49  1176.57  1176.99  1177.63  1179.49  1179.75
eigval :     1181.02  1181.53  1181.61  1183.94  1184.55  1188.90
eigval :     1189.75  1190.74  1193.34  1193.82  1201.34  1205.04
eigval :     1206.67  1210.44  1218.78  1227.61  1229.38  1237.11
eigval :     1239.09  1242.68  1245.42  1252.54  1255.63  1257.67
eigval :     1263.76  1267.85  1270.43  1271.29  1272.22  1273.55
eigval :     1277.50  1278.31  1285.90  1297.05  1304.04  1305.72
eigval :     1309.01  1315.91  1316.47  1320.04  1320.99  1322.88
eigval :     1323.03  1324.11  1327.40  1340.53  1353.87  1357.85
eigval :     1362.50  1366.33  1371.21  1381.03  1389.59  1393.53
eigval :     1403.86  1414.10  1423.65  1424.65  1425.40  1427.43
eigval :     1428.66  1429.02  1432.05  1432.95  1453.31  1453.41
eigval :     1453.87  1456.50  1457.61  1462.42  1470.66  1472.75
eigval :     1476.84  1479.60  1488.90  1500.64  1509.96  1554.93
eigval :     1558.56  1568.61  1572.59  1575.52  1578.96  1583.52
eigval :     1584.36  1585.28  1586.24  1586.35  1586.52  1587.48
eigval :     1587.65  1588.76  1588.86  1589.27  1594.30  1595.11
eigval :     1599.11  1599.23  1602.23  1604.53  1606.06  1610.44
eigval :     1615.58  3051.12  3059.13  3060.95  3066.45  3072.87
eigval :     3073.51  3073.68  3073.97  3073.99  3074.49  3075.16
eigval :     3075.64  3075.78  3076.75  3077.51  3078.29  3078.40
eigval :     3078.84  3079.84  3080.15  3080.46  3081.21  3081.28
eigval :     3081.41  3082.87  3083.95  3084.63  3085.18  3086.30
eigval :     3086.40  3087.16  3087.71  3087.89  3088.60  3089.24
eigval :     3089.44  3089.49  3090.20  3091.31  3091.54  3092.24
eigval :     3093.09  3093.31  3093.38  3094.34  3094.44  3094.65
eigval :     3096.30  3097.79  3097.85  3101.11  3101.65  3115.21

   temp. (K)  partition function   enthalpy   heat capacity  entropy
                                   cal/mol     cal/K/mol   cal/K/mol   J/K/mol
 298.15  VIB  0.321E+36            42135.646    257.895    267.724
         ROT  0.675E+09              888.752      2.981     43.383
         INT  0.217E+45            43024.398    260.875    311.106
         TR   0.366E+29             1481.254      4.968     46.915
         TOT                       44505.6521   265.8436   358.0209  1497.9596

       T/K    H(0)-H(T)+PV         H(T)/Eh          T*S/Eh         G(T)/Eh
   ------------------------------------------------------------------------
    298.15    0.709243E-01    0.112341E+01    0.170107E+00    0.953300E+00
   ------------------------------------------------------------------------

         :::::::::::::::::::::::::::::::::::::::::::::::::::::
         ::                  THERMODYNAMIC                  ::
         :::::::::::::::::::::::::::::::::::::::::::::::::::::
         :: total free energy        -215.565804082929 Eh   ::
         ::.................................................::
         :: total energy             -216.519103715390 Eh   ::
         :: zero point energy           1.052482664162 Eh   ::
         :: G(RRHO) w/o ZPVE           -0.099183031700 Eh   ::
         :: G(RRHO) contrib.            0.953299632461 Eh   ::
         :::::::::::::::::::::::::::::::::::::::::::::::::::::

           -------------------------------------------------
          | TOTAL ENERGY             -216.519103715390 Eh   |
          | TOTAL ENTHALPY           -215.395696780144 Eh   |
          | TOTAL FREE ENERGY        -215.565804082929 Eh   |
          | GRADIENT NORM               0.000056976711 Eh/α |
          | HOMO-LUMO GAP               2.300784366985 eV   |
           -------------------------------------------------

 * finished run on 2025/07/17 at 10:20:20.139
