   * xtb version 6.7.1 (edcfbbe) compiled by 'albert@albert-system' on 2024-07-22

   ID    Z sym.   atoms
    1    8 O      1, 21, 25
    2   15 P      2, 24
    3    6 C      3-20, 22, 23, 26-52, 54-85
    4    7 N      53
    5    1 H      86-138

          program call               : xtb data2507/gas/9PhCzFDBFDPO/9PhCzFDBFDPO_gas_S0_crest.xyz --gfn 2 --ohess vtight --parallel 40 --molden --ceasefiles --namespace data2507/gas/9PhCzFDBFDPO/9PhCzFDBFDPO_gas_S0_finalOpt
          :  Hamiltonian                  GFN2-xTB          :
 * total energy  :  -216.5190831 Eh     change       -0.3977334E-08 Eh
 * total energy  :  -216.5190873 Eh     change       -0.4195682E-05 Eh
 * total energy  :  -216.5190888 Eh     change       -0.1477503E-05 Eh
 * total energy  :  -216.5190898 Eh     change       -0.1051634E-05 Eh
 * total energy  :  -216.5190927 Eh     change       -0.2857756E-05 Eh
 * total energy  :  -216.5190962 Eh     change       -0.3518377E-05 Eh
 * total energy  :  -216.5190984 Eh     change       -0.2206690E-05 Eh
 * total energy  :  -216.5190998 Eh     change       -0.1368322E-05 Eh
 * total energy  :  -216.5191011 Eh     change       -0.1379015E-05 Eh
 * total energy  :  -216.5191027 Eh     change       -0.1597115E-05 Eh
 * total energy  :  -216.5191156 Eh     change       -0.1744867E-06 Eh
 * total energy  :  -216.5191157 Eh     change       -0.1323334E-06 Eh
 * total energy  :  -216.5191158 Eh     change       -0.1293030E-06 Eh
 * total energy  :  -216.5191160 Eh     change       -0.1447830E-06 Eh
 * total energy  :  -216.5191161 Eh     change       -0.1566158E-06 Eh
 * total energy  :  -216.5191163 Eh     change       -0.1398714E-06 Eh
 * total energy  :  -216.5191164 Eh     change       -0.1317322E-06 Eh
 * total energy  :  -216.5191165 Eh     change       -0.1377091E-06 Eh
 * total energy  :  -216.5191165 Eh     change       -0.1532271E-08 Eh
   *** GEOMETRY OPTIMIZATION CONVERGED AFTER 44 ITERATIONS ***

 final structure:
================
138
 xtb: 6.7.1 (edcfbbe)
O          -10.64173017608089       -0.33159828886671        0.50053276357856
P           -9.29243176218175        0.09673996273012        0.11135691016529
C           -9.22234890400526        0.72609363667818       -1.59539901474368
C           -8.03522417964115        0.91778059893531       -2.28845363609116
C           -8.07161097516451        1.36514608876347       -3.59653767726111
C           -9.28582005258722        1.63091737135354       -4.20919631660869
C          -10.47130030095004        1.44184497579516       -3.51724177655690
C          -10.43916480574035        0.98259034698659       -2.21305159670201
C           -8.66402343768583        1.41263783619404        1.20149849617094
C           -9.14032116813151        2.69884041172250        0.99072627912259
C           -8.78323950941052        3.71848577071872        1.85444108910062
C           -7.96460068025855        3.44623586852110        2.93901723571769
C           -7.51719630189172        2.15553306975909        3.16791952348805
C           -7.86628487932200        1.13562726132959        2.30035334736041
C           -8.08786010665681       -1.26738069334321        0.16112780876743
C           -8.62495525763563       -2.54838249991452        0.17170448130153
C           -7.82643345634369       -3.68527915611262        0.15781611667380
C           -6.44964237667627       -3.57860209256965        0.12895333091112
C           -5.88715768233821       -2.30885759766621        0.12546756934934
C           -6.70411384113120       -1.16160123750050        0.14427962047309
O           -5.96078149977562       -0.01898248934607        0.15042684956263
C           -4.65784897774150       -0.40954799471544        0.13078037389541
C           -3.53012172447451        0.39870219266309        0.12737108556250
P           -3.47565766955758        2.21720532632096        0.22252511258324
O           -2.12473720979235        2.72224035362222       -0.05750407585897
C           -4.01834738576070        2.64585971802485        1.90944041828964
C           -4.35257365751049        3.96936043791356        2.16145277308708
C           -4.61101010097163        4.38266612381784        3.45501179523090
C           -4.52300725747800        3.47664826772810        4.50017830901385
C           -4.18078458330114        2.15793180893609        4.25004847803707
C           -3.92605060829658        1.74049943984472        2.95474267500616
C           -4.71919199663256        2.89370363042721       -0.91783762218133
C           -6.03733570757101        3.12569376909573       -0.55401003524753
C           -6.89616031362497        3.72760845277766       -1.45608439701884
C           -6.44734532695442        4.08349789308528       -2.71764048754171
C           -5.13395629066227        3.83801443259690       -3.08502971179066
C           -4.26787409621903        3.24906802299453       -2.18207918813010
C           -2.29620962583644       -0.23324188361630        0.08435628157727
C           -2.15383935876150       -1.62379627236376        0.05857932151583
C           -0.81324746873466       -2.22540932217893        0.01985073091026
C            0.19873153439701       -1.65776806130229       -0.75092800283559
C            1.45968378927309       -2.21772982170049       -0.78142933963592
C            1.75293337967673       -3.35349208315447       -0.03388581060719
C            3.12618537305029       -3.98602102499691       -0.11648833449725
C            4.23686087836406       -2.95721040280467       -0.17549775548447
C            4.16119189226828       -1.80107873099633        0.59364660001009
C            5.19170636326138       -0.88285356929238        0.59038641565363
C            6.33747544388300       -1.09897487360655       -0.17175367598431
C            7.43338234580421       -0.12075965376799       -0.17515165408190
C            7.16719376241976        1.24684062717926       -0.20640790535184
C            8.19332582769934        2.16967665009523       -0.20549516768304
C            9.51790964861562        1.74241008069757       -0.17710014749116
N           10.56290432712977        2.67596912744920       -0.17666226087632
C           10.70706057511527        3.72803447846312       -1.05904321035382
C            9.92252567256596        4.08323921229270       -2.14710247421233
C           10.31099383490945        5.18038107147332       -2.89153043225771
C           11.45602606638261        5.90757846897011       -2.57344652163488
C           12.25353707936842        5.54474910022986       -1.50679003561647
C           11.88397648548091        4.44526791716909       -0.74326199489373
C           12.46956775781977        3.78878912597439        0.39162393642105
C           13.60335563340801        4.03140931103042        1.15583955242275
C           13.87346505000832        3.19732790026662        2.22205229926908
C           13.02143654685589        2.14161261076711        2.53921762844619
C           11.88769952878733        1.88003981882029        1.79421373344892
C           11.62389234214216        2.70015872599110        0.70637646957251
C            9.79428497279240        0.37826374942285       -0.14862051708742
C            8.76250295736358       -0.53828414340881       -0.14572860931420
C            6.41677869885328       -2.26599770473427       -0.92687126018195
C            5.38244046306852       -3.18185359921127       -0.92764198923800
C            3.12447407580129       -4.94421644116177       -1.29279487725574
C            2.88533899360016       -4.67364448582250       -2.62301131972167
C            2.92248540811838       -5.72198742909074       -3.53259586686145
C            3.18925739930845       -7.01677485572908       -3.11450089943042
C            3.42371743100529       -7.29569762125712       -1.77784062225277
C            3.38889804989040       -6.25336325469292       -0.86637525249633
C            3.59192259294025       -6.23990099820011        0.57314554399988
C            3.89295505160569       -7.26304226174564        1.45692371154192
C            4.03490739625588       -6.95876892282327        2.80105805756213
C            3.88177464418158       -5.65714774730665        3.25373192626597
C            3.58113208873224       -4.62768661470850        2.37200530310241
C            3.43204560963608       -4.92578316377982        1.03449141870023
C            0.74200787423624       -3.92978427908762        0.72392430277108
C           -0.52209442570240       -3.37295915438723        0.75201407442086
C           -3.29166810884999       -2.42152783915929        0.07711615425549
C           -4.53708788306815       -1.81300928697895        0.10898992343882
H           -7.08905268677613        0.72601990997937       -1.80832088638799
H           -7.14824516907153        1.50896564966384       -4.13833944129870
H           -9.30771796373314        1.98199731779522       -5.23059792094802
H          -11.41762254226252        1.64641973959608       -3.99629071550580
H          -11.34873693567987        0.80813646950752       -1.65585040202195
H           -9.79528565352968        2.88359141734117        0.14881894941360
H           -9.14506007094327        4.72272867819936        1.68791374589179
H           -7.68293280246121        4.23904473816216        3.61582959086722
H           -6.89629334483162        1.94474325868678        4.02555802368332
H           -7.52889892008257        0.12425974505016        2.47979272626017
H           -9.70147281738022       -2.63429426534427        0.19983265846019
H           -8.29041323918801       -4.65976358158941        0.16743029914795
H           -5.81914997661636       -4.45411315638829        0.11235315823333
H           -4.39819874091921        4.66770099448012        1.33623742008522
H           -4.86933127420712        5.41298453250788        3.65175635842205
H           -4.71610161899278        3.80038582114404        5.51265148462062
H           -4.10461354211399        1.45444889887757        5.06695802845704
H           -3.64776035113947        0.71452440242278        2.75461497109244
H           -6.38202600776559        2.84342228971035        0.42933681240503
H           -7.91910007161766        3.92339613988346       -1.17241774361196
H           -7.12433341303538        4.55556301505866       -3.41459597837849
H           -4.78447947716013        4.11619784836924       -4.06876301454637
H           -3.23078935985358        3.07421196042082       -2.43151129784125
H           -1.42029075569464        0.39933964930515        0.08987160649216
H           -0.01078155198040       -0.78040622994538       -1.34442049059680
H            2.23062114982305       -1.75942414992216       -1.38372464847922
H            3.28241528840100       -1.61206360195616        1.19326999418418
H            5.11760890692083        0.00336813266323        1.20365340442297
H            6.14374902200043        1.58972075892815       -0.24350795728243
H            7.97554745162948        3.22732241781214       -0.21392230618268
H            9.04322985802414        3.51577290767974       -2.41250823169892
H            9.71515054043242        5.47888393951559       -3.74159147332781
H           11.72408245001889        6.76090704308893       -3.17859999122574
H           13.14957196157855        6.09832846435874       -1.26947163690328
H           14.25454512780399        4.85950311916250        0.91950013269409
H           14.75134207038710        3.36695779759183        2.82769641910372
H           13.25027815855272        1.51545934012511        3.38913515688641
H           11.22415160541960        1.07060039323538        2.05919946547494
H           10.82103883392292        0.04374068495584       -0.14077254844282
H            8.98836125893316       -1.59379043720607       -0.10731722845885
H            7.28936097085077       -2.44896710470084       -1.53686048927494
H            5.46602402352900       -4.07913580181008       -1.52339459365233
H            2.67659260018092       -3.66785263122789       -2.95584801759086
H            2.74122030100211       -5.52569061462917       -4.57916279002666
H            3.21321220294682       -7.81674002847485       -3.84012129846999
H            3.62919101185599       -8.30519631188048       -1.45409415502964
H            4.01558072632821       -8.27700433642189        1.10626422514876
H            4.26945234526022       -7.74364525972493        3.50533145290455
H            3.99859733068402       -5.44056376260150        4.30546475826681
H            3.46453560688424       -3.61592809445971        2.73094856294703
H            0.94542489196598       -4.81856480445133        1.30314915203692
H           -1.28616185548326       -3.82254362732529        1.36945459926329
H           -3.21407536729063       -3.49722937405069        0.04339050495586

          :  Hamiltonian                  GFN2-xTB          :
         :: gradient norm              0.000028006241 Eh/a0 ::
         :: HOMO-LUMO gap              2.299846417668 eV    ::
         :: SCC energy              -220.507431295961 Eh    ::
         :: -> dispersion             -0.221369946701 Eh    ::
         :: repulsion energy           3.988314771838 Eh    ::

    * Orbital Energies and Occupations

         #    Occupation            Energy/Eh            Energy/eV
      -------------------------------------------------------------
         1        2.0000           -0.7527823             -20.4842
       ...           ...                  ...                  ...
       189        2.0000           -0.4077222             -11.0947
       190        2.0000           -0.4067354             -11.0678
       191        2.0000           -0.4058005             -11.0424
       192        2.0000           -0.4047431             -11.0136
       193        2.0000           -0.4023048             -10.9473
       194        2.0000           -0.4014676             -10.9245
       195        2.0000           -0.4008961             -10.9089
       196        2.0000           -0.3984456             -10.8423
       197        2.0000           -0.3903575             -10.6222
       198        2.0000           -0.3842919             -10.4571
       199        2.0000           -0.3813293             -10.3765
       200        2.0000           -0.3742839             -10.1848
       201        2.0000           -0.3576275              -9.7315 (HOMO)
       202                         -0.2731097              -7.4317 (LUMO)
       203                         -0.2640177              -7.1843
       204                         -0.2554947              -6.9524
       205                         -0.2523775              -6.8675
       206                         -0.2506772              -6.8213
       207                         -0.2495899              -6.7917
       208                         -0.2468333              -6.7167
       209                         -0.2450575              -6.6684
       210                         -0.2400456              -6.5320
       211                         -0.2397256              -6.5233
       212                         -0.2385899              -6.4924
       ...                                ...                  ...
       403                          1.2071336              32.8478
      -------------------------------------------------------------
                  HL-Gap            0.0845178 Eh            2.2998 eV

     #   Z          covCN         q      C6AA      α(0)
     1   8 O        0.808    -0.357    20.858     6.122
     2  15 P        4.077     0.080   156.710    22.487
     3   6 C        2.921     0.012    27.742     8.637
     4   6 C        2.973    -0.025    28.617     8.775
     5   6 C        2.920    -0.026    28.663     8.780
     6   6 C        2.921    -0.025    28.616     8.772
     7   6 C        2.919    -0.028    28.691     8.784
     8   6 C        3.031    -0.021    28.495     8.756
     9   6 C        2.922     0.021    27.548     8.607
    10   6 C        3.022    -0.018    28.425     8.745
    11   6 C        2.919    -0.025    28.636     8.775
    12   6 C        2.921    -0.025    28.622     8.773
    13   6 C        2.920    -0.026    28.650     8.778
    14   6 C        2.983    -0.015    28.386     8.739
    15   6 C        2.908    -0.012    28.308     8.724
    16   6 C        3.047    -0.025    28.571     8.767
    17   6 C        2.919    -0.036    28.898     8.815
    18   6 C        2.913    -0.030    28.750     8.792
    19   6 C        3.057    -0.020    28.445     8.746
    20   6 C        3.131     0.132    24.932     8.174
    21   8 O        1.715    -0.213    17.538     5.654
    22   6 C        3.130     0.128    24.999     8.186
    23   6 C        2.907    -0.014    28.373     8.734
    24  15 P        4.084     0.082   156.636    22.482
    25   8 O        0.808    -0.361    20.931     6.133
    26   6 C        2.921     0.017    27.637     8.621
    27   6 C        3.018    -0.018    28.424     8.745
    28   6 C        2.919    -0.025    28.627     8.774
    29   6 C        2.920    -0.024    28.614     8.772
    30   6 C        2.920    -0.026    28.643     8.776
    31   6 C        2.984    -0.020    28.500     8.757
    32   6 C        2.922     0.016    27.666     8.625
    33   6 C        2.974    -0.020    28.514     8.759
    34   6 C        2.921    -0.025    28.632     8.775
    35   6 C        2.920    -0.023    28.587     8.768
    36   6 C        2.919    -0.027    28.678     8.782
    37   6 C        3.035    -0.020    28.466     8.751
    38   6 C        3.057    -0.031    28.713     8.788
    39   6 C        2.975     0.006    27.887     8.662
    40   6 C        2.977     0.007    27.852     8.657
    41   6 C        2.924    -0.034    28.846     8.808
    42   6 C        2.923    -0.033    28.815     8.803
    43   6 C        2.980     0.018    27.612     8.620
    44   6 C        3.947     0.007    20.386     6.416
    45   6 C        2.980     0.016    27.659     8.627
    46   6 C        2.922    -0.034    28.853     8.809
    47   6 C        2.924    -0.035    28.870     8.811
    48   6 C        2.977     0.007    27.853     8.657
    49   6 C        2.976     0.007    27.854     8.657
    50   6 C        2.925    -0.033    28.834     8.806
    51   6 C        2.920    -0.043    29.075     8.842
    52   6 C        2.913     0.062    26.603     8.458
    53   7 N        2.802    -0.044    22.089     6.980
    54   6 C        3.076     0.047    26.873     8.499
    55   6 C        2.910    -0.051    29.264     8.870
    56   6 C        2.924    -0.034    28.837     8.806
    57   6 C        2.920    -0.041    29.022     8.834
    58   6 C        2.912    -0.033    28.822     8.803
    59   6 C        3.068    -0.017    28.370     8.734
    60   6 C        3.068    -0.017    28.370     8.734
    61   6 C        2.912    -0.033    28.823     8.803
    62   6 C        2.920    -0.041    29.024     8.835
    63   6 C        2.924    -0.034    28.840     8.807
    64   6 C        2.910    -0.051    29.267     8.871
    65   6 C        3.076     0.047    26.873     8.499
    66   6 C        2.920    -0.043    29.079     8.843
    67   6 C        2.925    -0.034    28.838     8.806
    68   6 C        2.925    -0.035    28.869     8.811
    69   6 C        2.922    -0.036    28.897     8.815
    70   6 C        3.058     0.004    27.876     8.658
    71   6 C        2.914    -0.033    28.834     8.805
    72   6 C        2.922    -0.032    28.802     8.801
    73   6 C        2.921    -0.033    28.811     8.802
    74   6 C        2.915    -0.034    28.845     8.807
    75   6 C        3.035     0.001    27.970     8.675
    76   6 C        3.035     0.001    27.972     8.675
    77   6 C        2.915    -0.034    28.845     8.807
    78   6 C        2.921    -0.033    28.812     8.802
    79   6 C        2.922    -0.032    28.802     8.801
    80   6 C        2.914    -0.033    28.832     8.805
    81   6 C        3.058     0.004    27.878     8.659
    82   6 C        2.922    -0.036    28.891     8.814
    83   6 C        2.924    -0.034    28.859     8.810
    84   6 C        2.918    -0.037    28.914     8.818
    85   6 C        3.054    -0.021    28.482     8.752
    86   1 H        0.926     0.042     2.427     2.436
    87   1 H        0.926     0.034     2.533     2.489
    88   1 H        0.926     0.038     2.477     2.461
    89   1 H        0.926     0.040     2.443     2.444
    90   1 H        0.926     0.065     2.146     2.291
    91   1 H        0.925     0.040     2.448     2.447
    92   1 H        0.926     0.038     2.473     2.459
    93   1 H        0.926     0.037     2.494     2.470
    94   1 H        0.926     0.035     2.511     2.478
    95   1 H        0.926     0.036     2.501     2.473
    96   1 H        0.926     0.074     2.039     2.233
    97   1 H        0.926     0.047     2.358     2.401
    98   1 H        0.926     0.045     2.379     2.412
    99   1 H        0.925     0.043     2.413     2.429
   100   1 H        0.926     0.039     2.465     2.455
   101   1 H        0.926     0.039     2.466     2.456
   102   1 H        0.926     0.037     2.488     2.467
   103   1 H        0.925     0.034     2.533     2.489
   104   1 H        0.926     0.041     2.436     2.441
   105   1 H        0.926     0.033     2.541     2.493
   106   1 H        0.926     0.036     2.496     2.471
   107   1 H        0.926     0.039     2.460     2.452
   108   1 H        0.926     0.060     2.202     2.321
   109   1 H        0.926     0.077     2.007     2.215
   110   1 H        0.926     0.039     2.457     2.451
   111   1 H        0.926     0.035     2.515     2.480
   112   1 H        0.926     0.032     2.560     2.502
   113   1 H        0.926     0.034     2.536     2.490
   114   1 H        0.926     0.038     2.469     2.457
   115   1 H        0.926     0.041     2.436     2.441
   116   1 H        0.926     0.027     2.628     2.535
   117   1 H        0.926     0.028     2.611     2.527
   118   1 H        0.926     0.027     2.628     2.535
   119   1 H        0.926     0.030     2.586     2.515
   120   1 H        0.926     0.030     2.585     2.514
   121   1 H        0.926     0.027     2.630     2.536
   122   1 H        0.926     0.028     2.616     2.529
   123   1 H        0.926     0.027     2.634     2.538
   124   1 H        0.926     0.040     2.449     2.447
   125   1 H        0.926     0.037     2.493     2.469
   126   1 H        0.926     0.032     2.555     2.499
   127   1 H        0.926     0.031     2.572     2.508
   128   1 H        0.926     0.030     2.584     2.514
   129   1 H        0.926     0.031     2.576     2.510
   130   1 H        0.926     0.031     2.579     2.511
   131   1 H        0.926     0.031     2.566     2.505
   132   1 H        0.926     0.031     2.567     2.505
   133   1 H        0.926     0.031     2.578     2.511
   134   1 H        0.926     0.031     2.576     2.510
   135   1 H        0.926     0.030     2.584     2.514
   136   1 H        0.926     0.033     2.546     2.495
   137   1 H        0.926     0.031     2.569     2.507
   138   1 H        0.926     0.046     2.372     2.408

molecular dipole:
                 x           y           z       tot (Debye)
 q only:       -0.198      -0.592      -0.259
   full:       -0.259      -0.683      -0.262       1.973

 projected vibrational frequencies (cm⁻¹)
eigval :       -0.00    -0.00     0.00     0.00     0.00     0.00
eigval :        4.18     5.06     7.65    10.77    13.73    17.49
eigval :       21.26    23.00    28.18    29.23    30.56    31.63
eigval :       34.30    37.30    39.55    41.32    49.96    54.71
eigval :       55.54    59.17    68.39    71.13    75.80    80.30
eigval :       81.74    85.55    87.33    91.92    97.55    98.03
eigval :      105.85   106.00   113.59   125.08   138.05   144.61
eigval :      148.09   149.24   152.94   156.44   164.89   173.52
eigval :      178.33   193.94   202.38   204.68   212.12   218.66
eigval :      229.11   230.84   237.00   238.75   242.18   254.78
eigval :      255.38   259.56   267.59   271.41   271.72   275.12
eigval :      283.67   294.81   298.39   303.21   319.65   333.76
eigval :      336.89   353.93   361.50   367.07   367.52   368.67
eigval :      371.11   374.00   379.72   383.66   385.12   390.45
eigval :      394.84   399.56   411.46   415.05   417.20   420.91
eigval :      429.99   432.81   435.35   441.54   446.33   455.12
eigval :      458.60   469.61   478.15   484.54   486.35   498.16
eigval :      503.33   508.70   514.65   519.00   522.29   531.36
eigval :      532.37   537.46   541.18   543.10   548.18   557.36
eigval :      574.12   582.37   585.95   586.16   586.74   587.27
eigval :      588.12   592.62   595.22   597.10   606.67   607.99
eigval :      615.96   619.05   623.42   636.62   657.34   658.46
eigval :      658.97   661.72   664.66   673.93   676.05   680.95
eigval :      683.83   687.95   691.72   699.70   701.08   704.82
eigval :      709.58   709.88   717.38   719.98   722.55   729.17
eigval :      740.83   742.44   743.78   745.10   753.35   755.51
eigval :      762.49   769.50   776.50   780.80   785.04   792.50
eigval :      801.58   804.99   814.56   833.18   843.35   855.40
eigval :      866.04   866.73   873.61   875.03   875.58   877.35
eigval :      877.59   878.21   878.84   879.96   881.51   882.42
eigval :      894.76   895.41   897.98   900.42   900.76   901.54
eigval :      902.28   902.70   903.83   904.79   905.72   908.86
eigval :      909.30   917.87   918.94   920.86   921.02   921.31
eigval :      921.74   925.46   927.01   927.18   927.32   927.74
eigval :      928.65   929.84   932.04   933.38   933.85   934.96
eigval :      935.24   935.34   936.83   937.85   940.50   972.98
eigval :      973.31   976.45   977.41   997.24  1007.95  1012.12
eigval :     1015.71  1024.92  1065.41  1070.29  1073.71  1076.22
eigval :     1078.18  1078.63  1078.91  1079.35  1081.60  1083.11
eigval :     1092.47  1102.47  1108.97  1112.70  1113.66  1115.24
eigval :     1115.74  1118.09  1123.76  1125.36  1130.98  1132.72
eigval :     1135.94  1144.03  1147.69  1149.97  1153.10  1162.77
eigval :     1176.53  1176.55  1176.98  1177.65  1179.50  1179.72
eigval :     1181.01  1181.53  1181.61  1184.01  1184.54  1188.78
eigval :     1189.69  1190.78  1193.34  1193.79  1201.31  1205.07
eigval :     1206.57  1210.35  1218.86  1227.85  1229.46  1237.13
eigval :     1238.71  1242.76  1245.31  1252.50  1255.58  1257.76
eigval :     1263.59  1267.84  1270.45  1271.30  1272.17  1273.56
eigval :     1277.43  1278.25  1285.93  1297.01  1304.05  1305.68
eigval :     1308.95  1315.91  1316.44  1320.00  1320.93  1322.89
eigval :     1323.05  1324.07  1327.42  1340.34  1353.79  1357.85
eigval :     1362.49  1366.34  1371.18  1380.99  1389.61  1393.50
eigval :     1403.77  1414.04  1423.63  1424.67  1425.37  1427.40
eigval :     1428.67  1429.02  1432.10  1432.94  1453.37  1453.42
eigval :     1453.89  1456.45  1457.61  1462.47  1470.68  1472.75
eigval :     1476.80  1479.61  1488.90  1500.76  1509.90  1554.92
eigval :     1558.56  1568.61  1572.58  1575.52  1578.97  1583.53
eigval :     1584.31  1585.22  1586.25  1586.30  1586.48  1587.44
eigval :     1587.63  1588.71  1588.85  1589.25  1594.30  1595.11
eigval :     1599.11  1599.23  1602.24  1604.52  1606.05  1610.22
eigval :     1615.56  3050.99  3059.17  3061.05  3066.66  3072.87
eigval :     3073.55  3073.75  3073.97  3074.01  3074.48  3075.15
eigval :     3075.63  3075.71  3076.70  3077.54  3078.30  3078.37
eigval :     3078.85  3079.86  3080.16  3080.53  3081.22  3081.25
eigval :     3081.43  3082.88  3083.98  3084.62  3085.21  3086.33
eigval :     3086.34  3087.21  3087.70  3087.83  3088.60  3089.22
eigval :     3089.35  3089.42  3090.27  3091.31  3091.54  3092.27
eigval :     3093.05  3093.29  3093.40  3094.36  3094.47  3094.70
eigval :     3096.26  3097.60  3097.73  3101.06  3101.63  3114.98

   temp. (K)  partition function   enthalpy   heat capacity  entropy
                                   cal/mol     cal/K/mol   cal/K/mol   J/K/mol
 298.15  VIB  0.313E+36            42134.184    257.898    267.702
         ROT  0.674E+09              888.752      2.981     43.378
         INT  0.211E+45            43022.936    260.879    311.080
         TR   0.366E+29             1481.254      4.968     46.915
         TOT                       44504.1902   265.8473   357.9950  1497.8512

       T/K    H(0)-H(T)+PV         H(T)/Eh          T*S/Eh         G(T)/Eh
   ------------------------------------------------------------------------
    298.15    0.709219E-01    0.112341E+01    0.170095E+00    0.953311E+00
   ------------------------------------------------------------------------

         :::::::::::::::::::::::::::::::::::::::::::::::::::::
         ::                  THERMODYNAMIC                  ::
         :::::::::::::::::::::::::::::::::::::::::::::::::::::
         :: total free energy        -215.565806009994 Eh   ::
         ::.................................................::
         :: total energy             -216.519116524123 Eh   ::
         :: zero point energy           1.052483567620 Eh   ::
         :: G(RRHO) w/o ZPVE           -0.099173053491 Eh   ::
         :: G(RRHO) contrib.            0.953310514128 Eh   ::
         :::::::::::::::::::::::::::::::::::::::::::::::::::::

           -------------------------------------------------
          | TOTAL ENERGY             -216.519116524123 Eh   |
          | TOTAL ENTHALPY           -215.395711015068 Eh   |
          | TOTAL FREE ENERGY        -215.565806009994 Eh   |
          | GRADIENT NORM               0.000028000009 Eh/α |
          | HOMO-LUMO GAP               2.299846357248 eV   |
           -------------------------------------------------

 * finished run on 2025/07/17 at 10:46:24.573
