   * xtb version 6.7.1 (edcfbbe) compiled by 'albert@albert-system' on 2024-07-22

   ID    Z sym.   atoms
    1    8 O      1, 21, 25
    2   15 P      2, 24
    3    6 C      3-20, 22, 23, 26-52, 54-85
    4    7 N      53
    5    1 H      86-138

          program call               : xtb data2507/gas/9PhCzFDBFDPO/9PhCzFDBFDPO_gas_S0_finalOpt.xtbopt.xyz --gfn 2 --spinpol --tblite --uhf 2 --ohess vtight --parallel 40 --molden --ceasefiles --namespace data2507/gas/9PhCzFDBFDPO/9PhCzFDBFDPO_gas_T1_preOpt
 * total energy  :  -216.4093326 Eh     change        0.2216197E-07 Eh
 * total energy  :  -216.4125299 Eh     change       -0.3197279E-02 Eh
 * total energy  :  -216.4151147 Eh     change       -0.2584792E-02 Eh
 * total energy  :  -216.4157473 Eh     change       -0.6326382E-03 Eh
 * total energy  :  -216.4167082 Eh     change       -0.9608039E-03 Eh
 * total energy  :  -216.4170186 Eh     change       -0.3104001E-03 Eh
 * total energy  :  -216.4174053 Eh     change       -0.3867024E-03 Eh
 * total energy  :  -216.4177000 Eh     change       -0.2946993E-03 Eh
 * total energy  :  -216.4178534 Eh     change       -0.1534783E-03 Eh
 * total energy  :  -216.4179731 Eh     change       -0.1196258E-03 Eh
 * total energy  :  -216.4202706 Eh     change       -0.6059250E-06 Eh
 * total energy  :  -216.4202712 Eh     change       -0.6729272E-06 Eh
 * total energy  :  -216.4202720 Eh     change       -0.8115833E-06 Eh
 * total energy  :  -216.4202729 Eh     change       -0.9114761E-06 Eh
 * total energy  :  -216.4202739 Eh     change       -0.9429099E-06 Eh
 * total energy  :  -216.4202743 Eh     change       -0.4127202E-06 Eh
 * total energy  :  -216.4202751 Eh     change       -0.8254366E-06 Eh
 * total energy  :  -216.4202761 Eh     change       -0.9463435E-06 Eh
 * total energy  :  -216.4202761 Eh     change       -0.2085648E-07 Eh
   *** GEOMETRY OPTIMIZATION CONVERGED AFTER 221 ITERATIONS ***

 final structure:
================
138
 xtb: 6.7.1 (edcfbbe)
O          -10.67248063707430       -0.31959642105427        0.34504948871765
P           -9.31363017894055        0.11337311982312       -0.00503407678618
C           -9.20737480420614        0.78166167695804       -1.69539897194716
C           -8.00479165488472        1.00013759771225       -2.35306880782239
C           -8.01178805799658        1.47351527878097       -3.65237476128650
C           -9.21239026698700        1.73812749789651       -4.29185733016165
C          -10.41335400173394        1.52177983095903       -3.63553833831658
C          -10.41024471222091        1.03688083865375       -2.34030767122941
C           -8.71167917010476        1.40766629964149        1.12561345470309
C           -9.18947840047335        2.69635994756144        0.93473270487758
C           -8.85428163181618        3.69753647829088        1.82828528788846
C           -8.05643733891753        3.40390783413296        2.92275241916785
C           -7.60812964485997        2.11009153544230        3.13126672345740
C           -7.93487003722546        1.10898833405243        2.23362475388819
C           -8.11168339224427       -1.25066282005660        0.04197374537626
C           -8.64972655726059       -2.53326219334351        0.01742315150042
C           -7.85046390520596       -3.66890026938504       -0.00721699068749
C           -6.47340713004580       -3.56255293681674       -0.01346516370780
C           -5.91019707326893       -2.29163818321027        0.01815397016818
C           -6.72837002724423       -1.14521226730313        0.04938512086465
O           -5.98457419647538       -0.00278283066173        0.09264870984122
C           -4.68130821880800       -0.39376053821920        0.08352479980832
C           -3.55415145964736        0.41381638145017        0.11619397936474
P           -3.50601682393507        2.22648968612336        0.26758557315776
O           -2.15270139683575        2.74723523583402        0.02914444753107
C           -4.08038359731451        2.60214300513370        1.95738487495384
C           -4.41294606368257        3.91812318200505        2.24801281405960
C           -4.69545213867570        4.28864248457901        3.54948515115438
C           -4.63312203315376        3.34717060831141        4.56472998531697
C           -4.29275010434869        2.03578980833610        4.27646724908880
C           -4.01418652614352        1.66139001901191        2.97296051509538
C           -4.73084602484384        2.93756840090969       -0.87261972223427
C           -6.05255034107162        3.16987198341696       -0.52236444076747
C           -6.89540480880710        3.79565894980784       -1.42335314623012
C           -6.42742824177446        4.17503408563580       -2.67091480856781
C           -5.11048612841081        3.92913069190564       -3.02535728155494
C           -4.26054407778204        3.31618079053948       -2.12318645096704
C           -2.31761163077988       -0.21758291670377        0.07464304168480
C           -2.17698994317156       -1.60691015131394        0.01923923982625
C           -0.83686195224027       -2.21036308320492       -0.01215892890542
C            0.18458734359400       -1.63786175716803       -0.76649764281409
C            1.44429206968680       -2.20135229659570       -0.78919761075104
C            1.72575363439687       -3.34408582866876       -0.04802063328191
C            3.09838624533521       -3.97660129300405       -0.11646741737160
C            4.21322597934780       -2.96397460229920       -0.15995085968853
C            4.14081767407962       -1.77997544019530        0.59786836378317
C            5.16863273458395       -0.88596205738037        0.62259135878388
C            6.37978329901067       -1.09681367151683       -0.11789153439615
C            7.43511983153733       -0.17025242341544       -0.11520357970260
C            7.47266772209847        0.96012372951924        0.78151921980415
C            8.48225825793124        1.86422940956387        0.76893809749894
C            9.58028107059928        1.72603369301158       -0.12095040560573
N           10.61298198760198        2.63969979974151       -0.12474195467717
C           10.48056348033790        4.01699793134818       -0.05901323459306
C            9.33118688858931        4.79511185777279       -0.05242643443570
C            9.47968075480690        6.16965995273865       -0.01850062697764
C           10.74024704030292        6.76378979761226       -0.00582893888399
C           11.88926822129658        5.99630450472898       -0.05304948641902
C           11.76491716877823        4.61529677382288       -0.08877006553427
C           12.71418184102324        3.54159012732242       -0.17823513232061
C           14.09975942909877        3.49597895559611       -0.22219108659901
C           14.72089505045692        2.26155729906186       -0.26560237770357
C           13.97731005440988        1.08310584552918       -0.24113687768298
C           12.59515269782232        1.10395830868001       -0.19927319286794
C           11.96326912399407        2.33977970323312       -0.19658392540688
C            9.58064770213869        0.61618002564161       -1.00690851476896
C            8.56003655238983       -0.27556456541613       -1.01335217730059
C            6.43612885368851       -2.32578283406963       -0.85734872226231
C            5.40334694319745       -3.21573219510575       -0.86412617657025
C            3.12264827230700       -4.94545379921704       -1.28369942749525
C            2.88461714729821       -4.69002438487197       -2.61676909896607
C            2.95312073232454       -5.74398021127309       -3.51832148218395
C            3.25151524090149       -7.02832805400999       -3.08922132109696
C            3.48590479530395       -7.29182843882805       -1.74949575139678
C            3.41887166675419       -6.24426747848574       -0.84539677118643
C            3.61048984922007       -6.21510007163804        0.59453419482075
C            3.92917203290264       -7.22342599066220        1.48938971963224
C            4.04299017131389       -6.90770864669269        2.83325059113400
C            3.84464784990868       -5.60794008731010        3.27640807171773
C            3.52984547391738       -4.59223253189275        2.38491116752891
C            3.40689145521384       -4.90271297282878        1.04682769403846
C            0.70587331554902       -3.92510521232779        0.69384905299650
C           -0.55715868453365       -3.36594497815090        0.71212189283838
C           -3.31438301007171       -2.40516751924930        0.00473189338224
C           -4.56180975732472       -1.79683665411134        0.03183661861314
H           -7.06966538787205        0.80871329882215       -1.85174196396686
H           -7.07614414499550        1.63845018600534       -4.16644510448200
H           -9.21140844024657        2.10962344472050       -5.30631733690537
H          -11.34907794389663        1.72528262585262       -4.13558339190494
H          -11.33205138599638        0.84151490192277       -1.81086526249509
H           -9.82826288782323        2.89740317371563        0.08413583742285
H           -9.21697349999577        4.70401634697153        1.67729865152395
H           -7.79170412232486        4.18229998127937        3.62286251203024
H           -7.00372202766189        1.88221576873804        3.99629040678368
H           -7.59600487517296        0.09526926989886        2.39600416100144
H           -9.72640413465077       -2.61932892275250        0.02658618873640
H           -8.31434908703584       -4.64349833925879       -0.02447635379821
H           -5.84239126713906       -4.43740028793079       -0.03911406615903
H           -4.43832914758290        4.64441561728951        1.44637648099554
H           -4.95288301657784        5.31308266620404        3.77619107724036
H           -4.84527549477916        3.63732037232045        5.58363783172128
H           -4.23720761289498        1.30420482245083        5.07008786991740
H           -3.73767195470266        0.64118120442352        2.74337117086064
H           -6.41283038667474        2.86870158184526        0.44970658890337
H           -7.92116762175455        3.99107384136334       -1.14971932809761
H           -7.09216811338374        4.66515431179017       -3.36728375879200
H           -4.74603269884739        4.22513083516177       -3.99848509044863
H           -3.22128695009530        3.13954104002415       -2.36236042845670
H           -1.44173523104349        0.41400280044665        0.10799297056719
H           -0.01674348592220       -0.75355396483151       -1.35256667777820
H            2.22425930678026       -1.74219157269835       -1.37959411979682
H            3.24167900961066       -1.57207290084851        1.16077312020132
H            5.04877366416370        0.01616104485692        1.20007194758965
H            6.69671396743956        1.06892537582649        1.52097636496390
H            8.50227364835798        2.66785159111634        1.49055058257064
H            8.35002969756919        4.34842129240569       -0.09255699056749
H            8.59991736713480        6.79518188701208       -0.00961013975353
H           10.81603452588682        7.84033020290016        0.02498978095390
H           12.86463615070403        6.45835085785122       -0.06997660104207
H           14.67756553923592        4.40767243918647       -0.21439516401576
H           15.79843718567019        2.20499000411473       -0.30253335007012
H           14.49072279789511        0.13344316536866       -0.24693737405759
H           12.03193069779879        0.18509314013889       -0.14998540864689
H           10.37836622481248        0.53572017734479       -1.73092203376632
H            8.57002638188733       -1.06109686964246       -1.75075597612787
H            7.32963139108692       -2.57438935662804       -1.40653651399107
H            5.49554595111473       -4.13443500771519       -1.42603729768732
H            2.65113019822105       -3.69224143096461       -2.95720759911586
H            2.77141697062607       -5.56037211077877       -4.56712578047439
H            3.30026862590566       -7.83259234286662       -3.80893114199927
H            3.71617989747111       -8.29328063033403       -1.41740195265515
H            4.08584445996353       -8.23541061236740        1.14642714290664
H            4.28998964731965       -7.68131068942019        3.54570142672027
H            3.93686286327262       -5.38328922427988        4.32890308492278
H            3.37911995731848       -3.58213506810500        2.73554820540439
H            0.90239964028261       -4.81908460916696        1.26776636695051
H           -1.33015529590860       -3.81918976397282        1.31564400996519
H           -3.23611538173279       -3.47984373379411       -0.05113082963344

 projected vibrational frequencies (cm⁻¹)
eigval :       -0.00    -0.00    -0.00     0.00     0.00     0.00
eigval :        4.38     5.11     6.84     9.63    13.37    17.53
eigval :       22.30    23.32    25.76    28.22    29.22    31.57
eigval :       32.25    36.28    40.49    42.36    49.68    54.45
eigval :       55.76    56.26    66.17    71.51    79.96    80.61
eigval :       81.44    85.66    87.48    93.42    94.99    98.32
eigval :      106.68   110.59   117.99   124.30   126.59   138.92
eigval :      145.66   148.52   150.38   156.68   157.22   166.91
eigval :      174.69   196.17   202.44   208.10   215.19   218.65
eigval :      229.86   230.97   237.61   238.78   241.90   245.90
eigval :      255.49   255.69   267.43   270.99   272.67   275.31
eigval :      280.05   289.74   296.71   300.82   304.13   323.94
eigval :      333.35   336.77   354.71   361.46   362.03   366.92
eigval :      368.73   371.01   375.10   378.83   380.94   387.72
eigval :      393.16   395.58   398.22   410.89   413.95   415.09
eigval :      416.93   430.69   435.01   436.02   440.56   446.48
eigval :      450.00   458.12   464.53   470.41   479.48   484.02
eigval :      494.91   500.26   507.65   514.21   514.73   521.19
eigval :      530.22   533.47   537.46   543.76   547.30   555.00
eigval :      568.35   571.38   582.72   585.16   586.01   586.21
eigval :      586.97   587.43   589.61   591.07   594.17   595.42
eigval :      607.62   610.28   621.21   634.67   637.60   657.24
eigval :      657.31   658.71   659.10   661.78   667.27   670.37
eigval :      676.10   680.56   685.94   689.40   692.32   699.84
eigval :      705.06   706.80   716.91   719.82   722.08   725.79
eigval :      740.35   741.22   742.44   743.59   745.14   754.16
eigval :      755.47   766.62   766.85   775.10   778.00   781.09
eigval :      782.07   784.61   790.99   792.08   797.76   812.78
eigval :      841.31   850.50   863.62   869.22   869.56   874.91
eigval :      876.23   877.34   877.65   878.42   880.24   881.57
eigval :      887.82   888.71   892.55   892.92   894.93   896.56
eigval :      898.20   900.50   901.32   902.76   904.21   904.58
eigval :      905.34   907.20   908.53   910.40   911.28   913.21
eigval :      917.17   918.56   921.26   922.01   922.68   925.29
eigval :      925.52   927.10   927.20   928.70   929.74   933.29
eigval :      933.92   934.66   935.16   935.28   936.71   949.50
eigval :      973.05   973.42   975.28   976.51   977.43   989.59
eigval :     1004.49  1008.46  1016.53  1064.05  1068.31  1071.35
eigval :     1075.49  1078.28  1078.68  1078.87  1079.43  1081.03
eigval :     1092.08  1102.24  1105.28  1110.58  1112.73  1113.75
eigval :     1115.36  1115.80  1123.52  1125.23  1130.78  1131.35
eigval :     1132.49  1141.94  1143.33  1146.04  1146.39  1161.00
eigval :     1166.75  1174.26  1175.17  1176.65  1176.94  1179.60
eigval :     1179.81  1180.28  1181.15  1181.80  1183.38  1187.91
eigval :     1189.52  1190.80  1193.31  1193.76  1198.37  1203.40
eigval :     1205.64  1216.48  1218.67  1223.74  1225.26  1227.31
eigval :     1232.06  1236.74  1240.37  1250.75  1253.94  1254.88
eigval :     1256.68  1258.29  1267.73  1270.49  1271.39  1272.14
eigval :     1273.68  1274.47  1276.34  1286.27  1288.54  1306.10
eigval :     1308.77  1319.18  1319.96  1321.01  1323.11  1324.09
eigval :     1326.66  1329.96  1334.16  1342.01  1342.67  1346.26
eigval :     1356.16  1365.00  1366.42  1375.54  1378.35  1385.12
eigval :     1386.68  1400.15  1403.90  1410.99  1423.85  1424.91
eigval :     1424.94  1425.79  1427.61  1428.52  1435.40  1451.90
eigval :     1453.69  1454.38  1454.76  1457.29  1457.94  1459.51
eigval :     1460.89  1467.69  1470.43  1473.30  1482.88  1498.92
eigval :     1509.94  1526.18  1528.91  1558.56  1559.37  1566.27
eigval :     1570.43  1572.48  1573.39  1576.28  1580.80  1582.98
eigval :     1584.01  1586.05  1586.24  1586.54  1586.74  1586.83
eigval :     1588.78  1588.86  1589.93  1596.64  1598.02  1602.44
eigval :     1607.33  3050.70  3058.97  3061.76  3067.19  3070.13
eigval :     3071.95  3072.98  3073.19  3073.36  3074.08  3074.48
eigval :     3074.59  3075.78  3077.15  3077.19  3077.53  3078.13
eigval :     3078.77  3079.55  3079.84  3081.04  3081.87  3082.66
eigval :     3083.49  3084.35  3085.58  3085.66  3086.49  3087.12
eigval :     3087.48  3087.57  3088.52  3089.09  3089.39  3090.70
eigval :     3090.94  3091.09  3092.87  3093.06  3094.16  3095.26
eigval :     3096.80  3097.12  3097.27  3100.18  3100.51  3100.83
eigval :     3101.10  3101.54  3102.55  3113.82  3114.79  3115.92

   temp. (K)  partition function   enthalpy   heat capacity  entropy
                                   cal/mol     cal/K/mol   cal/K/mol   J/K/mol
 298.15  VIB  0.702E+36            42520.959    260.115    270.089
         ROT  0.674E+09              888.752      2.981     43.378
         INT  0.473E+45            43409.712    263.095    313.467
         TR   0.366E+29             1481.254      4.968     46.915
         TOT                       44890.9658   268.0636   360.3816  1507.8366

       T/K    H(0)-H(T)+PV         H(T)/Eh          T*S/Eh         G(T)/Eh
   ------------------------------------------------------------------------
    298.15    0.715383E-01    0.111950E+01    0.171229E+00    0.948273E+00
   ------------------------------------------------------------------------

         :::::::::::::::::::::::::::::::::::::::::::::::::::::
         ::                  THERMODYNAMIC                  ::
         :::::::::::::::::::::::::::::::::::::::::::::::::::::
         :: total free energy        -215.472003403138 Eh   ::
         ::.................................................::
         :: total energy             -216.420276099552 Eh   ::
         :: zero point energy           1.047963312076 Eh   ::
         :: G(RRHO) w/o ZPVE           -0.099690615661 Eh   ::
         :: G(RRHO) contrib.            0.948272696415 Eh   ::
         :::::::::::::::::::::::::::::::::::::::::::::::::::::

           -------------------------------------------------
          | TOTAL ENERGY             -216.420276099552 Eh   |
          | TOTAL ENTHALPY           -215.300774479920 Eh   |
          | TOTAL FREE ENERGY        -215.472003403138 Eh   |
          | GRADIENT NORM               0.000103525269 Eh/α |
           -------------------------------------------------

 * finished run on 2025/07/17 at 10:47:53.644
