   * xtb version 6.7.1 (edcfbbe) compiled by 'albert@albert-system' on 2024-07-22

   ID    Z sym.   atoms
    1    6 C      1-5, 7-12, 14-29, 31-37, 39-56
    2    7 N      6, 13, 30, 38
    3    1 H      57-90

          program call               : xtb data2507/toluene/pzpy/pzpy_toluene_S0_finalOpt.xtbopt.xyz --gfn 2 --uhf 2 --gbsa toluene --ohess vtight --parallel 40 --molden --ceasefiles --namespace data2507/toluene/pzpy/pzpy_toluene_T1_preOpt
      * Solvation model:               GBSA
        Solvent                        toluene
        Solvent mass                       9.2140E+01 g/mol
          :  Hamiltonian                  GFN2-xTB          :
 * total energy  :  -140.4266697 Eh     change       -0.3358338E-08 Eh
 * total energy  :  -140.4327216 Eh     change       -0.6051948E-02 Eh
 * total energy  :  -140.4341147 Eh     change       -0.1393011E-02 Eh
 * total energy  :  -140.4342598 Eh     change       -0.1451625E-03 Eh
 * total energy  :  -140.4344368 Eh     change       -0.1769364E-03 Eh
 * total energy  :  -140.4345608 Eh     change       -0.1240577E-03 Eh
 * total energy  :  -140.4347247 Eh     change       -0.1639370E-03 Eh
 * total energy  :  -140.4348968 Eh     change       -0.1720355E-03 Eh
 * total energy  :  -140.4349918 Eh     change       -0.9499133E-04 Eh
 * total energy  :  -140.4350439 Eh     change       -0.5211399E-04 Eh
 * total energy  :  -140.4366940 Eh     change       -0.3144406E-05 Eh
 * total energy  :  -140.4366969 Eh     change       -0.2849736E-05 Eh
 * total energy  :  -140.4366999 Eh     change       -0.2995007E-05 Eh
 * total energy  :  -140.4367034 Eh     change       -0.3503150E-05 Eh
 * total energy  :  -140.4367075 Eh     change       -0.4119092E-05 Eh
 * total energy  :  -140.4367117 Eh     change       -0.4135114E-05 Eh
 * total energy  :  -140.4367149 Eh     change       -0.3244942E-05 Eh
 * total energy  :  -140.4367171 Eh     change       -0.2171400E-05 Eh
 * total energy  :  -140.4367171 Eh     change       -0.8090723E-08 Eh
   *** GEOMETRY OPTIMIZATION CONVERGED AFTER 94 ITERATIONS ***

 final structure:
================
90
 xtb: 6.7.1 (edcfbbe)
C           -6.90833325348319       -4.67437900897503       -0.13783802597749
C           -6.20110733386324       -3.79443619031147        0.66535451928961
C           -6.53226042837361       -2.45218115383565        0.69122870717629
C           -7.57844953437542       -1.97526563406865       -0.09680591521084
C           -7.97200768443703       -0.57296013283743       -0.09137546497302
N           -9.21722593328468       -0.18210497432235       -0.16465586574955
C           -9.19253848930606        1.18394276612727       -0.08787331520806
C          -10.23241464979872        2.10717243804273       -0.12540704418362
C           -9.90448725609739        3.44457442741382       -0.05021411881852
C           -8.57763179495210        3.86925925401403        0.05000507256834
C           -7.53052469664153        2.97011703913193        0.09276911593010
C           -7.85354065288971        1.62353707253073        0.03797981715694
N           -7.08687827045005        0.47827354519885        0.03451782702250
C           -5.68351117563155        0.43655389550350        0.03225212715860
C           -4.96382228174746        1.13552469774806        0.99901378205838
C           -3.58576386133600        1.12454426754290        0.97676603290688
C           -2.88275728493200        0.40141547779853        0.00491980110067
C           -1.42541154505301        0.39471129926200       -0.01019485328906
C           -0.71271931835774        1.63345164364206       -0.04289618477945
C           -1.37262377309539        2.86032277014172       -0.16363960000721
C           -0.68235168955518        4.06933987163591       -0.10693065557035
C            0.68345523169113        4.06926124927049        0.07863066277124
C            1.37343683827322        2.86015950438574        0.13730578041186
C            0.71332505932113        1.63322904198900        0.01827379976167
C            1.42526089039225        0.39395569782936       -0.01147108674753
C            2.88260436441229        0.39894557230372       -0.02040055513404
C            3.59195429809695        1.12106890553185       -0.98838284411904
C            4.97017819079218        1.13109105173165       -1.00224261603370
C            5.68353961138757        0.43185873984213       -0.03102024793151
N            7.08690335807992        0.47345159298652       -0.02419813694963
C            7.97137363925538       -0.57781695020501        0.10591671505464
C            7.57797429336004       -1.98016489644080        0.10736242425424
C            8.29751519006245       -2.87639910426381        0.89713909284966
C            7.96021402826014       -4.21633926252004        0.91536299239790
C            6.90810360632159       -4.67945908481928        0.14094845997566
C            6.20493288994775       -3.79845437838361       -0.66463090141972
C            6.53600057012987       -2.45611414336903       -0.68682126952662
N            9.21608872100038       -0.18685733644965        0.18706949562194
C            9.19169767431409        1.17925021976123        0.11139465438817
C           10.23117611271998        2.10263351220379        0.15586400634225
C            9.90346445919437        3.44004755474790        0.07993734845928
C            8.57713718349448        3.86463932051339       -0.02759512011299
C            7.53045983078550        2.96535941556869       -0.07737129677004
C            7.85339876727508        1.61879363032564       -0.02192411292547
C            4.99380498914160       -0.28481935704792        0.94540465093930
C            3.61654655133560       -0.31026246947184        0.93953672796772
C            0.71280192496521       -0.84498557825892       -0.03855292505116
C            1.37380501023556       -2.07210408942067       -0.14906698988536
C            0.68281567625591       -3.28085538969765       -0.09546675168167
C           -0.68497490443197       -3.28048013509218        0.07527762884407
C           -1.37541784526114       -2.07139702982986        0.12806341704083
C           -0.71382935032545       -0.84464080423190        0.01682968721222
C           -3.62285065292694       -0.30690452686363       -0.95085769660929
C           -5.00016355108525       -0.28021725673810       -0.94855892148054
C           -8.30196827576052       -2.87044982051864       -0.88411923300337
C           -7.96459400968259       -4.21031694830147       -0.90601509644851
H           -6.64283429404609       -5.72102949857990       -0.15791308369685
H           -5.39034177379721       -4.15581405930342        1.28090207207032
H           -5.99019358395167       -1.77837209277152        1.33847406582820
H          -11.25471806535571        1.77511179592786       -0.21643858794809
H          -10.68926099689166        4.18639558734318       -0.07701834947555
H           -8.36677273972611        4.92765015136938        0.09367522702231
H           -6.50588733217629        3.30406729319575        0.15896538194056
H           -5.49345767179857        1.66931526325486        1.77454952025945
H           -3.03551582283782        1.65046199779940        1.74292487286496
H           -2.44143043851076        2.87610420616577       -0.31105177366095
H           -1.22578725277611        4.99844105329981       -0.19422964585976
H            1.22714473256921        4.99834227646436        0.16457325849449
H            2.44215775647674        2.87602419193984        0.28524106488413
H            3.04687889797947        1.64699847711765       -1.75821168342002
H            5.50493763008395        1.66455400263388       -1.77448901008554
H            9.11650999287030       -2.50005436902023        1.49092558103596
H            8.51952400815888       -4.90169341225449        1.53499876744020
H            6.64267968386457       -5.72617696432015        0.15809448027863
H            5.39738066318464       -4.15905221361464       -1.28484476381320
H            5.99719454787515       -1.78147707141218       -1.33591371405830
H           11.25298498585656        1.77068005780281        0.25263145309617
H           10.68793522159161        4.18197896765424        0.11203028105552
H            8.36637564438602        4.92303645461357       -0.07157528069790
H            6.50616539298584        3.29915290541992       -0.14940862991696
H            5.54723166974633       -0.81274671214997        1.70807402168308
H            3.09108653022946       -0.84799826840627        1.71440737952848
H            2.44415875905746       -2.08800705324279       -0.28250106506197
H            1.22761729419659       -4.20984890293785       -0.17393099970696
H           -1.23016575534912       -4.20917816302834        0.15455040441743
H           -2.44575136788373       -2.08669605849570        0.26162112882856
H           -3.10252279512595       -0.84507881117191       -1.72888966518327
H           -5.55856304233710       -0.80751084723370       -1.70803655382164
H           -9.12398982411181       -2.49333663741210       -1.47321661361901
H           -8.52699205103966       -4.89482757886004       -1.52378551222482

          :  Hamiltonian                  GFN2-xTB          :
         :: gradient norm              0.000067008728 Eh/a0 ::
         :: HOMO-LUMO gap              0.835269742855 eV    ::
         :: SCC energy              -143.057237174585 Eh    ::
         :: -> dispersion             -0.131383779944 Eh    ::
         :: -> Gsolv                  -0.061111598162 Eh    ::
         :: repulsion energy           2.620520099417 Eh    ::

    * Orbital Energies and Occupations

         #    Occupation            Energy/Eh            Energy/eV
      -------------------------------------------------------------
         1        2.0000           -0.6901349             -18.7795
       ...           ...                  ...                  ...
       120        2.0000           -0.4124761             -11.2240
       121        2.0000           -0.4103561             -11.1664
       122        2.0000           -0.4064497             -11.0601
       123        2.0000           -0.4057600             -11.0413
       124        2.0000           -0.4032720             -10.9736
       125        2.0000           -0.3856079             -10.4929
       126        2.0000           -0.3844931             -10.4626
       127        2.0000           -0.3838459             -10.4450
       128        2.0000           -0.3837610             -10.4427
       129        2.0000           -0.3819292             -10.3928
       130        2.0000           -0.3816263             -10.3846
       131        1.0000           -0.3551041              -9.6629
       132        1.0000           -0.2948672              -8.0237 (HOMO)
       133                         -0.2641717              -7.1885 (LUMO)
       134                         -0.2635548              -7.1717
       135                         -0.2406819              -6.5493
       136                         -0.2402007              -6.5362
       137                         -0.2382950              -6.4843
       138                         -0.2379891              -6.4760
       139                         -0.2318957              -6.3102
       140                         -0.2297057              -6.2506
       141                         -0.2294407              -6.2434
       142                         -0.2271302              -6.1805
       143                         -0.2207930              -6.0081
       ...                                ...                  ...
       258                          0.7053335              19.1931
      -------------------------------------------------------------
                  HL-Gap            0.0306956 Eh            0.8353 eV

     #   Z          covCN         q      C6AA      α(0)
     1   6 C        2.919    -0.027    28.683     8.783
     2   6 C        2.919    -0.028    28.708     8.786
     3   6 C        2.922    -0.032    28.808     8.802
     4   6 C        2.975    -0.000    28.036     8.685
     5   6 C        3.178     0.144    24.505     8.082
     6   7 N        1.886    -0.320    29.139     8.002
     7   6 C        3.188     0.069    26.008     8.320
     8   6 C        2.910    -0.048    29.180     8.858
     9   6 C        2.922    -0.041    29.028     8.835
    10   6 C        2.926    -0.039    28.981     8.828
    11   6 C        2.908    -0.053    29.327     8.880
    12   6 C        3.087     0.036    27.105     8.534
    13   7 N        2.824    -0.057    22.338     7.020
    14   6 C        2.912     0.060    26.654     8.466
    15   6 C        2.918    -0.042    29.051     8.839
    16   6 C        2.924    -0.031    28.774     8.797
    17   6 C        2.973     0.016    27.647     8.625
    18   6 C        2.972    -0.009    28.249     8.718
    19   6 C        2.977     0.009    27.804     8.649
    20   6 C        2.921    -0.038    28.933     8.821
    21   6 C        2.913    -0.031    28.768     8.795
    22   6 C        2.913    -0.031    28.768     8.795
    23   6 C        2.921    -0.038    28.934     8.821
    24   6 C        2.977     0.009    27.804     8.649
    25   6 C        2.972    -0.009    28.249     8.718
    26   6 C        2.973     0.016    27.647     8.625
    27   6 C        2.924    -0.031    28.775     8.797
    28   6 C        2.918    -0.042    29.051     8.839
    29   6 C        2.912     0.060    26.654     8.466
    30   7 N        2.824    -0.057    22.338     7.020
    31   6 C        3.178     0.144    24.505     8.083
    32   6 C        2.975    -0.001    28.036     8.685
    33   6 C        2.927    -0.028    28.694     8.785
    34   6 C        2.918    -0.027    28.673     8.781
    35   6 C        2.919    -0.027    28.683     8.783
    36   6 C        2.919    -0.028    28.708     8.786
    37   6 C        2.922    -0.032    28.809     8.802
    38   7 N        1.886    -0.320    29.139     8.002
    39   6 C        3.188     0.069    26.008     8.320
    40   6 C        2.910    -0.048    29.180     8.858
    41   6 C        2.922    -0.041    29.028     8.835
    42   6 C        2.926    -0.039    28.981     8.828
    43   6 C        2.908    -0.053    29.327     8.880
    44   6 C        3.087     0.036    27.105     8.534
    45   6 C        2.918    -0.041    29.009     8.832
    46   6 C        2.923    -0.030    28.752     8.793
    47   6 C        2.976     0.009    27.804     8.649
    48   6 C        2.921    -0.037    28.927     8.820
    49   6 C        2.913    -0.030    28.758     8.794
    50   6 C        2.913    -0.030    28.757     8.794
    51   6 C        2.921    -0.037    28.928     8.820
    52   6 C        2.976     0.009    27.804     8.649
    53   6 C        2.923    -0.030    28.752     8.793
    54   6 C        2.918    -0.041    29.009     8.832
    55   6 C        2.927    -0.028    28.694     8.785
    56   6 C        2.918    -0.027    28.673     8.781
    57   1 H        0.926     0.042     2.416     2.431
    58   1 H        0.926     0.041     2.441     2.443
    59   1 H        0.926     0.030     2.591     2.517
    60   1 H        0.926     0.038     2.477     2.461
    61   1 H        0.926     0.034     2.529     2.487
    62   1 H        0.926     0.035     2.513     2.479
    63   1 H        0.926     0.032     2.557     2.501
    64   1 H        0.926     0.042     2.418     2.432
    65   1 H        0.926     0.046     2.369     2.407
    66   1 H        0.926     0.035     2.520     2.482
    67   1 H        0.926     0.032     2.553     2.498
    68   1 H        0.926     0.032     2.552     2.498
    69   1 H        0.926     0.035     2.519     2.482
    70   1 H        0.926     0.046     2.368     2.407
    71   1 H        0.926     0.042     2.418     2.432
    72   1 H        0.926     0.045     2.381     2.413
    73   1 H        0.926     0.042     2.418     2.432
    74   1 H        0.926     0.042     2.416     2.431
    75   1 H        0.926     0.041     2.441     2.443
    76   1 H        0.926     0.030     2.591     2.517
    77   1 H        0.926     0.038     2.477     2.461
    78   1 H        0.926     0.034     2.529     2.487
    79   1 H        0.926     0.035     2.513     2.479
    80   1 H        0.926     0.032     2.557     2.501
    81   1 H        0.926     0.036     2.500     2.472
    82   1 H        0.926     0.047     2.364     2.404
    83   1 H        0.926     0.036     2.496     2.471
    84   1 H        0.926     0.034     2.531     2.488
    85   1 H        0.926     0.034     2.531     2.488
    86   1 H        0.926     0.036     2.496     2.471
    87   1 H        0.926     0.047     2.363     2.404
    88   1 H        0.926     0.036     2.500     2.472
    89   1 H        0.926     0.045     2.382     2.413
    90   1 H        0.926     0.042     2.418     2.432

molecular dipole:
                 x           y           z       tot (Debye)
 q only:       -0.000      -0.805      -0.009
   full:       -0.000      -0.333      -0.010       0.846

 projected vibrational frequencies (cm⁻¹)
eigval :       -0.00    -0.00     0.00     0.00     0.00     0.00
eigval :       -2.05    11.33    13.17    21.58    24.97    34.64
eigval :       39.57    42.62    55.70    58.17    61.09    62.15
eigval :       70.28    71.17    76.39    78.87    88.47    94.31
eigval :      102.90   115.80   145.40   157.70   172.03   183.03
eigval :      185.85   186.84   206.22   207.34   219.16   231.39
eigval :      250.90   254.43   263.71   284.20   285.64   303.48
eigval :      323.06   332.66   342.21   352.73   369.60   371.70
eigval :      373.42   375.35   378.97   379.71   383.52   386.74
eigval :      407.18   408.88   414.77   419.73   425.39   426.98
eigval :      463.43   471.48   483.61   485.05   493.56   507.53
eigval :      539.65   541.67   549.91   550.11   566.60   570.34
eigval :      574.42   579.07   585.09   586.12   587.35   596.10
eigval :      600.45   614.69   615.18   625.43   640.80   652.45
eigval :      655.59   664.08   666.69   675.19   676.27   676.48
eigval :      685.13   687.00   696.72   710.77   712.25   718.49
eigval :      722.17   746.22   750.28   760.04   764.50   765.29
eigval :      773.80   773.86   813.30   817.65   844.92   850.32
eigval :      862.56   864.75   865.00   866.67   870.82   874.70
eigval :      878.04   880.07   883.61   884.13   891.29   893.47
eigval :      893.97   899.25   899.91   903.95   904.54   905.93
eigval :      907.27   909.90   912.57   919.00   920.49   921.40
eigval :      924.37   930.05   930.72   932.25   932.49   933.87
eigval :      934.09   944.95   965.89   968.01   990.47   993.71
eigval :     1030.20  1032.11  1061.52  1061.62  1080.18  1080.46
eigval :     1102.09  1104.89  1113.25  1117.57  1117.91  1125.49
eigval :     1128.60  1130.30  1132.44  1132.64  1134.71  1136.77
eigval :     1173.19  1173.23  1178.31  1178.48  1179.29  1179.92
eigval :     1181.25  1186.39  1191.66  1195.42  1195.83  1198.56
eigval :     1208.49  1209.53  1230.82  1253.95  1258.07  1259.65
eigval :     1261.97  1265.83  1277.31  1277.60  1278.65  1290.55
eigval :     1290.68  1297.15  1297.93  1305.94  1308.55  1315.58
eigval :     1316.90  1319.16  1319.31  1333.79  1360.88  1360.99
eigval :     1361.52  1364.60  1374.73  1374.93  1379.31  1405.25
eigval :     1406.62  1408.36  1413.04  1413.16  1420.68  1429.22
eigval :     1429.36  1458.09  1458.26  1471.13  1472.78  1480.55
eigval :     1483.67  1485.06  1486.26  1522.80  1525.37  1526.03
eigval :     1528.18  1533.70  1534.21  1553.08  1569.77  1573.47
eigval :     1578.93  1578.94  1586.71  1586.73  1595.59  1595.61
eigval :     1612.78  1612.93  3074.32  3074.35  3074.47  3074.55
eigval :     3074.60  3075.93  3078.23  3078.26  3078.49  3078.56
eigval :     3079.51  3079.80  3080.87  3081.91  3083.17  3085.04
eigval :     3085.13  3085.57  3089.48  3089.49  3090.32  3090.70
eigval :     3092.30  3092.38  3092.86  3094.83  3095.25  3098.33
eigval :     3100.00  3100.16  3100.56  3100.61  3100.98  3103.52

   temp. (K)  partition function   enthalpy   heat capacity  entropy
                                   cal/mol     cal/K/mol   cal/K/mol   J/K/mol
 298.15  VIB  0.522E+21            25613.519    163.321    161.435
         ROT  0.799E+08              888.752      2.981     39.141
         INT  0.417E+29            26502.271    166.302    200.576
         TR   0.185E+29             1481.254      4.968     45.560
         TOT                       27983.5251   171.2702   246.1362  1029.8340

       T/K    H(0)-H(T)+PV         H(T)/Eh          T*S/Eh         G(T)/Eh
   ------------------------------------------------------------------------
    298.15    0.445946E-01    0.732364E+00    0.116947E+00    0.615417E+00
   ------------------------------------------------------------------------

         :::::::::::::::::::::::::::::::::::::::::::::::::::::
         ::                  THERMODYNAMIC                  ::
         :::::::::::::::::::::::::::::::::::::::::::::::::::::
         :: total free energy        -139.821300294795 Eh   ::
         ::.................................................::
         :: total energy             -140.436717077244 Eh   ::
         :: zero point energy           0.687769460984 Eh   ::
         :: G(RRHO) w/o ZPVE           -0.072352678535 Eh   ::
         :: G(RRHO) contrib.            0.615416782449 Eh   ::
         :::::::::::::::::::::::::::::::::::::::::::::::::::::

           -------------------------------------------------
          | TOTAL ENERGY             -140.436717077244 Eh   |
          | TOTAL ENTHALPY           -139.704353030487 Eh   |
          | TOTAL FREE ENERGY        -139.821300294795 Eh   |
          | GRADIENT NORM               0.000067006099 Eh/α |
          | HOMO-LUMO GAP               0.835268488759 eV   |
           -------------------------------------------------

 * finished run on 2025/09/02 at 18:51:14.698
