   * xtb version 6.7.1 (edcfbbe) compiled by 'albert@albert-system' on 2024-07-22

   ID    Z sym.   atoms
    1    6 C      1-5, 7-12, 14-29, 31-37, 39-56
    2    7 N      6, 13, 30, 38
    3    1 H      57-90

          program call               : xtb data2507/toluene/pzpy/pzpy_toluene_S0_crest.xyz --gfn 2 --gbsa toluene --ohess vtight --parallel 40 --molden --ceasefiles --namespace data2507/toluene/pzpy/pzpy_toluene_S0_finalOpt
      * Solvation model:               GBSA
        Solvent                        toluene
        Solvent mass                       9.2140E+01 g/mol
          :  Hamiltonian                  GFN2-xTB          :
 * total energy  :  -140.5048353 Eh     change       -0.4589964E-08 Eh
 * total energy  :  -140.5049090 Eh     change       -0.7375423E-04 Eh
 * total energy  :  -140.5049770 Eh     change       -0.6801693E-04 Eh
 * total energy  :  -140.5050100 Eh     change       -0.3296764E-04 Eh
 * total energy  :  -140.5050490 Eh     change       -0.3896480E-04 Eh
 * total energy  :  -140.5050729 Eh     change       -0.2390720E-04 Eh
 * total energy  :  -140.5050850 Eh     change       -0.1217816E-04 Eh
 * total energy  :  -140.5050920 Eh     change       -0.6910662E-05 Eh
 * total energy  :  -140.5051017 Eh     change       -0.9731901E-05 Eh
 * total energy  :  -140.5051077 Eh     change       -0.6002026E-05 Eh
 * total energy  :  -140.5052142 Eh     change       -0.6213472E-06 Eh
 * total energy  :  -140.5052147 Eh     change       -0.4907077E-06 Eh
 * total energy  :  -140.5052151 Eh     change       -0.4538216E-06 Eh
 * total energy  :  -140.5052156 Eh     change       -0.4994425E-06 Eh
 * total energy  :  -140.5052162 Eh     change       -0.6070977E-06 Eh
 * total energy  :  -140.5052169 Eh     change       -0.6773189E-06 Eh
 * total energy  :  -140.5052174 Eh     change       -0.5017159E-06 Eh
 * total energy  :  -140.5052178 Eh     change       -0.3637046E-06 Eh
 * total energy  :  -140.5052178 Eh     change       -0.3290779E-08 Eh
   *** GEOMETRY OPTIMIZATION CONVERGED AFTER 68 ITERATIONS ***

 final structure:
================
90
 xtb: 6.7.1 (edcfbbe)
C           -6.83619699454075       -4.48553936836719       -1.30192410580924
C           -6.14126495993578       -3.84169461734961       -0.29102836010345
C           -6.49149725247941       -2.55937439691616        0.08953173131515
C           -7.54544831979631       -1.90496059076681       -0.54570946665959
C           -7.95637639942796       -0.56045118927337       -0.16433843456965
N           -9.20562998931212       -0.17896135256329       -0.12027858540844
C           -9.19138848476337        1.11734956133767        0.31888622569388
C          -10.23873729295094        2.00601172304928        0.53961096466339
C           -9.92040253669311        3.27655680471316        0.97068248420884
C           -8.59618876626994        3.67130137777648        1.17521407991145
C           -7.54160259078310        2.80538828398512        0.96447341906087
C           -7.85500083808180        1.52135518069507        0.54800575616729
N           -7.07948648964079        0.42753718497858        0.23198164876703
C           -5.67337469559622        0.40629921670446        0.18905186716259
C           -4.93707728644673        0.78814416619386        1.30540391041065
C           -3.55592945596057        0.78935367148884        1.25160590853462
C           -2.88980236652672        0.40436862830471        0.09172016504850
C           -1.41114980685105        0.40393353664848        0.04123954787392
C           -0.71470881984796        1.62059225145039        0.01569504399222
C           -1.39050113232270        2.86983976307681        0.00496231746943
C           -0.70397454604883        4.04486622862405       -0.00182992146387
C            0.70568811529164        4.04448321117006        0.00573885079418
C            1.39153404812874        2.86909011647924       -0.00422010935252
C            0.71498560792828        1.62028363778474       -0.01803015324962
C            1.41079573520014        0.40337878572848       -0.04667308031034
C            2.88953676011538        0.40318635169004       -0.09575370592383
C            3.55718732162322        0.78755410101406       -1.25492959186091
C            4.93841461861628        0.78594260023141       -1.30695851893231
C            5.67320284783318        0.40455102796726       -0.18945381866469
N            7.07935961207860        0.42581022566769       -0.23043450296819
C            7.95578100293050       -0.56141319056677        0.16887545525354
C            7.54447324113143       -1.90534411568813        0.55189795692514
C            8.25318552771273       -2.56581228326312        1.55465761485760
C            7.89535104331340       -3.84566976126242        1.93364626178037
C            6.83417729428969       -4.48455965984608        1.31176343999581
C            6.14105071977011       -3.84277263219374        0.29831826939980
C            6.49177709869656       -2.56111674641415       -0.08402248610104
N            9.20503433732049       -0.17978303902731        0.12624194807612
C            9.19130313665492        1.11583088198765       -0.31499754290618
C           10.23889560846290        2.00426729782803       -0.53545371157164
C            9.92110781372603        3.27406280416874       -0.96913214195335
C            8.59717355454826        3.66830702095201       -1.17639725993384
C            7.54235794620277        2.80260891651641       -0.96591726968031
C            7.85522613113529        1.51927816486116       -0.54689134189158
C            5.01515583276242        0.02575086242158        0.97644628448722
C            3.63480170834918        0.01913237649568        1.01607160674591
C            0.71398563506934       -0.81318644096646       -0.03108686832671
C            1.38825269354600       -2.06212312316143       -0.08177735115418
C            0.70267835977009       -3.23728320750788       -0.05118542425995
C           -0.70435854230541       -3.23713183087651        0.03473303312954
C           -1.38953790599198       -2.06182852650026        0.06898118908371
C           -0.71490295597147       -0.81295066865750        0.02185122723109
C           -3.63661587694140        0.02018113573054       -1.01903966665529
C           -5.01692211753552        0.02695972040036       -0.97756314829195
C           -8.25588615771628       -2.56743046132690       -1.54592824098608
C           -7.89860325670035       -3.84798648413368       -1.92307880820187
H           -6.55605269977903       -5.48540600345468       -1.59866912796547
H           -5.32543022840715       -4.34300346217818        0.20874976806858
H           -5.95904621539768       -2.07383444725094        0.89422176755574
H          -11.25936584750154        1.70088766226591        0.36969455827815
H          -10.71123468083074        3.99009830555893        1.15052483068615
H           -8.39389769753915        4.68034387213183        1.50309093265828
H           -6.51868335143054        3.11750791336710        1.11325806991893
H           -5.45013538592223        1.07069093021867        2.21296611385730
H           -2.98456171978663        1.08308044130499        2.11997298018928
H           -2.47037230689481        2.87148884942898       -0.00054177781154
H           -1.23308503535704        4.98676233813922       -0.01001361642404
H            1.23531413675019        4.98606410551973        0.01635934367075
H            2.47141407608865        2.87002620681219        0.00096545465737
H            2.98698260005207        1.08117417788354       -2.12409264127442
H            5.45266957805003        1.06789488027381       -2.21402450842263
H            9.07989315387314       -2.05637848931628        2.02586142518242
H            8.44579061610144       -4.34664766295135        2.71628657071282
H            6.55361567710452       -5.48388492948587        1.60992853758256
H            5.32616211600577       -4.34513913770609       -0.20193905108197
H            5.96073226482338       -2.07713950604980       -0.89058265930814
H           11.25928526645715        1.69954524960166       -0.36339259052401
H           10.71213778410981        3.98740065453427       -1.14890535195122
H            8.39527991137181        4.67673875905194       -1.50638415573714
H            6.51965778869186        3.11440772539922       -1.11683094342799
H            5.58995943480962       -0.26249636956866        1.84417393956066
H            3.12537795564774       -0.27458036891008        1.92186230501022
H            2.46579656711539       -2.06197965897714       -0.14466592772380
H            1.23072590513767       -4.17892371031059       -0.08926978388373
H           -1.23277602964743       -4.17867925534692        0.06990350823047
H           -2.46705529775989       -2.06162090972883        0.13210538497599
H           -3.12847995794229       -0.27382741245931       -1.92546177273099
H           -5.59293462719892       -0.26162236244915       -1.84438215203634
H           -9.08353532306693       -2.05900615033837       -2.01656826960259
H           -8.45045259390293       -4.35058970765859       -2.70367940112843

          :  Hamiltonian                  GFN2-xTB          :
         :: gradient norm              0.000038875162 Eh/a0 ::
         :: HOMO-LUMO gap              2.133333671509 eV    ::
         :: SCC energy              -143.144819741706 Eh    ::
         :: -> dispersion             -0.131218599094 Eh    ::
         :: -> Gsolv                  -0.061497350134 Eh    ::
         :: repulsion energy           2.639601982556 Eh    ::

    * Orbital Energies and Occupations

         #    Occupation            Energy/Eh            Energy/eV
      -------------------------------------------------------------
         1        2.0000           -0.6900081             -18.7761
       ...           ...                  ...                  ...
       119        2.0000           -0.4127505             -11.2315
       120        2.0000           -0.4114704             -11.1967
       121        2.0000           -0.4108860             -11.1808
       122        2.0000           -0.4080022             -11.1023
       123        2.0000           -0.4071296             -11.0786
       124        2.0000           -0.4035278             -10.9806
       125        2.0000           -0.3852112             -10.4821
       126        2.0000           -0.3846461             -10.4668
       127        2.0000           -0.3836668             -10.4401
       128        2.0000           -0.3836189             -10.4388
       129        2.0000           -0.3817012             -10.3866
       130        2.0000           -0.3814961             -10.3810
       131        2.0000           -0.3635856              -9.8937 (HOMO)
       132                         -0.2851870              -7.7603 (LUMO)
       133                         -0.2636182              -7.1734
       134                         -0.2633892              -7.1672
       135                         -0.2402383              -6.5372
       136                         -0.2401075              -6.5337
       137                         -0.2400908              -6.5332
       138                         -0.2399123              -6.5283
       139                         -0.2351667              -6.3992
       140                         -0.2299195              -6.2564
       141                         -0.2298777              -6.2553
       142                         -0.2243852              -6.1058
       ...                                ...                  ...
       258                          0.7099652              19.3191
      -------------------------------------------------------------
                  HL-Gap            0.0783986 Eh            2.1333 eV

     #   Z          covCN         q      C6AA      α(0)
     1   6 C        2.920    -0.027    28.682     8.782
     2   6 C        2.919    -0.028    28.706     8.786
     3   6 C        2.922    -0.033    28.811     8.802
     4   6 C        2.975    -0.001    28.040     8.686
     5   6 C        3.180     0.144    24.483     8.078
     6   7 N        1.886    -0.320    29.158     8.005
     7   6 C        3.190     0.069    26.003     8.318
     8   6 C        2.910    -0.048    29.183     8.858
     9   6 C        2.922    -0.042    29.036     8.837
    10   6 C        2.926    -0.039    28.979     8.828
    11   6 C        2.908    -0.054    29.338     8.881
    12   6 C        3.087     0.036    27.098     8.533
    13   7 N        2.824    -0.059    22.384     7.027
    14   6 C        2.912     0.062    26.609     8.459
    15   6 C        2.920    -0.041    29.030     8.836
    16   6 C        2.924    -0.030    28.751     8.793
    17   6 C        2.976     0.018    27.603     8.618
    18   6 C        2.977    -0.005    28.151     8.703
    19   6 C        2.983     0.007    27.858     8.658
    20   6 C        2.917    -0.035    28.868     8.811
    21   6 C        2.914    -0.030    28.745     8.792
    22   6 C        2.914    -0.030    28.745     8.792
    23   6 C        2.917    -0.035    28.868     8.811
    24   6 C        2.983     0.007    27.858     8.658
    25   6 C        2.977    -0.005    28.151     8.703
    26   6 C        2.976     0.018    27.603     8.618
    27   6 C        2.924    -0.030    28.751     8.793
    28   6 C        2.920    -0.041    29.030     8.836
    29   6 C        2.912     0.062    26.609     8.459
    30   7 N        2.824    -0.059    22.384     7.027
    31   6 C        3.180     0.144    24.484     8.078
    32   6 C        2.975    -0.001    28.040     8.686
    33   6 C        2.926    -0.028    28.692     8.784
    34   6 C        2.918    -0.027    28.673     8.781
    35   6 C        2.920    -0.027    28.682     8.782
    36   6 C        2.919    -0.028    28.706     8.786
    37   6 C        2.922    -0.033    28.811     8.802
    38   7 N        1.885    -0.320    29.158     8.005
    39   6 C        3.190     0.069    26.003     8.318
    40   6 C        2.910    -0.048    29.183     8.858
    41   6 C        2.922    -0.042    29.036     8.837
    42   6 C        2.926    -0.039    28.979     8.828
    43   6 C        2.908    -0.054    29.338     8.881
    44   6 C        3.087     0.036    27.098     8.533
    45   6 C        2.920    -0.040    28.994     8.830
    46   6 C        2.924    -0.029    28.724     8.789
    47   6 C        2.983     0.007    27.855     8.658
    48   6 C        2.917    -0.035    28.868     8.811
    49   6 C        2.914    -0.029    28.737     8.790
    50   6 C        2.914    -0.030    28.737     8.790
    51   6 C        2.917    -0.035    28.869     8.811
    52   6 C        2.983     0.007    27.855     8.657
    53   6 C        2.924    -0.029    28.724     8.789
    54   6 C        2.920    -0.040    28.994     8.830
    55   6 C        2.926    -0.028    28.692     8.784
    56   6 C        2.918    -0.027    28.673     8.781
    57   1 H        0.926     0.043     2.414     2.430
    58   1 H        0.926     0.041     2.440     2.443
    59   1 H        0.926     0.029     2.596     2.520
    60   1 H        0.926     0.038     2.481     2.463
    61   1 H        0.926     0.034     2.534     2.489
    62   1 H        0.926     0.035     2.516     2.481
    63   1 H        0.926     0.031     2.567     2.506
    64   1 H        0.926     0.043     2.406     2.426
    65   1 H        0.926     0.045     2.381     2.413
    66   1 H        0.926     0.032     2.562     2.503
    67   1 H        0.926     0.032     2.558     2.501
    68   1 H        0.926     0.032     2.558     2.501
    69   1 H        0.926     0.032     2.562     2.503
    70   1 H        0.926     0.045     2.382     2.413
    71   1 H        0.926     0.043     2.406     2.426
    72   1 H        0.926     0.045     2.384     2.415
    73   1 H        0.926     0.042     2.417     2.431
    74   1 H        0.926     0.043     2.414     2.430
    75   1 H        0.926     0.041     2.440     2.443
    76   1 H        0.926     0.029     2.596     2.520
    77   1 H        0.926     0.038     2.480     2.463
    78   1 H        0.926     0.034     2.534     2.489
    79   1 H        0.926     0.035     2.516     2.481
    80   1 H        0.926     0.031     2.567     2.505
    81   1 H        0.926     0.037     2.491     2.468
    82   1 H        0.926     0.045     2.383     2.414
    83   1 H        0.926     0.033     2.545     2.495
    84   1 H        0.926     0.033     2.541     2.493
    85   1 H        0.926     0.033     2.541     2.493
    86   1 H        0.926     0.033     2.545     2.495
    87   1 H        0.926     0.045     2.382     2.414
    88   1 H        0.926     0.037     2.491     2.468
    89   1 H        0.926     0.045     2.384     2.415
    90   1 H        0.926     0.042     2.417     2.431

molecular dipole:
                 x           y           z       tot (Debye)
 q only:        0.000      -0.763      -0.002
   full:        0.000      -0.318      -0.002       0.808

 projected vibrational frequencies (cm⁻¹)
eigval :       -0.00    -0.00    -0.00     0.00     0.00     0.00
eigval :        8.89     9.96    10.99    17.79    20.24    32.43
eigval :       40.07    41.82    53.26    54.48    56.35    57.05
eigval :       64.16    64.51    71.89    80.80    83.39    85.65
eigval :       94.94   114.44   116.48   153.31   169.52   178.15
eigval :      183.63   184.66   193.23   202.89   213.32   226.24
eigval :      245.44   249.70   263.28   284.61   285.22   302.70
eigval :      323.84   337.69   341.93   350.73   373.18   373.49
eigval :      376.44   376.58   380.50   381.61   391.24   392.28
eigval :      407.28   410.39   418.87   424.11   445.21   447.63
eigval :      458.72   460.60   484.57   486.65   491.11   511.64
eigval :      540.05   541.69   546.65   547.11   571.04   577.72
eigval :      579.91   585.21   585.79   589.53   592.36   601.70
eigval :      602.59   616.38   621.38   640.89   645.38   653.94
eigval :      657.65   664.32   668.29   677.55   678.04   684.34
eigval :      692.31   692.56   704.86   709.92   710.68   726.14
eigval :      739.84   753.76   764.82   765.59   768.33   771.43
eigval :      774.84   776.63   812.26   816.82   864.34   864.56
eigval :      865.22   865.52   872.29   873.24   875.83   878.58
eigval :      879.48   880.12   884.33   884.99   893.14   896.38
eigval :      898.29   907.00   907.48   912.70   913.65   914.03
eigval :      914.93   916.43   918.27   919.91   920.70   926.58
eigval :      927.63   929.43   929.86   930.39   930.56   932.19
eigval :      935.15   935.39   967.41   969.87   993.04   997.69
eigval :     1033.86  1036.03  1060.87  1060.88  1080.28  1080.55
eigval :     1080.99  1081.62  1117.72  1117.92  1130.50  1130.51
eigval :     1132.47  1132.90  1133.99  1135.06  1135.52  1145.30
eigval :     1173.53  1173.55  1177.19  1177.24  1179.90  1183.54
eigval :     1187.26  1188.04  1196.46  1196.91  1202.41  1202.53
eigval :     1215.43  1222.07  1228.99  1256.96  1259.55  1260.89
eigval :     1261.44  1265.73  1267.54  1277.01  1277.30  1290.47
eigval :     1290.51  1305.12  1305.58  1315.58  1316.45  1319.27
eigval :     1319.39  1324.35  1348.12  1359.26  1361.07  1362.43
eigval :     1379.21  1383.28  1387.83  1400.88  1401.87  1413.64
eigval :     1414.24  1417.99  1427.42  1429.70  1429.87  1444.89
eigval :     1458.99  1459.24  1473.38  1482.63  1483.60  1495.83
eigval :     1498.80  1525.67  1529.05  1531.16  1531.23  1541.27
eigval :     1561.39  1561.72  1579.50  1579.52  1587.28  1587.28
eigval :     1593.82  1593.89  1596.72  1596.76  1607.35  1614.37
eigval :     1614.43  1621.71  3071.61  3073.24  3074.26  3074.27
eigval :     3075.24  3075.26  3077.83  3078.25  3078.26  3078.89
eigval :     3078.91  3080.58  3080.67  3081.08  3082.39  3082.57
eigval :     3085.06  3085.11  3087.16  3089.66  3089.70  3091.14
eigval :     3091.21  3092.30  3092.93  3093.01  3093.84  3094.12
eigval :     3094.18  3097.94  3100.19  3100.43  3100.98  3101.02

   temp. (K)  partition function   enthalpy   heat capacity  entropy
                                   cal/mol     cal/K/mol   cal/K/mol   J/K/mol
 298.15  VIB  0.605E+21            25661.563    161.959    161.739
         ROT  0.793E+08              888.752      2.981     39.127
         INT  0.480E+29            26550.315    164.940    200.866
         TR   0.185E+29             1481.254      4.968     45.560
         TOT                       28031.5692   169.9083   246.4265  1031.0483

       T/K    H(0)-H(T)+PV         H(T)/Eh          T*S/Eh         G(T)/Eh
   ------------------------------------------------------------------------
    298.15    0.446711E-01    0.734672E+00    0.117085E+00    0.617587E+00
   ------------------------------------------------------------------------

         :::::::::::::::::::::::::::::::::::::::::::::::::::::
         ::                  THERMODYNAMIC                  ::
         :::::::::::::::::::::::::::::::::::::::::::::::::::::
         :: total free energy        -139.887630867218 Eh   ::
         ::.................................................::
         :: total energy             -140.505217761218 Eh   ::
         :: zero point energy           0.690000903906 Eh   ::
         :: G(RRHO) w/o ZPVE           -0.072414009906 Eh   ::
         :: G(RRHO) contrib.            0.617586894000 Eh   ::
         :::::::::::::::::::::::::::::::::::::::::::::::::::::

           -------------------------------------------------
          | TOTAL ENERGY             -140.505217761218 Eh   |
          | TOTAL ENTHALPY           -139.770545708329 Eh   |
          | TOTAL FREE ENERGY        -139.887630867218 Eh   |
          | GRADIENT NORM               0.000038862624 Eh/α |
          | HOMO-LUMO GAP               2.133333659549 eV   |
           -------------------------------------------------

 * finished run on 2025/09/02 at 18:51:01.397
