   * xtb version 6.7.1 (edcfbbe) compiled by 'albert@albert-system' on 2024-07-22

   ID    Z sym.   atoms
    1    6 C      1-5, 7-12, 14-29, 31-37, 39-56
    2    7 N      6, 13, 30, 38
    3    1 H      57-90

          program call               : xtb data2507/toluene/pzpy/pzpy_toluene_T1_crest.xyz --gfn 2 --uhf 2 --gbsa toluene --ohess vtight --parallel 40 --molden --ceasefiles --namespace data2507/toluene/pzpy/pzpy_toluene_T1_finalOpt
      * Solvation model:               GBSA
        Solvent                        toluene
        Solvent mass                       9.2140E+01 g/mol
          :  Hamiltonian                  GFN2-xTB          :
 * total energy  :  -140.4360647 Eh     change       -0.4495917E-08 Eh
 * total energy  :  -140.4361399 Eh     change       -0.7528324E-04 Eh
 * total energy  :  -140.4362048 Eh     change       -0.6485299E-04 Eh
 * total energy  :  -140.4362402 Eh     change       -0.3543576E-04 Eh
 * total energy  :  -140.4362674 Eh     change       -0.2712543E-04 Eh
 * total energy  :  -140.4362947 Eh     change       -0.2729498E-04 Eh
 * total energy  :  -140.4363072 Eh     change       -0.1252034E-04 Eh
 * total energy  :  -140.4363178 Eh     change       -0.1061336E-04 Eh
 * total energy  :  -140.4363308 Eh     change       -0.1306083E-04 Eh
 * total energy  :  -140.4363409 Eh     change       -0.1003800E-04 Eh
 * total energy  :  -140.4367444 Eh     change       -0.2796204E-06 Eh
 * total energy  :  -140.4367447 Eh     change       -0.3389741E-06 Eh
 * total energy  :  -140.4367451 Eh     change       -0.3600890E-06 Eh
 * total energy  :  -140.4367454 Eh     change       -0.3160126E-06 Eh
 * total energy  :  -140.4367457 Eh     change       -0.2642967E-06 Eh
 * total energy  :  -140.4367459 Eh     change       -0.2420993E-06 Eh
 * total energy  :  -140.4367461 Eh     change       -0.2453899E-06 Eh
 * total energy  :  -140.4367464 Eh     change       -0.2844102E-06 Eh
 * total energy  :  -140.4367464 Eh     change       -0.2171731E-08 Eh
   *** GEOMETRY OPTIMIZATION CONVERGED AFTER 68 ITERATIONS ***

 final structure:
================
90
 xtb: 6.7.1 (edcfbbe)
C           -6.74818125474134       -4.67055975370261        0.23323965805885
C           -6.06292102002627       -3.71959615875289        0.97182584802842
C           -6.43528192633377       -2.38916446511490        0.91434183387015
C           -7.50174261858668       -1.99590595240471        0.10740131617720
C           -7.93990209003451       -0.60905017787677        0.03113383479136
N           -9.19706682199008       -0.26187585575933       -0.05718540413781
C           -9.21510657250865        1.10632112277120       -0.05350972313350
C          -10.28367248834717        1.99336358614780       -0.13389622248207
C           -9.99760760194419        3.34243489182192       -0.12832343752747
C           -8.68461626435772        3.81313625237843       -0.05445592553251
C           -7.60938069525678        2.95069535444823        0.02872496302754
C           -7.89015420479303        1.59373193269423        0.04281878005559
N           -7.08796659287809        0.47470145716722        0.09544070409135
C           -5.68380662550104        0.47135439638947        0.07863611394517
C           -4.97020629313010        1.21996625327591        1.01209263158963
C           -3.59215597113547        1.22796449016567        0.98413877095390
C           -2.88175678375470        0.48037630335547        0.03572200152051
C           -1.42555833480936        0.47661609429913        0.02178065876317
C           -0.70890090242994        1.71320678968975       -0.01713285102719
C           -1.36408404169714        2.94185209764339       -0.14588356244276
C           -0.67103681555961        4.14875246263534       -0.08434275921991
C            0.69304401353148        4.14495697182481        0.11511553870194
C            1.37930952955079        2.93416208923910        0.17623504783108
C            0.71714568842588        1.70927482433923        0.04764800141496
C            1.42743173309925        0.46897000047496        0.00805937367026
C            2.88355647561344        0.46657586382170       -0.01384631454010
C            3.59025898366997        1.20990053622312       -0.96842337222787
C            4.96796908633910        1.19586126609373       -1.00663703323951
C            5.68499351029887        0.44500642493273       -0.07762664500195
N            7.08898911787636        0.44074201403203       -0.10531241529482
C            7.93502002640423       -0.64800411585061       -0.04864130860115
C            7.48808952089293       -2.03201551048079       -0.12528539543309
C            8.18869617999224       -3.00412782329675        0.58814542871090
C            7.80138339349363       -4.32914819201562        0.52644574120733
C            6.71814732944136       -4.70187719289197       -0.25382639097755
C            6.03306515953786       -3.74470271781396       -0.98451360404443
C            6.41348663062454       -2.41661580054850       -0.92558027173688
N            9.19474665972448       -0.30828145468485        0.03198615299499
C            9.22064720669768        1.05979259914970        0.03072380171491
C           10.29480695530509        1.94052713453629        0.10573947177159
C           10.01643338590417        3.29122142117667        0.10435907246722
C            8.70573083403246        3.76959017756270        0.03964233586165
C            7.62501435934244        2.91351556287785       -0.03800380064098
C            7.89793079794497        1.55500922100156       -0.05603143489044
C            4.99926258418270       -0.28597594146867        0.89112252173321
C            3.62226700088891       -0.28136042156303        0.91357206087294
C            0.71061011670650       -0.76811587839481       -0.01960952007852
C            1.36521873255018       -1.99729697356862       -0.14585278808740
C            0.67282296562978       -3.20419088568477       -0.07910932186492
C           -0.69096526730934       -3.20007026826187        0.12189806107422
C           -1.37659798620266       -1.98908723164295        0.18439315478414
C           -0.71507554800438       -0.76408048891681        0.05403220154773
C           -3.61701482505708       -0.26652608474542       -0.89535019001084
C           -4.99409292067360       -0.26482697979250       -0.88339898466805
C           -8.20288662556831       -2.96180350752678       -0.61389395062515
C           -7.82372197929085       -4.28923381303931       -0.55348374921927
H           -6.45080977970675       -5.70778543658032        0.27832475482924
H           -5.23729260715779       -4.01574270084163        1.60226163902128
H           -5.90977061838816       -1.65910370043648        1.51233213843106
H          -11.29532333771339        1.62538136628181       -0.20305828704748
H          -10.80539117462006        4.05706207792299       -0.18932110952592
H           -8.50734077902815        4.87849232170939       -0.06426541423445
H           -6.59550999583146        3.31916362134817        0.07522292770147
H           -5.50420513112148        1.77460536761981        1.76985268825364
H           -3.04769983602163        1.78575273233434        1.73158453310790
H           -2.43133608610199        2.96054166990705       -0.30366916675175
H           -1.21088323026758        5.07937757927333       -0.17751314431216
H            1.23808648676940        5.07253610396939        0.20838270396121
H            2.44675516916770        2.94673382663252        0.33342603727670
H            3.04251324629358        1.76923598391822       -1.71232321445057
H            5.49876132094090        1.74734927701081       -1.76893540714838
H            9.03342041755416       -2.69826322323687        1.18629560699617
H            8.34622714426854       -5.07386291815786        1.08770662926007
H            6.41459740729675       -5.73725846980964       -0.30008953299638
H            5.20126995602220       -4.03411982052853       -1.60995691938672
H            5.88783736080143       -1.68171059065918       -1.51748310749773
H           11.30476141726728        1.56664177416697        0.16769858918790
H           10.82862495774328        4.00116201913463        0.16137773242508
H            8.53470576729261        4.83593600643678        0.05226030345613
H            6.61296702126686        3.28778452505015       -0.07753470351078
H            5.55667288785985       -0.85076854449624        1.62401951951525
H            3.10113031637649       -0.82891376663491        1.68446852380278
H            2.43210746677515       -2.01658644517411       -0.30285497259032
H            1.21364252326326       -4.13437337698677       -0.16981479299641
H           -1.23694590505923       -4.12691906428911        0.21573233530194
H           -2.44364212283989       -2.00181157194790        0.34106225598356
H           -3.09244012293023       -0.81850596527284       -1.66076585868012
H           -5.54834205171743       -0.82858730183584       -1.61946091768135
H           -9.04142754846221       -2.64922454675520       -1.21724021463240
H           -8.36889585307087       -5.02905502235631       -1.12085794989785

          :  Hamiltonian                  GFN2-xTB          :
         :: gradient norm              0.000030979889 Eh/a0 ::
         :: HOMO-LUMO gap              0.845259114977 eV    ::
         :: SCC energy              -143.057038912391 Eh    ::
         :: -> dispersion             -0.131512902498 Eh    ::
         :: -> Gsolv                  -0.061013286970 Eh    ::
         :: repulsion energy           2.620292477421 Eh    ::

    * Orbital Energies and Occupations

         #    Occupation            Energy/Eh            Energy/eV
      -------------------------------------------------------------
         1        2.0000           -0.6900621             -18.7775
       ...           ...                  ...                  ...
       120        2.0000           -0.4124523             -11.2234
       121        2.0000           -0.4102867             -11.1645
       122        2.0000           -0.4063084             -11.0562
       123        2.0000           -0.4056611             -11.0386
       124        2.0000           -0.4029070             -10.9637
       125        2.0000           -0.3857190             -10.4959
       126        2.0000           -0.3845641             -10.4645
       127        2.0000           -0.3837654             -10.4428
       128        2.0000           -0.3836900             -10.4407
       129        2.0000           -0.3818819             -10.3915
       130        2.0000           -0.3815782             -10.3833
       131        1.0000           -0.3549326              -9.6582
       132        1.0000           -0.2951781              -8.0322 (HOMO)
       133                         -0.2641154              -7.1869 (LUMO)
       134                         -0.2634790              -7.1696
       135                         -0.2408292              -6.5533
       136                         -0.2402149              -6.5366
       137                         -0.2381996              -6.4817
       138                         -0.2378567              -6.4724
       139                         -0.2320429              -6.3142
       140                         -0.2297000              -6.2505
       141                         -0.2294325              -6.2432
       142                         -0.2270804              -6.1792
       143                         -0.2206866              -6.0052
       ...                                ...                  ...
       258                          0.7053213              19.1928
      -------------------------------------------------------------
                  HL-Gap            0.0310627 Eh            0.8453 eV

     #   Z          covCN         q      C6AA      α(0)
     1   6 C        2.920    -0.027    28.683     8.783
     2   6 C        2.919    -0.028    28.709     8.786
     3   6 C        2.922    -0.033    28.812     8.802
     4   6 C        2.975    -0.001    28.037     8.685
     5   6 C        3.179     0.144    24.502     8.082
     6   7 N        1.886    -0.320    29.140     8.002
     7   6 C        3.189     0.069    26.006     8.319
     8   6 C        2.910    -0.048    29.181     8.858
     9   6 C        2.922    -0.041    29.029     8.835
    10   6 C        2.926    -0.039    28.981     8.828
    11   6 C        2.908    -0.053    29.327     8.880
    12   6 C        3.087     0.036    27.103     8.534
    13   7 N        2.824    -0.057    22.342     7.020
    14   6 C        2.912     0.060    26.656     8.466
    15   6 C        2.918    -0.042    29.050     8.838
    16   6 C        2.924    -0.031    28.779     8.798
    17   6 C        2.972     0.016    27.651     8.625
    18   6 C        2.972    -0.009    28.249     8.718
    19   6 C        2.977     0.009    27.804     8.649
    20   6 C        2.921    -0.038    28.933     8.821
    21   6 C        2.914    -0.031    28.769     8.795
    22   6 C        2.914    -0.031    28.769     8.795
    23   6 C        2.921    -0.037    28.932     8.821
    24   6 C        2.977     0.009    27.804     8.649
    25   6 C        2.972    -0.009    28.249     8.718
    26   6 C        2.972     0.016    27.651     8.625
    27   6 C        2.924    -0.031    28.778     8.797
    28   6 C        2.918    -0.042    29.049     8.838
    29   6 C        2.912     0.060    26.655     8.466
    30   7 N        2.824    -0.057    22.344     7.020
    31   6 C        3.179     0.144    24.502     8.082
    32   6 C        2.975    -0.001    28.037     8.686
    33   6 C        2.926    -0.028    28.694     8.785
    34   6 C        2.918    -0.027    28.673     8.781
    35   6 C        2.919    -0.027    28.683     8.783
    36   6 C        2.919    -0.028    28.709     8.786
    37   6 C        2.922    -0.033    28.813     8.803
    38   7 N        1.886    -0.320    29.140     8.003
    39   6 C        3.189     0.069    26.005     8.319
    40   6 C        2.910    -0.048    29.181     8.858
    41   6 C        2.922    -0.041    29.029     8.835
    42   6 C        2.926    -0.039    28.981     8.828
    43   6 C        2.908    -0.053    29.327     8.880
    44   6 C        3.087     0.036    27.103     8.534
    45   6 C        2.918    -0.041    29.008     8.832
    46   6 C        2.923    -0.030    28.754     8.794
    47   6 C        2.977     0.009    27.804     8.649
    48   6 C        2.921    -0.037    28.928     8.820
    49   6 C        2.914    -0.030    28.757     8.794
    50   6 C        2.914    -0.030    28.757     8.794
    51   6 C        2.921    -0.037    28.927     8.820
    52   6 C        2.977     0.009    27.805     8.649
    53   6 C        2.924    -0.030    28.754     8.794
    54   6 C        2.918    -0.041    29.008     8.832
    55   6 C        2.926    -0.028    28.694     8.785
    56   6 C        2.918    -0.027    28.673     8.781
    57   1 H        0.926     0.042     2.416     2.431
    58   1 H        0.926     0.041     2.442     2.444
    59   1 H        0.926     0.030     2.591     2.517
    60   1 H        0.926     0.038     2.477     2.461
    61   1 H        0.926     0.034     2.530     2.487
    62   1 H        0.926     0.035     2.514     2.479
    63   1 H        0.926     0.032     2.559     2.502
    64   1 H        0.926     0.042     2.421     2.433
    65   1 H        0.926     0.046     2.364     2.404
    66   1 H        0.926     0.035     2.512     2.478
    67   1 H        0.926     0.032     2.552     2.498
    68   1 H        0.926     0.032     2.552     2.498
    69   1 H        0.926     0.035     2.513     2.479
    70   1 H        0.926     0.046     2.365     2.405
    71   1 H        0.926     0.042     2.421     2.433
    72   1 H        0.926     0.045     2.381     2.413
    73   1 H        0.926     0.042     2.418     2.432
    74   1 H        0.926     0.042     2.416     2.431
    75   1 H        0.926     0.041     2.442     2.444
    76   1 H        0.926     0.030     2.591     2.517
    77   1 H        0.926     0.038     2.477     2.461
    78   1 H        0.926     0.034     2.530     2.488
    79   1 H        0.926     0.035     2.514     2.479
    80   1 H        0.926     0.032     2.560     2.502
    81   1 H        0.926     0.036     2.504     2.475
    82   1 H        0.926     0.047     2.361     2.403
    83   1 H        0.926     0.037     2.489     2.467
    84   1 H        0.926     0.034     2.528     2.487
    85   1 H        0.926     0.034     2.529     2.487
    86   1 H        0.926     0.037     2.490     2.468
    87   1 H        0.926     0.047     2.362     2.403
    88   1 H        0.926     0.036     2.504     2.474
    89   1 H        0.926     0.045     2.381     2.413
    90   1 H        0.926     0.042     2.418     2.432

molecular dipole:
                 x           y           z       tot (Debye)
 q only:       -0.004      -0.723       0.009
   full:       -0.003      -0.230       0.011       0.585

 projected vibrational frequencies (cm⁻¹)
eigval :       -0.00    -0.00    -0.00     0.00     0.00     0.00
eigval :        3.23     6.95    10.88    18.40    20.85    35.04
eigval :       37.05    41.85    53.36    54.31    59.30    60.47
eigval :       69.37    71.47    76.03    78.61    83.91    92.23
eigval :      101.56   115.50   145.61   156.41   170.97   181.68
eigval :      184.78   185.41   205.82   207.19   219.25   231.38
eigval :      251.92   255.32   262.83   284.28   285.93   302.75
eigval :      321.41   330.41   341.51   354.38   365.33   371.54
eigval :      372.63   374.62   377.73   378.70   383.84   387.10
eigval :      406.14   407.87   414.74   419.68   420.08   426.58
eigval :      463.51   472.17   484.03   485.29   494.01   506.68
eigval :      539.36   541.52   548.09   548.33   565.80   570.44
eigval :      574.40   578.51   585.28   586.19   587.38   596.46
eigval :      600.30   614.59   615.60   625.48   640.83   653.25
eigval :      656.15   664.04   666.48   671.10   676.19   676.71
eigval :      685.64   686.90   697.12   709.09   710.09   715.57
eigval :      722.16   745.30   750.14   759.05   762.68   765.00
eigval :      773.36   773.56   813.79   818.15   843.52   849.06
eigval :      862.70   864.34   864.50   866.50   870.12   874.31
eigval :      875.60   877.25   883.34   883.79   890.14   892.49
eigval :      893.87   898.23   898.92   903.10   903.84   904.28
eigval :      904.69   909.97   912.68   920.55   920.95   923.23
eigval :      925.46   927.09   928.64   930.72   932.12   934.86
eigval :      937.37   945.15   965.66   967.83   990.34   993.44
eigval :     1029.61  1031.27  1060.18  1060.26  1080.76  1080.79
eigval :     1102.62  1105.68  1113.53  1117.80  1117.91  1125.47
eigval :     1128.95  1130.33  1132.93  1133.36  1134.56  1135.33
eigval :     1175.03  1175.12  1178.15  1178.17  1179.17  1180.08
eigval :     1181.22  1185.99  1191.15  1196.35  1196.48  1199.03
eigval :     1208.18  1209.19  1231.24  1253.99  1258.30  1259.41
eigval :     1261.73  1265.80  1277.33  1277.49  1278.62  1291.55
eigval :     1291.76  1296.62  1298.19  1306.15  1308.97  1315.75
eigval :     1316.98  1319.27  1319.40  1333.01  1359.80  1360.85
eigval :     1360.97  1363.45  1374.87  1375.14  1379.28  1405.49
eigval :     1406.92  1408.26  1412.74  1412.85  1420.04  1428.97
eigval :     1429.11  1458.19  1458.38  1470.76  1472.06  1480.18
eigval :     1484.37  1485.38  1486.95  1522.96  1524.79  1525.57
eigval :     1527.95  1532.77  1533.29  1552.35  1569.09  1572.90
eigval :     1578.91  1578.92  1586.77  1586.80  1595.50  1595.55
eigval :     1612.64  1612.68  3074.02  3074.13  3074.31  3074.55
eigval :     3074.90  3076.53  3077.81  3077.91  3078.08  3078.10
eigval :     3079.03  3079.29  3080.47  3080.79  3083.47  3084.71
eigval :     3084.78  3086.23  3088.94  3089.04  3090.14  3090.56
eigval :     3091.95  3092.22  3092.70  3093.30  3094.62  3098.10
eigval :     3099.47  3099.58  3099.93  3100.10  3102.10  3104.47

   temp. (K)  partition function   enthalpy   heat capacity  entropy
                                   cal/mol     cal/K/mol   cal/K/mol   J/K/mol
 298.15  VIB  0.125E+22            25683.929    163.135    162.336
         ROT  0.794E+08              888.752      2.981     39.129
         INT  0.994E+29            26572.681    166.116    201.465
         TR   0.185E+29             1481.254      4.968     45.560
         TOT                       28053.9349   171.0842   247.0250  1033.5527

       T/K    H(0)-H(T)+PV         H(T)/Eh          T*S/Eh         G(T)/Eh
   ------------------------------------------------------------------------
    298.15    0.447068E-01    0.732234E+00    0.117370E+00    0.614865E+00
   ------------------------------------------------------------------------

         :::::::::::::::::::::::::::::::::::::::::::::::::::::
         ::                  THERMODYNAMIC                  ::
         :::::::::::::::::::::::::::::::::::::::::::::::::::::
         :: total free energy        -139.821881869081 Eh   ::
         ::.................................................::
         :: total energy             -140.436746437596 Eh   ::
         :: zero point energy           0.687527337350 Eh   ::
         :: G(RRHO) w/o ZPVE           -0.072662768835 Eh   ::
         :: G(RRHO) contrib.            0.614864568515 Eh   ::
         :::::::::::::::::::::::::::::::::::::::::::::::::::::

           -------------------------------------------------
          | TOTAL ENERGY             -140.436746437596 Eh   |
          | TOTAL ENTHALPY           -139.704512309203 Eh   |
          | TOTAL FREE ENERGY        -139.821881869081 Eh   |
          | GRADIENT NORM               0.000030971120 Eh/α |
          | HOMO-LUMO GAP               0.845258803734 eV   |
           -------------------------------------------------

 * finished run on 2025/09/02 at 18:56:48.152
