   * xtb version 6.7.1 (edcfbbe) compiled by 'albert@albert-system' on 2024-07-22

   ID    Z sym.   atoms
    1    6 C      1-23, 25-38, 40-45, 47-57, 59-68
    2    7 N      24, 39, 46, 58
    3    1 H      69-110

          program call               : xtb data2507/gas/CzppT/CzppT_gas_S0_finalOpt.xtbopt.xyz --gfn 2 --spinpol --tblite --uhf 2 --ohess vtight --parallel 40 --molden --ceasefiles --namespace data2507/gas/CzppT/CzppT_gas_T1_preOpt
 * total energy  :  -170.1158255 Eh     change        0.7792374E-07 Eh
 * total energy  :  -170.1184505 Eh     change       -0.2624994E-02 Eh
 * total energy  :  -170.1205792 Eh     change       -0.2128705E-02 Eh
 * total energy  :  -170.1215892 Eh     change       -0.1010054E-02 Eh
 * total energy  :  -170.1226530 Eh     change       -0.1063716E-02 Eh
 * total energy  :  -170.1233637 Eh     change       -0.7107648E-03 Eh
 * total energy  :  -170.1236820 Eh     change       -0.3182489E-03 Eh
 * total energy  :  -170.1238668 Eh     change       -0.1848438E-03 Eh
 * total energy  :  -170.1239874 Eh     change       -0.1205888E-03 Eh
 * total energy  :  -170.1240616 Eh     change       -0.7421717E-04 Eh
 * total energy  :  -170.1251317 Eh     change       -0.4978153E-06 Eh
 * total energy  :  -170.1251322 Eh     change       -0.4888934E-06 Eh
 * total energy  :  -170.1251325 Eh     change       -0.2967204E-06 Eh
 * total energy  :  -170.1251328 Eh     change       -0.3255596E-06 Eh
 * total energy  :  -170.1251332 Eh     change       -0.3454751E-06 Eh
 * total energy  :  -170.1251333 Eh     change       -0.1028844E-06 Eh
 * total energy  :  -170.1251338 Eh     change       -0.5286903E-06 Eh
 * total energy  :  -170.1251342 Eh     change       -0.4327731E-06 Eh
 * total energy  :  -170.1251342 Eh     change       -0.5429285E-08 Eh
   *** GEOMETRY OPTIMIZATION CONVERGED AFTER 68 ITERATIONS ***

 final structure:
================
110
 xtb: 6.7.1 (edcfbbe)
C            2.89653090557670       -3.68791393646044       -0.13246049906358
C            1.91320921368181       -3.45915490818679       -1.08110967382148
C            1.20094858599874       -2.27487722955776       -1.07489586881269
C            1.46443586672181       -1.29468210827102       -0.12049815050015
C            0.72519946102542       -0.01790992552512       -0.11431863582408
C           -0.65612009123301       -0.02521715128414       -0.01784725370583
C           -1.40285912427634       -1.30154082902801        0.00416976086494
C           -2.38115535994773       -1.55712068581325       -0.95335665206030
C           -3.11200920785896       -2.72989225111608       -0.91622087560816
C           -2.87440601090160       -3.66641769115528        0.07644070816009
C           -1.89549899337026       -3.42633628873513        1.02593817122329
C           -1.16461402691985       -2.25333001076300        0.99108479494141
C           -1.37487188640089        1.18859445572965        0.06382988628805
C           -2.83547794393052        1.15732256321600        0.15059492928947
C           -3.62808257753718        1.86364440109076       -0.75632761285630
C           -4.99823567000063        1.71059364683138       -0.76146291212794
C           -5.62172335394791        0.84643516700159        0.13757045695974
C           -7.05578011832667        0.55728139725431        0.04752974370158
C           -8.02338747045478        1.54552334989491       -0.08725147241395
C           -9.37752184249464        1.23855328018450       -0.16989320108534
C           -9.82101886777157       -0.07022027291368       -0.14007631312464
C           -8.87958350080473       -1.08618523933796       -0.03104525760087
C           -7.50634737993230       -0.76539711127965        0.06623609712624
N           -6.77909952508364       -1.92693072149595        0.12841989659065
C           -7.63254867946076       -2.99729116216020        0.07419317454601
C           -7.34982002278567       -4.35458360982223        0.10023347721862
C           -8.41364714095798       -5.23354279401319        0.03554037762801
C           -9.72743884943154       -4.77653398096563       -0.05237534536454
C          -10.01440770034365       -3.42581041310128       -0.07932269347783
C           -8.96260152500776       -2.52132406965225       -0.01578372814708
C           -4.83745586379387        0.20857735205906        1.10036782229124
C           -3.47032876138295        0.36367910849801        1.10919751259250
C           -0.67377913814159        2.40429021439718        0.03957095530993
C           -1.41153525216927        3.68224600599211        0.09529935384483
C           -2.23806651007566        3.98218977873404        1.17734068982485
C           -2.89557754848341        5.19716706941118        1.19111234393552
C           -2.71541907019841        6.07094107257800        0.12880429019355
C           -1.88091535205205        5.67528322154398       -0.90347247842561
N           -1.25003909478160        4.51683855845844       -0.92592915804253
C            0.71012018950472        2.42464116509845       -0.04206522788512
C            1.37890694904240        3.73035682271292       -0.12538111160887
C            2.26394505418821        4.02195063260814       -1.16657754534681
C            2.82164661559663        5.28298518998162       -1.23167288926905
C            2.48758029836271        6.21851092438838       -0.26162285271933
C            1.60252284567182        5.83343527222866        0.73204149560445
N            1.06570201052186        4.63146725334690        0.80357070383961
C            1.44514341538002        1.21276898214723       -0.12451162016188
C            2.87424161255631        1.20139032122796       -0.19588212138275
C            3.68655877427082        2.05032619809128        0.61087853766284
C            5.03254383604823        1.88043121116988        0.68782464134700
C            5.69600248276830        0.83734183158908       -0.02700019482443
C            7.05214911105413        0.49665028705930        0.20913703492476
C            8.03298304701430        1.44019554527086        0.62787770594790
C            9.35672433156944        1.10411193095382        0.78006385377949
C            9.81855723026483       -0.19817537336016        0.57375738723233
C            8.88569493161875       -1.17330345108330        0.22276756702996
C            7.52993321365054       -0.83000831517672        0.05090204422541
N            6.81231635208455       -1.97069569177750       -0.18604965870099
C            7.65336041219558       -3.04985866259871       -0.19802605331106
C            7.36904178405449       -4.39185394192971       -0.40189242575597
C            8.42484591551963       -5.28183055141877       -0.36746753130037
C            9.73063734014219       -4.84674760767973       -0.13434329614010
C           10.01856685941665       -3.51189540418493        0.07292159901003
C            8.97536130474140       -2.59483460801111        0.04147410250656
C            4.90404377445468        0.12001721929487       -0.97511079040331
C            3.56151806181314        0.29013039701779       -1.05043960491041
C            2.44598852819898       -1.54153846753990        0.83912458741729
C            3.15634474025018       -2.72687659541435        0.83119200481809
H            3.45202895342052       -4.61459725984973       -0.13953980559084
H            1.70345887108390       -4.20646384794211       -1.83246890017932
H            0.44665061084795       -2.09505316065783       -1.82694274849742
H           -2.56589872581826       -0.83078063996391       -1.73173385314427
H           -3.86839286411352       -2.91452231732052       -1.66659862733773
H           -3.44612420318872       -4.58265128384547        0.10771474454463
H           -1.70400710524374       -4.15454484341178        1.80057845198235
H           -0.41197091451178       -2.06344325923524        1.74264706192270
H           -3.15377731629095        2.49424497872783       -1.49413255657918
H           -5.59533857352864        2.22544193076594       -1.50015906253173
H           -7.71060575275171        2.57943881879781       -0.10515991868975
H          -10.09259278871875        2.04308447905512       -0.25911586880545
H          -10.87316434706138       -0.30127742409893       -0.20748715251825
H           -5.77372365462959       -1.97831818878896        0.15113136229559
H           -6.33161391900648       -4.70809835375762        0.16891694947396
H           -8.22534511294061       -6.29699968400835        0.05312194972232
H          -10.53175038638724       -5.49560750609437       -0.10035546530681
H          -11.03393743408388       -3.07729358818116       -0.14797538063927
H           -5.31361011017229       -0.40112780699158        1.85571474646638
H           -2.87869863392147       -0.13327329412237        1.86390668692009
H           -2.34389163130874        3.27870128926685        1.98839114104987
H           -3.53856197187792        5.46266082478643        2.01835418449115
H           -3.20912301563225        7.03002677340029        0.10206974895719
H           -1.70749145956198        6.31283866291863       -1.76167918801448
H            2.48420006364339        3.27408941656650       -1.91252824974602
H            3.50429649655407        5.53914198269032       -2.02950722885213
H            2.90193510275960        7.21452388311740       -0.27668028768690
H            1.30822653626954        6.51801416312022        1.51817213074254
H            3.20277851107141        2.77991893302525        1.24264076174640
H            5.60536781844494        2.48150201222385        1.37731887185541
H            7.72784577659791        2.46474319823321        0.77249873010136
H           10.06333388798526        1.87019573165388        1.06519836588656
H           10.85868262983115       -0.44756503083121        0.70772185569727
H            5.80782755973648       -2.01555107620410       -0.25847084619023
H            6.35751217163087       -4.72396944795518       -0.58304142233466
H            8.23959458260675       -6.33401064456575       -0.52367667824440
H           10.52879700511270       -5.57398129202986       -0.11610471695512
H           11.03135695047766       -3.18548058534881        0.25420211430550
H            5.40492637512440       -0.50854554614307       -1.69825861000046
H            2.99571956731782       -0.22727925394725       -1.81111476621905
H            2.64362298417167       -0.79976236824189        1.59964695481919
H            3.91302489125849       -2.90375772523243        1.58325614838417

 projected vibrational frequencies (cm⁻¹)
eigval :       -0.00    -0.00     0.00     0.00     0.00     0.00
eigval :        7.16     8.34    13.19    14.11    18.73    23.57
eigval :       26.51    33.27    37.53    44.35    44.57    47.09
eigval :       48.05    50.06    54.17    56.37    74.37    79.18
eigval :       83.59    88.50    94.48   102.25   108.88   114.13
eigval :      114.86   121.73   127.80   142.37   152.83   167.20
eigval :      179.54   192.55   193.77   195.24   200.72   215.50
eigval :      219.76   228.74   234.03   246.20   251.48   254.38
eigval :      262.98   266.57   277.92   283.08   293.93   312.43
eigval :      315.04   333.65   335.28   353.64   356.54   370.14
eigval :      375.83   376.11   376.98   382.17   388.18   400.62
eigval :      408.04   415.61   419.39   439.02   454.37   460.12
eigval :      467.20   478.68   481.23   487.63   490.66   508.43
eigval :      514.30   515.89   517.20   524.16   529.51   532.81
eigval :      541.78   550.42   551.66   556.09   558.77   574.50
eigval :      579.90   582.23   583.98   585.41   586.66   589.83
eigval :      590.26   599.44   604.00   612.56   621.52   628.40
eigval :      635.68   638.18   645.66   647.07   663.76   671.65
eigval :      678.10   680.12   684.22   689.33   695.16   699.28
eigval :      699.88   706.67   711.41   717.77   722.77   745.40
eigval :      751.69   758.48   765.24   769.56   771.88   781.27
eigval :      783.62   787.77   796.26   806.22   820.92   826.46
eigval :      830.31   832.74   839.08   848.39   857.01   860.64
eigval :      863.17   864.50   865.27   870.78   872.51   877.09
eigval :      880.32   881.70   882.04   885.31   887.76   897.89
eigval :      900.55   902.52   903.28   903.65   911.96   912.67
eigval :      914.03   914.46   916.90   920.35   924.59   926.87
eigval :      928.89   930.31   931.02   931.09   934.55   934.75
eigval :      935.53   947.06   958.85   973.32   984.35   990.56
eigval :      993.08   997.59  1027.20  1038.08  1060.89  1062.57
eigval :     1066.44  1083.55  1084.47  1085.86  1093.95  1094.50
eigval :     1096.38  1099.94  1118.68  1119.72  1120.43  1122.19
eigval :     1123.71  1133.18  1140.15  1143.87  1148.16  1157.11
eigval :     1160.66  1163.27  1165.37  1165.91  1173.12  1175.60
eigval :     1181.19  1181.53  1182.53  1186.91  1192.41  1197.14
eigval :     1198.75  1201.11  1207.69  1208.40  1223.85  1231.27
eigval :     1239.16  1244.11  1246.97  1252.69  1262.91  1271.04
eigval :     1272.44  1273.26  1282.11  1282.82  1283.18  1285.32
eigval :     1288.78  1292.40  1303.21  1307.66  1311.87  1313.25
eigval :     1314.84  1316.33  1318.16  1321.03  1325.52  1352.51
eigval :     1354.10  1355.84  1367.86  1370.01  1372.34  1379.23
eigval :     1385.38  1391.13  1393.78  1401.41  1406.07  1409.16
eigval :     1411.89  1415.78  1426.05  1427.09  1429.46  1430.69
eigval :     1436.13  1436.97  1457.36  1471.33  1474.74  1478.71
eigval :     1479.95  1487.62  1488.96  1496.13  1504.87  1509.25
eigval :     1530.56  1536.79  1541.58  1549.32  1554.25  1565.31
eigval :     1572.03  1572.45  1574.39  1576.58  1579.42  1580.98
eigval :     1588.01  1590.31  1594.28  1594.78  1598.12  1612.91
eigval :     3044.25  3045.66  3060.82  3063.04  3064.13  3067.36
eigval :     3067.83  3067.97  3072.47  3072.74  3074.12  3075.17
eigval :     3075.37  3076.72  3077.01  3079.02  3079.89  3080.30
eigval :     3080.85  3082.97  3083.64  3084.16  3084.32  3084.75
eigval :     3086.50  3086.82  3089.09  3089.76  3090.23  3091.26
eigval :     3091.74  3092.12  3093.54  3094.02  3095.16  3095.48
eigval :     3095.75  3096.87  3099.44  3104.79  3442.68  3462.17

   temp. (K)  partition function   enthalpy   heat capacity  entropy
                                   cal/mol     cal/K/mol   cal/K/mol   J/K/mol
 298.15  VIB  0.145E+27            32290.299    202.002    202.896
         ROT  0.232E+09              888.752      2.981     41.262
         INT  0.337E+35            33179.051    204.983    244.158
         TR   0.247E+29             1481.254      4.968     46.135
         TOT                       34660.3050   209.9515   290.2936  1214.5883

       T/K    H(0)-H(T)+PV         H(T)/Eh          T*S/Eh         G(T)/Eh
   ------------------------------------------------------------------------
    298.15    0.552347E-01    0.896943E+00    0.137928E+00    0.759015E+00
   ------------------------------------------------------------------------

         :::::::::::::::::::::::::::::::::::::::::::::::::::::
         ::                  THERMODYNAMIC                  ::
         :::::::::::::::::::::::::::::::::::::::::::::::::::::
         :: total free energy        -169.366118776960 Eh   ::
         ::.................................................::
         :: total energy             -170.125134226860 Eh   ::
         :: zero point energy           0.841708579603 Eh   ::
         :: G(RRHO) w/o ZPVE           -0.082693129703 Eh   ::
         :: G(RRHO) contrib.            0.759015449901 Eh   ::
         :::::::::::::::::::::::::::::::::::::::::::::::::::::

           -------------------------------------------------
          | TOTAL ENERGY             -170.125134226860 Eh   |
          | TOTAL ENTHALPY           -169.228190935436 Eh   |
          | TOTAL FREE ENERGY        -169.366118776960 Eh   |
          | GRADIENT NORM               0.000058081506 Eh/α |
           -------------------------------------------------

 * finished run on 2025/08/30 at 11:59:39.053
