   * xtb version 6.7.1 (edcfbbe) compiled by 'albert@albert-system' on 2024-07-22

   ID    Z sym.   atoms
    1    6 C      1-23, 25-38, 40-45, 47-57, 59-68
    2    7 N      24, 39, 46, 58
    3    1 H      69-110

          program call               : xtb data2507/gas/CzppT/CzppT_gas_T1_crest.xyz --gfn 2 --spinpol --tblite --uhf 2 --ohess vtight --parallel 40 --molden --ceasefiles --namespace data2507/gas/CzppT/CzppT_gas_T1_finalOpt
 * total energy  :  -170.1249457 Eh     change       -0.4427841E-07 Eh
 * total energy  :  -170.1249901 Eh     change       -0.4439613E-04 Eh
 * total energy  :  -170.1250413 Eh     change       -0.5127864E-04 Eh
 * total energy  :  -170.1250592 Eh     change       -0.1788571E-04 Eh
 * total energy  :  -170.1250826 Eh     change       -0.2339436E-04 Eh
 * total energy  :  -170.1250921 Eh     change       -0.9436124E-05 Eh
 * total energy  :  -170.1251007 Eh     change       -0.8653893E-05 Eh
 * total energy  :  -170.1250957 Eh     change        0.5066546E-05 Eh
 * total energy  :  -170.1251031 Eh     change       -0.7429662E-05 Eh
 * total energy  :  -170.1251070 Eh     change       -0.3911457E-05 Eh
 * total energy  :  -170.1251320 Eh     change       -0.1550757E-06 Eh
 * total energy  :  -170.1251322 Eh     change       -0.2102400E-06 Eh
 * total energy  :  -170.1251325 Eh     change       -0.2576867E-06 Eh
 * total energy  :  -170.1251327 Eh     change       -0.2153082E-06 Eh
 * total energy  :  -170.1251328 Eh     change       -0.1356979E-06 Eh
 * total energy  :  -170.1251336 Eh     change       -0.7208055E-06 Eh
 * total energy  :  -170.1251340 Eh     change       -0.4266198E-06 Eh
 * total energy  :  -170.1251341 Eh     change       -0.1029778E-06 Eh
 * total energy  :  -170.1251341 Eh     change       -0.1027990E-07 Eh
   *** GEOMETRY OPTIMIZATION CONVERGED AFTER 44 ITERATIONS ***

 final structure:
================
110
 xtb: 6.7.1 (edcfbbe)
C            2.91299163460346       -3.67885012822988       -0.15141950993344
C            1.93046245753445       -3.45255361784458       -1.10148334657760
C            1.21305577650997       -2.27137406436480       -1.09438227888664
C            1.47060963518432       -1.29192791107297       -0.13763918275603
C            0.72540520949834       -0.01861749459447       -0.12999078874443
C           -0.65582558958023       -0.03295446403725       -0.03334444532419
C           -1.39675680815702       -1.31265779876183       -0.01352777801433
C           -2.37558804147079       -1.56950530239785       -0.97020318476238
C           -3.10170829928040       -2.74524995127663       -0.93522230811970
C           -2.85861537251223       -3.68372831641296        0.05425591616201
C           -1.87907418902237       -3.44243270884209        1.00279348695375
C           -1.15309928802995       -2.26631052802020        0.97026109028188
C           -1.38070711645866        1.17715859534274        0.05063767084274
C           -2.84089146801965        1.13813822951166        0.14177417571057
C           -3.64032174192547        1.84029971452358       -0.76234166137487
C           -5.00980799037609        1.68143093132758       -0.76147517632892
C           -5.62586842483441        0.81554074809493        0.14101162236439
C           -7.05963264444841        0.52270401541517        0.05896125397807
C           -8.02978360478563        1.50899951151584       -0.07211892324194
C           -9.38382728653194        1.19962613055557       -0.14631050807346
C           -9.82492067910731       -0.10981683165983       -0.11074278161998
C           -8.88114001707564       -1.12389721866325       -0.00463480142305
C           -7.50782304429788       -0.80069040975095        0.08321386167553
N           -6.77841828497868       -1.96092888498935        0.14429724124138
C           -7.63059278665488       -3.03276593079433        0.09965262065330
C           -7.34578673073511       -4.38954012519173        0.12997185787260
C           -8.40880349214327       -5.27025250343211        0.07664987846286
C           -9.72379791072195       -4.81547910729387       -0.00463807693961
C          -10.01281959813005       -3.46529476322783       -0.03612465056337
C           -8.96189214870228       -2.55908658783088        0.01634453008657
C           -4.83468688904138        0.18098967788825        1.10033654906929
C           -3.46818357229934        0.34172733616476        1.10303746789271
C           -0.68617035250000        2.39647462368298        0.02541090246299
C           -1.43123841649948        3.67028983443881        0.08087482782033
C           -2.25671834606659        3.96716953375811        1.16457709889217
C           -2.92296191116685        5.17739762717959        1.17706459606294
C           -2.75197392901282        6.04970874688608        0.11205414610698
C           -1.91726356721752        5.65752029521975       -0.92137606708657
N           -1.27836309530465        4.50345392812292       -0.94280036068380
C            0.69755123269487        2.42395427452762       -0.05734347234543
C            1.35950627230468        3.73271893714413       -0.14438295207759
C            2.24504081030812        4.02440104007536       -1.18523371347154
C            2.79586263993162        5.28814313212629       -1.25529313291455
C            2.45475646839730        6.22639533961809       -0.29029944755607
C            1.57005008028469        5.84103761655246        0.70357094460315
N            1.03970222692375        4.63649505974727        0.77978585065445
C            1.43907054952599        1.21567093524921       -0.13836074228878
C            2.86840598260788        1.21265066859732       -0.20427221841709
C            3.67125223490339        2.06775984897715        0.60553747033555
C            5.01794442022062        1.90719216881150        0.68895493264769
C            5.69200304626427        0.86832532215257       -0.02206515059058
C            7.04985300801818        0.53859712862681        0.22013780188375
C            8.02082832001539        1.49059942662465        0.64257844776920
C            9.34658828204883        1.16575039636200        0.80152147008513
C            9.82015271975250       -0.13284429035206        0.59890686665389
C            8.89707661209605       -1.11597992142995        0.24451959395423
C            7.53938208795176       -0.78413768489803        0.06536942941712
N            6.83256304636087       -1.93103253304339       -0.17411669987610
C            7.68260477640395       -3.00320341696381       -0.18036989076390
C            7.41053836668323       -4.34780707477957       -0.38376513682704
C            8.47346032949134       -5.22896293608706       -0.34206893896363
C            9.77428911897980       -4.78278433984347       -0.10231063683192
C           10.05002910436729       -3.44526985735558        0.10432781373358
C            8.99947266412787       -2.53693357632066        0.06556708693801
C            4.90929542645938        0.14441203006332       -0.97276822521398
C            3.56590865655096        0.30513860791026       -1.05454244600815
C            2.45142540253800       -1.53627657136634        0.82333968098755
C            3.16688181922848       -2.71854380750208        0.81451486238811
H            3.47249431889227       -4.60311237702535       -0.15924985313706
H            1.72531480342647       -4.19939753421950       -1.85457240899047
H            0.45921543121234       -2.09343368559964       -1.84734775016483
H           -2.56457158643508       -0.84169544337131       -1.74617295549984
H           -3.85885083845005       -2.93057625375610       -1.68463357925153
H           -3.42660809529478       -4.60233871598093        0.08372952524254
H           -1.68326612252350       -4.17213274473561        1.77495147369600
H           -0.40016851780632       -2.07553185392025        1.72130092729397
H           -3.17186298747630        2.47260885334148       -1.50241385938582
H           -5.61227369778749        2.19339731891594       -1.49781531051788
H           -7.71886460606453        2.54340819697271       -0.09365385151961
H          -10.10075723836650        2.00276684038133       -0.23308494080785
H          -10.87705621767790       -0.34280128568751       -0.17125813030747
H           -5.77285878409637       -2.01067738815720        0.16109933295049
H           -6.32665932662046       -4.74135235969478        0.19366203901021
H           -8.21892043594060       -6.33335402550918        0.09832024027704
H          -10.52741633102171       -5.53587447357645       -0.04361749040504
H          -11.03326784572464       -3.11848968729987       -0.09963767447996
H           -5.30493021408851       -0.43028036829014        1.85811882709163
H           -2.87111543395785       -0.15265300041419        1.85516540695599
H           -2.35535373824834        3.26497569192695        1.97765526715324
H           -3.56577499626516        5.44027763348410        2.00527693174896
H           -3.25284152648596        7.00504187539180        0.08410609168976
H           -1.75058118452225        6.29423382096169       -1.78153757016214
H            2.47074922470946        3.27432462799138       -1.92732773666736
H            3.47852131756811        5.54430307013436       -2.05311977222224
H            2.86356191175983        7.22462882635486       -0.30936213030534
H            1.27066228943323        6.52763786181169        1.48600967567329
H            3.17954813581854        2.79447827800597        1.23447933632143
H            5.58324379032971        2.51266843376287        1.38077746588725
H            7.70657765586268        2.51272091830999        0.78477801534537
H           10.04535899374889        1.93800376891893        1.08930523949473
H           10.86164345765916       -0.37351003916805        0.73809840597215
H            5.82892640993531       -1.98422776741775       -0.25211595660960
H            6.40280355461796       -4.68861929441731       -0.56987725906354
H            8.29776272685066       -6.28288505011108       -0.49757250909081
H           10.57828783264111       -5.50338987254913       -0.07829328210505
H           11.05904921544829       -3.11018897552083        0.29075383860072
H            5.41772723263368       -0.48156398542277       -1.69288608611036
H            3.00737058269360       -0.21696447764898       -1.81736891835949
H            2.64426354244122       -0.79507169815372        1.58565537724561
H            3.92284637518993       -2.89360192829650        1.56773543063380

 projected vibrational frequencies (cm⁻¹)
eigval :       -0.00    -0.00    -0.00     0.00     0.00     0.00
eigval :        6.82     8.14    13.00    13.40    18.53    23.27
eigval :       26.21    33.28    37.40    44.13    44.57    47.03
eigval :       47.80    49.74    53.89    56.19    74.20    78.72
eigval :       83.48    88.53    94.37   102.40   108.78   114.11
eigval :      114.60   121.63   127.70   142.33   152.73   167.19
eigval :      179.56   192.52   193.76   195.32   200.79   215.57
eigval :      219.66   228.51   234.17   246.27   251.53   254.51
eigval :      262.97   266.58   277.85   283.04   294.02   312.41
eigval :      314.98   333.80   335.18   353.73   356.56   370.03
eigval :      375.70   375.98   376.88   382.04   388.19   400.53
eigval :      407.90   415.49   419.41   439.00   454.29   460.09
eigval :      467.38   478.58   481.14   487.56   489.14   508.36
eigval :      514.13   515.69   517.14   524.07   529.44   532.79
eigval :      541.57   549.83   551.50   555.71   558.29   574.35
eigval :      579.56   581.82   583.83   585.35   586.55   589.74
eigval :      589.94   599.36   603.86   612.47   621.46   628.41
eigval :      635.56   638.14   645.63   647.00   663.74   671.60
eigval :      678.04   680.03   684.25   689.32   695.19   699.28
eigval :      699.85   706.61   711.37   717.66   722.64   745.07
eigval :      751.48   758.27   764.96   769.26   771.55   781.22
eigval :      783.43   787.63   795.90   806.04   820.97   826.31
eigval :      830.14   832.49   838.80   848.27   857.01   860.65
eigval :      863.09   864.19   864.93   870.76   872.20   877.00
eigval :      879.97   881.46   881.72   885.14   887.45   897.60
eigval :      900.24   902.30   902.99   903.44   911.66   912.59
eigval :      913.79   914.10   916.57   919.98   924.36   926.54
eigval :      928.55   929.99   930.73   930.81   934.25   934.41
eigval :      935.27   947.17   958.67   973.41   984.62   990.52
eigval :      993.18   997.50  1027.27  1038.17  1061.02  1062.49
eigval :     1066.43  1083.62  1084.61  1085.96  1093.94  1094.51
eigval :     1096.32  1100.02  1118.65  1119.78  1120.42  1122.07
eigval :     1123.52  1132.99  1139.97  1143.73  1147.87  1157.07
eigval :     1160.21  1162.90  1164.84  1165.56  1172.93  1175.41
eigval :     1180.71  1181.07  1182.09  1186.48  1192.07  1196.83
eigval :     1198.25  1200.68  1207.45  1208.25  1223.61  1231.02
eigval :     1238.89  1243.87  1246.86  1252.60  1262.65  1270.83
eigval :     1272.18  1272.92  1281.86  1282.68  1282.99  1285.41
eigval :     1288.63  1292.22  1302.99  1307.48  1311.71  1313.19
eigval :     1314.76  1316.35  1318.17  1320.84  1325.51  1352.23
eigval :     1353.94  1355.82  1367.82  1369.76  1372.25  1379.04
eigval :     1385.33  1391.10  1393.71  1401.18  1405.95  1409.20
eigval :     1412.00  1415.63  1426.15  1426.97  1429.41  1430.75
eigval :     1436.23  1437.36  1457.64  1471.39  1474.82  1478.65
eigval :     1479.91  1487.60  1488.96  1496.14  1504.85  1509.32
eigval :     1530.53  1537.10  1541.83  1549.17  1554.38  1564.81
eigval :     1572.15  1572.70  1574.44  1576.52  1579.55  1580.89
eigval :     1588.12  1590.38  1594.03  1594.86  1598.21  1612.84
eigval :     3044.03  3045.44  3060.55  3062.62  3064.09  3067.10
eigval :     3067.49  3067.72  3072.23  3072.53  3074.03  3075.10
eigval :     3075.44  3076.75  3076.83  3078.91  3079.70  3080.06
eigval :     3080.80  3083.00  3083.56  3083.93  3084.03  3084.76
eigval :     3086.18  3086.90  3088.81  3089.88  3090.07  3091.08
eigval :     3091.57  3092.08  3093.48  3094.02  3094.97  3095.43
eigval :     3095.71  3096.92  3099.59  3105.00  3442.89  3462.50

   temp. (K)  partition function   enthalpy   heat capacity  entropy
                                   cal/mol     cal/K/mol   cal/K/mol   J/K/mol
 298.15  VIB  0.179E+27            32302.165    202.004    203.110
         ROT  0.232E+09              888.752      2.981     41.263
         INT  0.416E+35            33190.918    204.985    244.373
         TR   0.247E+29             1481.254      4.968     46.135
         TOT                       34672.1717   209.9528   290.5085  1215.4878

       T/K    H(0)-H(T)+PV         H(T)/Eh          T*S/Eh         G(T)/Eh
   ------------------------------------------------------------------------
    298.15    0.552536E-01    0.896873E+00    0.138030E+00    0.758843E+00
   ------------------------------------------------------------------------

         :::::::::::::::::::::::::::::::::::::::::::::::::::::
         ::                  THERMODYNAMIC                  ::
         :::::::::::::::::::::::::::::::::::::::::::::::::::::
         :: total free energy        -169.366290910269 Eh   ::
         ::.................................................::
         :: total energy             -170.125134087019 Eh   ::
         :: zero point energy           0.841619538757 Eh   ::
         :: G(RRHO) w/o ZPVE           -0.082776362007 Eh   ::
         :: G(RRHO) contrib.            0.758843176750 Eh   ::
         :::::::::::::::::::::::::::::::::::::::::::::::::::::

           -------------------------------------------------
          | TOTAL ENERGY             -170.125134087019 Eh   |
          | TOTAL ENTHALPY           -169.228260925671 Eh   |
          | TOTAL FREE ENERGY        -169.366290910269 Eh   |
          | GRADIENT NORM               0.000039197633 Eh/α |
           -------------------------------------------------

 * finished run on 2025/08/30 at 12:11:31.846
