   * xtb version 6.7.1 (edcfbbe) compiled by 'albert@albert-system' on 2024-07-22

   ID    Z sym.   atoms
    1    6 C      1-23, 25-38, 40-45, 47-57, 59-68
    2    7 N      24, 39, 46, 58
    3    1 H      69-110

          program call               : xtb data2507/gas/CzppT/CzppT_gas_S0_crest.xyz --gfn 2 --ohess vtight --parallel 40 --molden --ceasefiles --namespace data2507/gas/CzppT/CzppT_gas_S0_finalOpt
          :  Hamiltonian                  GFN2-xTB          :
 * total energy  :  -170.2195293 Eh     change       -0.1595188E-07 Eh
 * total energy  :  -170.2195304 Eh     change       -0.1058947E-05 Eh
 * total energy  :  -170.2195316 Eh     change       -0.1196042E-05 Eh
 * total energy  :  -170.2195326 Eh     change       -0.1033127E-05 Eh
 * total energy  :  -170.2195335 Eh     change       -0.9204551E-06 Eh
 * total energy  :  -170.2195347 Eh     change       -0.1200332E-05 Eh
 * total energy  :  -170.2195358 Eh     change       -0.1058073E-05 Eh
 * total energy  :  -170.2195364 Eh     change       -0.6758636E-06 Eh
 * total energy  :  -170.2195370 Eh     change       -0.5985503E-06 Eh
 * total energy  :  -170.2195377 Eh     change       -0.6293477E-06 Eh
 * total energy  :  -170.2195402 Eh     change       -0.7198418E-06 Eh
 * total energy  :  -170.2195407 Eh     change       -0.5453069E-06 Eh
 * total energy  :  -170.2195411 Eh     change       -0.3743415E-06 Eh
 * total energy  :  -170.2195414 Eh     change       -0.3562982E-06 Eh
 * total energy  :  -170.2195418 Eh     change       -0.4128697E-06 Eh
 * total energy  :  -170.2195423 Eh     change       -0.4584074E-06 Eh
 * total energy  :  -170.2195428 Eh     change       -0.4812556E-06 Eh
 * total energy  :  -170.2195432 Eh     change       -0.4173521E-06 Eh
 * total energy  :  -170.2195432 Eh     change       -0.7420766E-08 Eh
   *** GEOMETRY OPTIMIZATION CONVERGED AFTER 22 ITERATIONS ***

 final structure:
================
110
 xtb: 6.7.1 (edcfbbe)
C            2.91074597867433       -3.66464879775260       -0.20304224505277
C            1.94352984373942       -3.39720211019565       -1.15693734526318
C            1.21531780021402       -2.22320773209861       -1.09925181648459
C            1.44667183208870       -1.29865115533031       -0.08593396529183
C            0.70001751254621       -0.02295325301563       -0.04719418635247
C           -0.69417174775175       -0.02364635171702        0.01306692809690
C           -1.44146102952512       -1.29928015391901        0.03674507425303
C           -2.40895110572054       -1.56781509602866       -0.92752886940974
C           -3.13953384070947       -2.74055212851645       -0.88165925408764
C           -2.91011161754494       -3.66373397082982        0.12522594752202
C           -1.93930734176858       -3.41167191652907        1.07967262891027
C           -1.20891307181806       -2.23839104353900        1.03631093076845
C           -1.39267252034905        1.18927180639228        0.05635110227660
C           -2.86604501445470        1.16318746369201        0.10695253107439
C           -3.62551295374336        1.78026813342441       -0.88201922412481
C           -4.99782993399489        1.62675451317113       -0.90868325452532
C           -5.64130830781508        0.84918482906342        0.04947292885273
C           -7.07662246649000        0.55164954156693       -0.05001724539909
C           -8.04361465459553        1.52789716805133       -0.24418373453014
C           -9.39582209856035        1.21031326639061       -0.33555511181842
C           -9.83291474920452       -0.09721992466638       -0.25318093512390
C           -8.88922177001409       -1.10268490375987       -0.08090577331868
C           -7.51934313021593       -0.77029196474596        0.02337622237751
N           -6.78738896574576       -1.92306660660552        0.15788050814620
C           -7.63592723818848       -2.99927886270302        0.14341045567162
C           -7.34862457893376       -4.35187203386364        0.24476085098367
C           -8.40760393279061       -5.23819446546628        0.20724143432410
C           -9.72151190467081       -4.79300503534232        0.07296092512079
C          -10.01301824934683       -3.44722588978301       -0.02903200898346
C           -8.96583946136476       -2.53536758176214        0.00543437082640
C           -4.88636225794839        0.29811737527707        1.08328642458998
C           -3.51730935519991        0.45588438627036        1.11353353085334
C           -0.69500239234689        2.39534747228031        0.02849120225315
C           -1.41163245721460        3.68485962450107        0.05126045130405
C           -2.31560087426240        3.99124514193894        1.06658086128341
C           -2.94606041534065        5.22110125914668        1.04157575707416
C           -2.65974182242444        6.10097015073774        0.00876182510764
C           -1.74784672616303        5.69945038437782       -0.95414854438952
N           -1.14098151804879        4.52806163065576       -0.93986288781083
C            0.69957519799221        2.39615903887970       -0.03789079554286
C            1.41341447099294        3.68713312638986       -0.04806292179879
C            2.32701074328724        4.00128983674353       -1.05235708776060
C            2.95150763963971        5.23396862358378       -1.01608446955789
C            2.64966021668504        6.10911454098378        0.01628533827533
C            1.72908516554378        5.70008174208050        0.96775212948464
N            1.12811899992308        4.52594599327274        0.94278035313589
C            1.39806955267656        1.19066819177053       -0.07582055027297
C            2.87175171031840        1.16541994501891       -0.11672728192463
C            3.62234399083658        1.77230805593627        0.88534121652209
C            4.99414359609408        1.61714527999760        0.92382116975197
C            5.64604800970775        0.84787978894000       -0.03536530920324
C            7.07964098337773        0.54650091799147        0.07713112027435
C            8.04649662559680        1.51894080007858        0.29008781117646
C            9.39673122815945        1.19733925662348        0.39569492531417
C            9.83159775307996       -0.11069688631281        0.30972956758623
C            8.88770418327586       -1.11254843709516        0.11850831652917
C            7.52006853160722       -0.77593575424329       -0.00073892490137
N            6.78707015733587       -1.92583341803721       -0.15295569680336
C            7.63270976100641       -3.00426799370083       -0.13532699522057
C            7.34338865479762       -4.35535817277411       -0.25006486358974
C            8.39958197550732       -5.24465017244343       -0.20507438979863
C            9.71271877150547       -4.80383653719446       -0.05043088712294
C           10.00623546867343       -3.45956566157184        0.06485965919823
C            8.96187766338561       -2.54478394950445        0.02312316665104
C            4.90066397248189        0.30799871112447       -1.08191832288491
C            3.53205357002043        0.46755620248640       -1.12398800232049
C            2.41070577996404       -1.58248354623651        0.87737484644881
C            3.13889369189674       -2.75612319215395        0.81738688205570
H            3.48016184145715       -4.58143938593060       -0.25148895245065
H            1.75816491455448       -4.10466115563664       -1.95185420772708
H            0.47035576682926       -2.01174792640503       -1.85259419631432
H           -2.58596357146460       -0.85300270500781       -1.71803263688396
H           -3.88891729265366       -2.93556885086267       -1.63613196028302
H           -3.48146710049396       -4.57984231602427        0.16255111327536
H           -1.75291797475997       -4.13059266267478        1.86400269260587
H           -0.46151269939399       -2.03902653306167        1.79052099627617
H           -3.12856116012967        2.34994298928831       -1.65422704651303
H           -5.57708998189605        2.07645032713927       -1.70199122202125
H           -7.73440290683116        2.56135219334589       -0.30534425354510
H          -10.11242132190380        2.00637388617391       -0.47425273094972
H          -10.88270139333744       -0.33703041716256       -0.32712179981703
H           -5.78273962823462       -1.96810786745204        0.20402448777772
H           -6.33042558157466       -4.69650211468503        0.35000895216931
H           -8.21526054849762       -6.29838654741978        0.28351043792510
H          -10.52194902134347       -5.51757980816801        0.04862205413089
H          -11.03248478327657       -3.10735867591450       -0.13316303981207
H           -5.38241611666272       -0.25361175550845        1.86950319635861
H           -2.94111523821121        0.01668401309529        1.91505048376892
H           -2.50210340260015        3.28391939307244        1.85944339320242
H           -3.64854420798621        5.49234601143728        1.81686670359523
H           -3.12907419705142        7.07099143358147       -0.04677652362111
H           -1.48728622366528        6.34474406442190       -1.78404985472178
H            2.52543164559274        3.29799097945296       -1.84590342668409
H            3.66117112416707        5.51112192031240       -1.78269540593337
H            3.11370227889508        7.08116422615155        0.08008997102622
H            1.45620651130782        6.34132110233778        1.79683256440705
H            3.11838972489954        2.33476179121023        1.65831632771591
H            5.56611490667884        2.05833248074495        1.72713257503092
H            7.73896156150584        2.55265949973312        0.35515612535162
H           10.11354202470751        1.99055732181535        0.54884654316876
H           10.87977845462137       -0.35363511095534        0.39535923466778
H            5.78299542878936       -1.96810577209280       -0.21258566808267
H            6.32578421486825       -4.69658103588707       -0.37094202525777
H            8.20567385032461       -6.30377852492969       -0.29145512881273
H           10.51090686770811       -5.53068669612503       -0.02074064381914
H           11.02508360276845       -3.12306814210135        0.18477300808150
H            5.40377509259009       -0.23684066162642       -1.86846184804189
H            2.96332891496840        0.03672885259924       -1.93532468165306
H            2.58686971745424       -0.87914605622125        1.67831485352183
H            3.88517095361676       -2.96345882176588        1.57169450722977

          :  Hamiltonian                  GFN2-xTB          :
         :: gradient norm              0.000053503155 Eh/a0 ::
         :: HOMO-LUMO gap              2.728870267957 eV    ::
         :: SCC energy              -173.467883884201 Eh    ::
         :: -> dispersion             -0.176738676679 Eh    ::
         :: repulsion energy           3.248340679271 Eh    ::

    * Orbital Energies and Occupations

         #    Occupation            Energy/Eh            Energy/eV
      -------------------------------------------------------------
         1        2.0000           -0.6740253             -18.3412
       ...           ...                  ...                  ...
       147        2.0000           -0.4042423             -11.0000
       148        2.0000           -0.4019403             -10.9374
       149        2.0000           -0.4004168             -10.8959
       150        2.0000           -0.3990582             -10.8589
       151        2.0000           -0.3899970             -10.6124
       152        2.0000           -0.3863184             -10.5123
       153        2.0000           -0.3822926             -10.4027
       154        2.0000           -0.3753275             -10.2132
       155        2.0000           -0.3751603             -10.2086
       156        2.0000           -0.3641238              -9.9083
       157        2.0000           -0.3638618              -9.9012
       158        2.0000           -0.3617155              -9.8428
       159        2.0000           -0.3611061              -9.8262 (HOMO)
       160                         -0.2608220              -7.0973 (LUMO)
       161                         -0.2599706              -7.0742
       162                         -0.2480759              -6.7505
       163                         -0.2452989              -6.6749
       164                         -0.2411973              -6.5633
       165                         -0.2402489              -6.5375
       166                         -0.2335970              -6.3565
       167                         -0.2321419              -6.3169
       168                         -0.2314763              -6.2988
       169                         -0.2297760              -6.2525
       170                         -0.2293384              -6.2406
       ...                                ...                  ...
       314                          0.7478041              20.3488
      -------------------------------------------------------------
                  HL-Gap            0.1002841 Eh            2.7289 eV

     #   Z          covCN         q      C6AA      α(0)
     1   6 C        2.920    -0.033    28.813     8.802
     2   6 C        2.919    -0.030    28.743     8.792
     3   6 C        2.925    -0.031    28.775     8.797
     4   6 C        2.977     0.017    27.622     8.621
     5   6 C        2.983    -0.001    28.042     8.686
     6   6 C        2.983    -0.001    28.042     8.686
     7   6 C        2.977     0.017    27.623     8.621
     8   6 C        2.925    -0.032    28.807     8.802
     9   6 C        2.919    -0.033    28.833     8.805
    10   6 C        2.920    -0.033    28.814     8.803
    11   6 C        2.919    -0.030    28.743     8.792
    12   6 C        2.925    -0.031    28.776     8.797
    13   6 C        2.983     0.000    28.012     8.682
    14   6 C        2.979     0.011    27.757     8.642
    15   6 C        2.923    -0.033    28.821     8.804
    16   6 C        2.923    -0.035    28.875     8.812
    17   6 C        2.977     0.008    27.837     8.655
    18   6 C        2.969    -0.015    28.389     8.740
    19   6 C        2.926    -0.039    28.960     8.825
    20   6 C        2.919    -0.042    29.055     8.839
    21   6 C        2.912    -0.035    28.870     8.811
    22   6 C        3.070    -0.017    28.357     8.732
    23   6 C        3.081     0.050    26.796     8.486
    24   7 N        2.755    -0.122    23.648     7.222
    25   6 C        3.075     0.055    26.693     8.471
    26   6 C        2.909    -0.055    29.360     8.885
    27   6 C        2.924    -0.033    28.824     8.804
    28   6 C        2.920    -0.042    29.048     8.838
    29   6 C        2.912    -0.033    28.815     8.802
    30   6 C        3.073    -0.017    28.349     8.730
    31   6 C        2.924    -0.041    29.010     8.833
    32   6 C        2.923    -0.034    28.845     8.808
    33   6 C        2.986     0.004    27.916     8.667
    34   6 C        2.968     0.109    25.585     8.297
    35   6 C        2.918    -0.037    28.922     8.819
    36   6 C        2.929    -0.010    28.276     8.721
    37   6 C        2.914    -0.042    29.035     8.836
    38   6 C        2.908     0.062    26.616     8.460
    39   7 N        1.844    -0.236    27.022     7.704
    40   6 C        2.986     0.004    27.920     8.668
    41   6 C        2.968     0.109    25.589     8.298
    42   6 C        2.918    -0.037    28.925     8.819
    43   6 C        2.929    -0.010    28.277     8.721
    44   6 C        2.914    -0.042    29.034     8.836
    45   6 C        2.908     0.062    26.615     8.459
    46   7 N        1.844    -0.236    27.020     7.704
    47   6 C        2.983     0.000    28.012     8.682
    48   6 C        2.979     0.011    27.757     8.642
    49   6 C        2.923    -0.033    28.821     8.804
    50   6 C        2.923    -0.035    28.874     8.812
    51   6 C        2.977     0.008    27.837     8.654
    52   6 C        2.969    -0.015    28.389     8.740
    53   6 C        2.926    -0.039    28.960     8.825
    54   6 C        2.919    -0.042    29.056     8.839
    55   6 C        2.912    -0.035    28.870     8.811
    56   6 C        3.070    -0.017    28.357     8.732
    57   6 C        3.081     0.050    26.796     8.486
    58   7 N        2.755    -0.122    23.649     7.223
    59   6 C        3.075     0.055    26.693     8.471
    60   6 C        2.909    -0.055    29.360     8.885
    61   6 C        2.924    -0.033    28.824     8.804
    62   6 C        2.920    -0.042    29.048     8.838
    63   6 C        2.912    -0.033    28.815     8.802
    64   6 C        3.073    -0.017    28.349     8.730
    65   6 C        2.924    -0.041    29.010     8.833
    66   6 C        2.923    -0.034    28.845     8.808
    67   6 C        2.925    -0.032    28.807     8.802
    68   6 C        2.919    -0.033    28.834     8.806
    69   1 H        0.926     0.029     2.607     2.525
    70   1 H        0.926     0.031     2.568     2.506
    71   1 H        0.926     0.029     2.596     2.519
    72   1 H        0.926     0.029     2.603     2.523
    73   1 H        0.926     0.028     2.612     2.528
    74   1 H        0.926     0.029     2.607     2.525
    75   1 H        0.926     0.031     2.568     2.506
    76   1 H        0.926     0.029     2.596     2.520
    77   1 H        0.926     0.031     2.567     2.506
    78   1 H        0.926     0.033     2.538     2.491
    79   1 H        0.926     0.029     2.595     2.519
    80   1 H        0.926     0.028     2.616     2.529
    81   1 H        0.926     0.031     2.570     2.507
    82   1 H        0.860     0.160     1.333     1.809
    83   1 H        0.926     0.023     2.690     2.565
    84   1 H        0.926     0.028     2.610     2.526
    85   1 H        0.926     0.027     2.626     2.534
    86   1 H        0.926     0.031     2.579     2.511
    87   1 H        0.926     0.029     2.598     2.521
    88   1 H        0.926     0.027     2.624     2.533
    89   1 H        0.926     0.035     2.511     2.478
    90   1 H        0.926     0.034     2.527     2.486
    91   1 H        0.926     0.033     2.540     2.492
    92   1 H        0.925     0.033     2.549     2.497
    93   1 H        0.926     0.035     2.511     2.478
    94   1 H        0.926     0.034     2.527     2.486
    95   1 H        0.926     0.033     2.539     2.492
    96   1 H        0.925     0.033     2.550     2.497
    97   1 H        0.926     0.031     2.569     2.506
    98   1 H        0.926     0.033     2.538     2.491
    99   1 H        0.926     0.029     2.595     2.519
   100   1 H        0.926     0.028     2.616     2.529
   101   1 H        0.926     0.031     2.570     2.507
   102   1 H        0.860     0.160     1.333     1.809
   103   1 H        0.926     0.023     2.690     2.565
   104   1 H        0.926     0.028     2.610     2.526
   105   1 H        0.926     0.027     2.626     2.534
   106   1 H        0.926     0.031     2.579     2.511
   107   1 H        0.926     0.029     2.599     2.521
   108   1 H        0.926     0.027     2.624     2.533
   109   1 H        0.926     0.029     2.605     2.524
   110   1 H        0.926     0.028     2.613     2.528

molecular dipole:
                 x           y           z       tot (Debye)
 q only:        0.002      -0.141      -0.004
   full:        0.004       0.145      -0.003       0.368

 projected vibrational frequencies (cm⁻¹)
eigval :       -0.00    -0.00    -0.00    -0.00    -0.00     0.00
eigval :        7.93     9.13    12.33    15.05    16.99    23.72
eigval :       25.56    32.56    37.86    42.07    45.48    45.51
eigval :       47.00    49.29    51.84    56.88    70.92    76.33
eigval :       77.38    86.12    90.16   102.42   107.26   109.23
eigval :      111.64   121.07   121.13   131.00   145.81   165.55
eigval :      173.57   186.72   194.94   195.75   197.96   218.88
eigval :      224.77   228.93   232.76   245.46   247.10   257.01
eigval :      257.71   270.06   277.39   278.72   304.25   313.72
eigval :      330.28   336.45   347.12   353.88   365.64   372.15
eigval :      374.29   376.12   376.78   379.19   379.42   408.38
eigval :      410.96   420.68   424.15   447.67   461.93   463.30
eigval :      479.22   483.43   483.70   489.20   491.40   515.55
eigval :      518.97   523.81   523.88   532.52   532.72   536.57
eigval :      549.98   550.85   552.46   557.22   562.49   579.00
eigval :      584.62   586.48   589.70   590.95   594.27   594.70
eigval :      601.53   603.39   611.73   615.38   627.52   640.19
eigval :      645.38   647.70   651.72   656.18   674.16   680.94
eigval :      685.73   686.57   692.75   696.45   700.34   707.74
eigval :      711.27   711.95   713.73   727.23   730.88   750.49
eigval :      761.52   769.79   772.24   772.26   784.78   784.88
eigval :      788.64   797.71   798.05   821.34   828.27   833.44
eigval :      847.34   857.30   857.75   861.17   863.18   865.32
eigval :      865.34   876.37   879.17   879.23   881.40   882.38
eigval :      888.37   888.85   889.79   889.91   889.95   900.50
eigval :      900.52   904.23   904.84   914.89   914.90   915.57
eigval :      915.73   920.60   920.61   924.22   924.31   930.89
eigval :      931.05   933.48   933.52   935.32   935.44   935.50
eigval :      935.65   964.70   974.16   989.47   993.07  1003.80
eigval :     1006.04  1029.92  1034.32  1052.60  1066.69  1066.72
eigval :     1079.35  1084.99  1088.92  1095.42  1097.18  1099.99
eigval :     1100.06  1120.35  1120.83  1120.94  1121.62  1124.34
eigval :     1126.26  1138.41  1138.90  1148.70  1148.75  1165.56
eigval :     1165.87  1167.10  1167.13  1177.25  1179.58  1181.42
eigval :     1181.48  1182.65  1182.67  1194.73  1194.83  1199.00
eigval :     1199.71  1202.09  1202.92  1232.17  1232.18  1243.06
eigval :     1245.57  1253.95  1257.27  1270.98  1271.58  1272.97
eigval :     1273.10  1280.24  1282.00  1283.23  1283.94  1285.87
eigval :     1289.42  1293.09  1312.55  1313.65  1314.05  1316.18
eigval :     1316.82  1318.54  1318.82  1325.64  1329.86  1355.14
eigval :     1355.18  1372.65  1373.48  1376.02  1390.99  1393.40
eigval :     1402.38  1410.84  1412.11  1412.82  1414.35  1425.28
eigval :     1430.06  1430.24  1432.40  1432.60  1449.84  1458.36
eigval :     1480.59  1482.74  1488.87  1489.00  1489.68  1489.74
eigval :     1512.36  1513.66  1538.65  1540.76  1558.89  1561.04
eigval :     1561.93  1562.51  1577.39  1577.40  1581.70  1582.71
eigval :     1582.97  1583.58  1586.81  1586.85  1598.79  1598.83
eigval :     1600.08  1600.15  1601.79  1601.93  1617.20  1617.25
eigval :     3046.46  3046.51  3066.68  3066.93  3069.00  3069.07
eigval :     3070.01  3070.08  3073.17  3073.22  3074.38  3074.53
eigval :     3074.83  3074.88  3076.24  3076.32  3078.53  3078.57
eigval :     3081.39  3081.47  3083.81  3083.84  3084.39  3084.47
eigval :     3086.10  3086.14  3086.25  3086.44  3087.65  3087.77
eigval :     3091.52  3092.03  3092.36  3092.81  3093.63  3093.64
eigval :     3095.58  3095.64  3097.48  3097.57  3466.25  3466.59

   temp. (K)  partition function   enthalpy   heat capacity  entropy
                                   cal/mol     cal/K/mol   cal/K/mol   J/K/mol
 298.15  VIB  0.198E+27            32142.048    199.935    202.640
         ROT  0.231E+09              888.752      2.981     41.249
         INT  0.456E+35            33030.801    202.916    243.889
         TR   0.247E+29             1481.254      4.968     46.135
         TOT                       34512.0545   207.8837   290.0247  1213.4634

       T/K    H(0)-H(T)+PV         H(T)/Eh          T*S/Eh         G(T)/Eh
   ------------------------------------------------------------------------
    298.15    0.549985E-01    0.901331E+00    0.137800E+00    0.763531E+00
   ------------------------------------------------------------------------

         :::::::::::::::::::::::::::::::::::::::::::::::::::::
         ::                  THERMODYNAMIC                  ::
         :::::::::::::::::::::::::::::::::::::::::::::::::::::
         :: total free energy        -169.456012484326 Eh   ::
         ::.................................................::
         :: total energy             -170.219543204930 Eh   ::
         :: zero point energy           0.846332366223 Eh   ::
         :: G(RRHO) w/o ZPVE           -0.082801645619 Eh   ::
         :: G(RRHO) contrib.            0.763530720604 Eh   ::
         :::::::::::::::::::::::::::::::::::::::::::::::::::::

           -------------------------------------------------
          | TOTAL ENERGY             -170.219543204930 Eh   |
          | TOTAL ENTHALPY           -169.318212379003 Eh   |
          | TOTAL FREE ENERGY        -169.456012484326 Eh   |
          | GRADIENT NORM               0.000053501725 Eh/α |
          | HOMO-LUMO GAP               2.728870375666 eV   |
           -------------------------------------------------

 * finished run on 2025/08/30 at 11:59:08.712
