   * xtb version 6.7.1 (edcfbbe) compiled by 'albert@albert-system' on 2024-07-22

   ID    Z sym.   atoms
    1    6 C      1-23, 25-38, 40-45, 47-57, 59-68
    2    7 N      24, 39, 46, 58
    3    1 H      69-110

          program call               : xtb data2507/gas/CzppT/CzppT.xyz --gfn 2 --ohess vtight --parallel 40 --molden --ceasefiles --namespace data2507/gas/CzppT/CzppT_gas_S0_preOpt
          :  Hamiltonian                  GFN2-xTB          :
 * total energy  :  -170.1803475 Eh     change       -0.2771742E-08 Eh
 * total energy  :  -170.1994693 Eh     change       -0.1912179E-01 Eh
 * total energy  :  -170.2038301 Eh     change       -0.4360851E-02 Eh
 * total energy  :  -170.2048991 Eh     change       -0.1068990E-02 Eh
 * total energy  :  -170.2057602 Eh     change       -0.8611256E-03 Eh
 * total energy  :  -170.2062954 Eh     change       -0.5351960E-03 Eh
 * total energy  :  -170.2070178 Eh     change       -0.7223983E-03 Eh
 * total energy  :  -170.2078980 Eh     change       -0.8801707E-03 Eh
 * total energy  :  -170.2089800 Eh     change       -0.1082054E-02 Eh
 * total energy  :  -170.2101289 Eh     change       -0.1148887E-02 Eh
 * total energy  :  -170.2195182 Eh     change       -0.1267419E-05 Eh
 * total energy  :  -170.2195195 Eh     change       -0.1320881E-05 Eh
 * total energy  :  -170.2195206 Eh     change       -0.1095515E-05 Eh
 * total energy  :  -170.2195217 Eh     change       -0.1102034E-05 Eh
 * total energy  :  -170.2195228 Eh     change       -0.1092351E-05 Eh
 * total energy  :  -170.2195239 Eh     change       -0.1153409E-05 Eh
 * total energy  :  -170.2195251 Eh     change       -0.1175539E-05 Eh
 * total energy  :  -170.2195262 Eh     change       -0.1125996E-05 Eh
 * total energy  :  -170.2195262 Eh     change       -0.7465786E-08 Eh
   *** GEOMETRY OPTIMIZATION CONVERGED AFTER 94 ITERATIONS ***

 final structure:
================
110
 xtb: 6.7.1 (edcfbbe)
C            2.92140174694429       -3.59427936031897       -0.21245886659491
C            1.94981811448898       -3.32780149443173       -1.16220948660487
C            1.21787207306861       -2.15640415105837       -1.09916087423187
C            1.44936378393554       -1.23369272347713       -0.08414884324146
C            0.70048962694327        0.04043656915924       -0.04084560836377
C           -0.69402809463323        0.03827037761598        0.01684245797984
C           -1.43960773931632       -1.23833422773639        0.03629944545985
C           -2.40719362539240       -1.50548068095397       -0.92822583670180
C           -3.13582952554161       -2.67952367195891       -0.88530213378031
C           -2.90458946652438       -3.60531204102832        0.11872230594837
C           -1.93361704491540       -3.35453606385538        1.07337451912428
C           -1.20512262673177       -2.17999044680385        1.03306343345001
C           -1.39392159641186        1.25023769172205        0.06319468655363
C           -2.86756334186636        1.22656941853554        0.10683242867082
C           -3.61878721439794        1.85751787822403       -0.87987806172896
C           -4.99217859872273        1.71658063497149       -0.91202756318023
C           -5.64621516415195        0.93802843581961        0.03835000734003
C           -7.08624876462845        0.66540807136560       -0.06308921343560
C           -8.03273117375613        1.66151345023990       -0.25921083733837
C           -9.39121203662276        1.37287929088791       -0.35156211508769
C           -9.85597924755624        0.07504475639611       -0.26756570329415
C           -8.93381510289043       -0.94969587839030       -0.09283985366012
C           -7.55702935871758       -0.64674412970609        0.01164679846768
N           -6.85065261407124       -1.81508651318442        0.14910722707531
C           -7.72250312852843       -2.87264587530255        0.13704889134515
C           -7.46513665034691       -4.23090476926497        0.24324781522315
C           -8.54352562602805       -5.09368885700090        0.20853529791433
C           -9.84723619222856       -4.62015293455754        0.07192287440869
C          -10.10889194075756       -3.26863732129418       -0.03498505539960
C           -9.04180433002796       -2.38008806142057       -0.00291702648383
C           -4.89870103607520        0.36918867564879        1.06795049346721
C           -3.52818921381611        0.51412574868084        1.10356796750381
C           -0.69699560127851        2.45713907231934        0.04217056582216
C           -1.41293237942420        3.74685934588714        0.07540903136550
C           -2.31242242653539        4.04665379915887        1.09668410385798
C           -2.93887915521992        5.27873438467261        1.08542234482171
C           -2.65351526814088        6.16713411038120        0.05966966813329
C           -1.74696007539999        5.77132486657316       -0.91060293542565
N           -1.14354699724325        4.59804956766095       -0.90913578930142
C            0.69740292252294        2.45940910245993       -0.02335117947298
C            1.41130495150374        3.75055746219569       -0.03307480533860
C            2.31733148941534        4.06671259096443       -1.04365000004463
C            2.94430309466523        5.29807481175003       -1.00821455260523
C            2.65221063563104        6.17005109824752        0.02965610047385
C            1.73835070306224        5.75938494416885        0.98682866145846
N            1.13502744093485        4.58633224466091        0.96271752257557
C            1.39732517003743        1.25475545435157       -0.06441470232265
C            2.87115880788700        1.23569840052534       -0.10275077527631
C            3.61564911896497        1.84883120855945        0.90020569884077
C            4.98901060692324        1.70922303126975        0.93775025539783
C            5.64935627682777        0.94958259065380       -0.02341637863539
C            7.08812098176923        0.67237321918560        0.08384723237505
C            8.03677998306804        1.66181317842505        0.30120521218774
C            9.39332977570729        1.36604614755552        0.40011097717812
C            9.85343250112231        0.06751030757823        0.30219224739125
C            8.92857831940358       -0.95100749389438        0.10626891993010
C            7.55409146669814       -0.64053541922015       -0.00533638784640
N            6.84350242078676       -1.80357107373676       -0.16394909832487
C            7.71039814511562       -2.86516986158937       -0.15848325989995
C            7.44750348342273       -4.22072233119019       -0.28375845012430
C            8.52144757066499       -5.08906631810593       -0.25080217353280
C            9.82617414887051       -4.62348700127840       -0.09754569022749
C           10.09332472499531       -3.27468020013762        0.02837139612170
C            9.03077014239605       -2.38063368786266       -0.00134108550117
C            4.90894048238986        0.40031163972217       -1.06862758764842
C            3.53845148676946        0.54414144054663       -1.10963788513750
C            2.41735172604284       -1.51693368716127        0.87538434738515
C            3.14957017634033       -2.68771340380231        0.80965682062663
H            3.49442241239228       -4.50856974929677       -0.26549987538128
H            1.76410189561439       -4.03382641794332       -1.95833208126039
H            0.46998424565739       -1.94546277062434       -1.84973812530519
H           -2.58574766430235       -0.78865434166370       -1.71657512705564
H           -3.88547008105016       -2.87334803985489       -1.63979927860006
H           -3.47494138763044       -4.52213305196605        0.15389372800011
H           -1.74566728690303       -4.07538134436860        1.85557768736603
H           -0.45771440004144       -1.98152379402688        1.78751620160291
H           -3.11465707189265        2.42979598900444       -1.64545628206521
H           -5.56465011539894        2.17870530893609       -1.70310271100632
H           -7.70178210986889        2.68818924681655       -0.32073065048383
H          -10.09056912843932        2.18384641092547       -0.49190252668468
H          -10.91053828408992       -0.14268883234732       -0.34184514106751
H           -5.84729716768048       -1.88204098905290        0.19457509315164
H           -6.45486183863792       -4.59778828146697        0.35014704303961
H           -8.37476180879614       -6.15757359548201        0.28900511785775
H          -10.66346480428233       -5.32697240866936        0.04984089633575
H          -11.12053395330671       -2.90663696840345       -0.14085137420114
H           -5.40163975298026       -0.18430292234570        1.84853704885335
H           -2.95875400507151        0.06242675811732        1.90296214301062
H           -2.49829026483969        3.33260543390561        1.88367077754714
H           -3.63728319399871        5.54522770460761        1.86602833337085
H           -3.11951097718687        7.13932683665628        0.01512822027222
H           -1.48782391898988        6.42313950371386       -1.73583211175291
H            2.50826807628744        3.36554505725714       -1.84092982948095
H            3.64843363437000        5.57655187035213       -1.77943984349925
H            3.11864258835708        7.14097151171031        0.09327042381976
H            1.47313119330405        6.39830703533722        1.82016433950193
H            3.10604003851179        2.40523151732783        1.67382780788092
H            5.55630515326576        2.15654583473056        1.74097288840201
H            7.70944340360617        2.68885664117040        0.37482468731377
H           10.09492246718020        2.17201094731368        0.55714010975528
H           10.90647186807807       -0.15553897493427        0.38207228940885
H            5.84027261826232       -1.86511606983189       -0.21954994949323
H            6.43639747377319       -4.58124785904386       -0.40351248034180
H            8.34832044276762       -6.15105170346052       -0.34576078753152
H           10.63883602871057       -5.33445367593334       -0.07743158161629
H           11.10574823192997       -2.91893956649133        0.14716542527123
H            5.41746235531308       -0.13773789371832       -1.85636738729026
H            2.97422887588903        0.10716590457206       -1.92083356681036
H            2.59355181772654       -0.81527007421984        1.67777903122708
H            3.89939565298292       -2.89417852636463        1.56065447765752

          :  Hamiltonian                  GFN2-xTB          :
         :: gradient norm              0.000064800105 Eh/a0 ::
         :: HOMO-LUMO gap              2.727169950336 eV    ::
         :: SCC energy              -173.467771810819 Eh    ::
         :: -> dispersion             -0.176365068990 Eh    ::
         :: repulsion energy           3.248245571146 Eh    ::

    * Orbital Energies and Occupations

         #    Occupation            Energy/Eh            Energy/eV
      -------------------------------------------------------------
         1        2.0000           -0.6740613             -18.3421
       ...           ...                  ...                  ...
       147        2.0000           -0.4042689             -11.0007
       148        2.0000           -0.4018795             -10.9357
       149        2.0000           -0.4002942             -10.8926
       150        2.0000           -0.3990439             -10.8585
       151        2.0000           -0.3899599             -10.6113
       152        2.0000           -0.3861672             -10.5081
       153        2.0000           -0.3822157             -10.4006
       154        2.0000           -0.3753377             -10.2135
       155        2.0000           -0.3751644             -10.2087
       156        2.0000           -0.3641055              -9.9078
       157        2.0000           -0.3638170              -9.9000
       158        2.0000           -0.3617301              -9.8432
       159        2.0000           -0.3610976              -9.8260 (HOMO)
       160                         -0.2608759              -7.0988 (LUMO)
       161                         -0.2598067              -7.0697
       162                         -0.2481781              -6.7533
       163                         -0.2452977              -6.6749
       164                         -0.2411599              -6.5623
       165                         -0.2402033              -6.5363
       166                         -0.2334476              -6.3524
       167                         -0.2320545              -6.3145
       168                         -0.2312712              -6.2932
       169                         -0.2297541              -6.2519
       170                         -0.2292724              -6.2388
       ...                                ...                  ...
       314                          0.7478365              20.3497
      -------------------------------------------------------------
                  HL-Gap            0.1002217 Eh            2.7272 eV

     #   Z          covCN         q      C6AA      α(0)
     1   6 C        2.920    -0.033    28.812     8.802
     2   6 C        2.919    -0.030    28.742     8.792
     3   6 C        2.925    -0.031    28.775     8.797
     4   6 C        2.977     0.017    27.622     8.621
     5   6 C        2.982    -0.001    28.042     8.686
     6   6 C        2.982    -0.001    28.041     8.686
     7   6 C        2.977     0.017    27.622     8.621
     8   6 C        2.925    -0.032    28.806     8.802
     9   6 C        2.919    -0.033    28.828     8.805
    10   6 C        2.920    -0.033    28.813     8.803
    11   6 C        2.919    -0.030    28.743     8.792
    12   6 C        2.925    -0.031    28.776     8.797
    13   6 C        2.983     0.000    28.012     8.682
    14   6 C        2.979     0.011    27.757     8.642
    15   6 C        2.923    -0.033    28.822     8.804
    16   6 C        2.923    -0.035    28.876     8.812
    17   6 C        2.977     0.008    27.837     8.655
    18   6 C        2.969    -0.015    28.389     8.740
    19   6 C        2.926    -0.039    28.960     8.825
    20   6 C        2.919    -0.042    29.055     8.839
    21   6 C        2.912    -0.035    28.869     8.811
    22   6 C        3.070    -0.017    28.357     8.731
    23   6 C        3.080     0.050    26.797     8.487
    24   7 N        2.755    -0.122    23.646     7.222
    25   6 C        3.075     0.055    26.694     8.471
    26   6 C        2.909    -0.055    29.360     8.885
    27   6 C        2.924    -0.033    28.824     8.804
    28   6 C        2.920    -0.042    29.048     8.838
    29   6 C        2.912    -0.033    28.815     8.802
    30   6 C        3.073    -0.017    28.349     8.730
    31   6 C        2.924    -0.041    29.011     8.833
    32   6 C        2.923    -0.034    28.844     8.807
    33   6 C        2.986     0.004    27.920     8.668
    34   6 C        2.968     0.109    25.586     8.297
    35   6 C        2.918    -0.037    28.923     8.819
    36   6 C        2.929    -0.010    28.276     8.720
    37   6 C        2.914    -0.042    29.035     8.836
    38   6 C        2.908     0.062    26.615     8.459
    39   7 N        1.844    -0.236    27.022     7.704
    40   6 C        2.986     0.004    27.922     8.668
    41   6 C        2.968     0.109    25.587     8.297
    42   6 C        2.918    -0.037    28.924     8.819
    43   6 C        2.928    -0.010    28.277     8.721
    44   6 C        2.914    -0.042    29.035     8.836
    45   6 C        2.908     0.062    26.615     8.459
    46   7 N        1.844    -0.236    27.023     7.704
    47   6 C        2.983     0.000    28.013     8.682
    48   6 C        2.979     0.011    27.757     8.642
    49   6 C        2.923    -0.033    28.822     8.804
    50   6 C        2.923    -0.035    28.875     8.812
    51   6 C        2.977     0.008    27.837     8.655
    52   6 C        2.969    -0.015    28.389     8.740
    53   6 C        2.926    -0.039    28.960     8.825
    54   6 C        2.919    -0.042    29.055     8.839
    55   6 C        2.912    -0.035    28.869     8.811
    56   6 C        3.070    -0.017    28.357     8.732
    57   6 C        3.081     0.050    26.796     8.486
    58   7 N        2.755    -0.122    23.647     7.222
    59   6 C        3.075     0.055    26.693     8.471
    60   6 C        2.909    -0.055    29.360     8.885
    61   6 C        2.924    -0.033    28.824     8.804
    62   6 C        2.920    -0.042    29.048     8.838
    63   6 C        2.912    -0.033    28.815     8.802
    64   6 C        3.073    -0.017    28.349     8.730
    65   6 C        2.924    -0.041    29.011     8.833
    66   6 C        2.923    -0.034    28.844     8.807
    67   6 C        2.925    -0.032    28.806     8.802
    68   6 C        2.919    -0.033    28.830     8.805
    69   1 H        0.926     0.029     2.607     2.525
    70   1 H        0.926     0.031     2.569     2.506
    71   1 H        0.926     0.029     2.596     2.520
    72   1 H        0.926     0.029     2.604     2.523
    73   1 H        0.926     0.028     2.616     2.529
    74   1 H        0.926     0.029     2.607     2.525
    75   1 H        0.926     0.031     2.569     2.507
    76   1 H        0.926     0.029     2.597     2.520
    77   1 H        0.926     0.031     2.566     2.505
    78   1 H        0.926     0.033     2.538     2.491
    79   1 H        0.926     0.029     2.595     2.519
    80   1 H        0.926     0.028     2.616     2.529
    81   1 H        0.926     0.031     2.570     2.507
    82   1 H        0.860     0.160     1.333     1.809
    83   1 H        0.926     0.023     2.690     2.565
    84   1 H        0.926     0.028     2.609     2.526
    85   1 H        0.926     0.027     2.625     2.534
    86   1 H        0.926     0.031     2.579     2.511
    87   1 H        0.926     0.029     2.600     2.521
    88   1 H        0.926     0.027     2.624     2.533
    89   1 H        0.926     0.035     2.512     2.479
    90   1 H        0.926     0.034     2.527     2.486
    91   1 H        0.926     0.033     2.539     2.492
    92   1 H        0.925     0.033     2.549     2.497
    93   1 H        0.926     0.035     2.512     2.478
    94   1 H        0.926     0.034     2.527     2.486
    95   1 H        0.926     0.033     2.539     2.492
    96   1 H        0.925     0.033     2.550     2.497
    97   1 H        0.926     0.031     2.567     2.505
    98   1 H        0.926     0.033     2.538     2.491
    99   1 H        0.926     0.029     2.595     2.519
   100   1 H        0.926     0.028     2.616     2.529
   101   1 H        0.926     0.031     2.570     2.507
   102   1 H        0.860     0.160     1.333     1.809
   103   1 H        0.926     0.023     2.690     2.565
   104   1 H        0.926     0.028     2.609     2.526
   105   1 H        0.926     0.027     2.625     2.534
   106   1 H        0.926     0.031     2.579     2.511
   107   1 H        0.926     0.029     2.599     2.521
   108   1 H        0.926     0.027     2.624     2.533
   109   1 H        0.926     0.029     2.605     2.524
   110   1 H        0.926     0.028     2.616     2.529

molecular dipole:
                 x           y           z       tot (Debye)
 q only:       -0.001      -0.159      -0.004
   full:        0.001       0.117      -0.001       0.297

 projected vibrational frequencies (cm⁻¹)
eigval :       -0.00     0.00     0.00     0.00     0.00     0.00
eigval :        6.67     8.70    12.53    13.10    17.26    23.65
eigval :       25.64    32.49    37.95    42.04    45.61    45.67
eigval :       46.90    49.08    50.88    56.97    70.90    75.99
eigval :       76.91    86.32    90.34   102.32   107.42   109.42
eigval :      111.63   120.87   121.34   131.12   146.00   165.44
eigval :      173.75   186.73   194.96   195.93   197.90   218.87
eigval :      224.78   228.91   232.81   245.71   247.13   257.17
eigval :      257.99   270.25   277.47   278.83   304.14   313.62
eigval :      330.26   336.44   346.53   354.28   365.76   372.10
eigval :      374.20   376.14   376.77   379.33   379.62   408.40
eigval :      411.05   420.68   424.19   447.83   461.90   463.39
eigval :      479.23   482.83   483.15   489.02   491.23   515.52
eigval :      519.01   523.81   523.88   532.46   532.70   536.61
eigval :      549.69   550.57   552.47   557.13   562.38   579.10
eigval :      584.78   586.57   589.74   590.90   594.37   594.73
eigval :      601.46   603.33   611.57   615.34   627.49   640.38
eigval :      645.30   647.71   651.75   656.12   674.25   680.89
eigval :      685.67   686.62   692.73   696.48   700.39   707.75
eigval :      711.27   711.95   713.73   727.25   730.90   750.42
eigval :      761.48   769.71   772.34   772.39   784.77   784.85
eigval :      788.72   797.73   798.08   821.49   828.48   833.45
eigval :      847.33   857.26   857.69   861.13   863.14   865.54
eigval :      865.62   876.41   879.39   879.47   881.33   882.29
eigval :      888.35   888.84   889.74   889.99   890.05   900.57
eigval :      900.60   904.28   904.91   914.95   914.97   915.54
eigval :      915.71   920.64   920.67   924.53   924.61   930.90
eigval :      931.06   933.46   933.50   935.19   935.40   935.56
eigval :      935.67   964.71   974.13   989.46   993.11  1003.80
eigval :     1006.07  1029.92  1034.31  1052.61  1066.77  1066.82
eigval :     1079.38  1085.02  1088.95  1095.44  1097.20  1100.18
eigval :     1100.36  1120.48  1120.82  1120.92  1121.73  1124.38
eigval :     1126.28  1138.65  1139.15  1148.77  1148.83  1165.59
eigval :     1165.88  1167.21  1167.31  1177.27  1179.61  1181.58
eigval :     1181.65  1182.69  1182.70  1194.78  1194.87  1199.08
eigval :     1199.96  1202.36  1203.00  1232.16  1232.18  1242.98
eigval :     1245.59  1254.00  1257.43  1271.19  1271.74  1272.96
eigval :     1273.12  1280.24  1282.04  1283.27  1283.94  1285.97
eigval :     1289.47  1293.19  1312.53  1313.55  1313.92  1316.04
eigval :     1316.79  1318.58  1318.82  1325.57  1329.73  1355.24
eigval :     1355.29  1372.65  1373.51  1375.86  1390.89  1393.29
eigval :     1402.32  1410.72  1412.12  1412.81  1414.35  1425.25
eigval :     1430.05  1430.23  1432.49  1432.67  1450.02  1458.53
eigval :     1480.64  1482.79  1488.86  1488.99  1489.64  1489.73
eigval :     1512.20  1513.57  1538.28  1540.50  1558.88  1560.98
eigval :     1561.89  1562.49  1577.33  1577.37  1581.71  1582.72
eigval :     1583.00  1583.58  1586.84  1586.92  1598.78  1598.83
eigval :     1600.12  1600.18  1601.76  1601.89  1617.15  1617.22
eigval :     3046.53  3046.59  3066.71  3066.95  3068.98  3069.00
eigval :     3069.96  3070.04  3072.90  3073.01  3074.31  3074.46
eigval :     3074.86  3074.91  3076.39  3076.47  3078.35  3078.43
eigval :     3081.40  3081.46  3083.82  3083.85  3084.40  3084.51
eigval :     3086.03  3086.07  3086.22  3086.36  3087.81  3087.92
eigval :     3091.48  3091.99  3092.34  3092.78  3093.62  3093.64
eigval :     3095.58  3095.65  3097.31  3097.40  3467.73  3468.49

   temp. (K)  partition function   enthalpy   heat capacity  entropy
                                   cal/mol     cal/K/mol   cal/K/mol   J/K/mol
 298.15  VIB  0.276E+27            32146.796    199.907    202.957
         ROT  0.231E+09              888.752      2.981     41.255
         INT  0.639E+35            33035.548    202.888    244.212
         TR   0.247E+29             1481.254      4.968     46.135
         TOT                       34516.8024   207.8561   290.3472  1214.8126

       T/K    H(0)-H(T)+PV         H(T)/Eh          T*S/Eh         G(T)/Eh
   ------------------------------------------------------------------------
    298.15    0.550060E-01    0.901345E+00    0.137953E+00    0.763392E+00
   ------------------------------------------------------------------------

         :::::::::::::::::::::::::::::::::::::::::::::::::::::
         ::                  THERMODYNAMIC                  ::
         :::::::::::::::::::::::::::::::::::::::::::::::::::::
         :: total free energy        -169.456134283117 Eh   ::
         ::.................................................::
         :: total energy             -170.219526239668 Eh   ::
         :: zero point energy           0.846339240397 Eh   ::
         :: G(RRHO) w/o ZPVE           -0.082947283846 Eh   ::
         :: G(RRHO) contrib.            0.763391956551 Eh   ::
         :::::::::::::::::::::::::::::::::::::::::::::::::::::

           -------------------------------------------------
          | TOTAL ENERGY             -170.219526239668 Eh   |
          | TOTAL ENTHALPY           -169.318180973346 Eh   |
          | TOTAL FREE ENERGY        -169.456134283117 Eh   |
          | GRADIENT NORM               0.000064804864 Eh/α |
          | HOMO-LUMO GAP               2.727170224340 eV   |
           -------------------------------------------------

 * finished run on 2025/08/30 at 11:51:31.527
