   * xtb version 6.7.1 (edcfbbe) compiled by 'albert@albert-system' on 2024-07-22

   ID    Z sym.   atoms
    1    6 C      1-9, 11-14, 16-31, 33-46, 48-54
    2    7 N      10, 15, 32, 47
    3    1 H      55-94

          program call               : xtb data2507/gas/BDQDMAC/BDQDMAC_gas_T1_crest.xyz --gfn 2 --spinpol --tblite --uhf 2 --ohess vtight --parallel 40 --molden --ceasefiles --namespace data2507/gas/BDQDMAC/BDQDMAC_gas_T1_finalOpt
 * total energy  :  -139.1896786 Eh     change       -0.1326015E-07 Eh
 * total energy  :  -139.1897038 Eh     change       -0.2524682E-04 Eh
 * total energy  :  -139.1897100 Eh     change       -0.6214767E-05 Eh
 * total energy  :  -139.1897123 Eh     change       -0.2279480E-05 Eh
 * total energy  :  -139.1897150 Eh     change       -0.2681213E-05 Eh
 * total energy  :  -139.1897170 Eh     change       -0.2050163E-05 Eh
 * total energy  :  -139.1897190 Eh     change       -0.1955632E-05 Eh
 * total energy  :  -139.1897204 Eh     change       -0.1412273E-05 Eh
 * total energy  :  -139.1897215 Eh     change       -0.1148345E-05 Eh
 * total energy  :  -139.1897228 Eh     change       -0.1262824E-05 Eh
 * total energy  :  -139.1897281 Eh     change       -0.4263758E-06 Eh
 * total energy  :  -139.1897284 Eh     change       -0.3107581E-06 Eh
 * total energy  :  -139.1897284 Eh     change        0.1329244E-07 Eh
 * total energy  :  -139.1897285 Eh     change       -0.1488589E-06 Eh
 * total energy  :  -139.1897287 Eh     change       -0.1335812E-06 Eh
 * total energy  :  -139.1897287 Eh     change        0.8383267E-08 Eh
 * total energy  :  -139.1897288 Eh     change       -0.1479158E-06 Eh
 * total energy  :  -139.1897288 Eh     change        0.2540389E-08 Eh
 * total energy  :  -139.1897289 Eh     change       -0.7359822E-07 Eh
   *** GEOMETRY OPTIMIZATION CONVERGED AFTER 28 ITERATIONS ***

 final structure:
================
94
 xtb: 6.7.1 (edcfbbe)
C            5.78499021855106        0.61963265761596       -0.56056701320015
C            5.51997637119228       -0.77369050618174        0.04094174959182
C            6.83885710236193       -1.42531649741453        0.49518895277992
C            4.87904877317388       -1.63571771721224       -1.02780572893207
C            5.60110498674718       -1.94310982090617       -2.17368862381481
C            5.05694659321876       -2.67684196131999       -3.21046496883709
C            3.74282392615444       -3.10122579940866       -3.12038384774086
C            3.00291763735450       -2.80738488935643       -1.99586883247595
C            3.55905199849904       -2.09271708608678       -0.92945614504514
N            2.80109265142556       -1.85072424257646        0.20909315587441
C            1.38834723701050       -1.91060125212037        0.12967251746309
C            0.68033448176337       -3.11073405503263        0.07270118603731
C           -0.69408215627679       -3.10802095463149       -0.06311388615338
C           -1.39724081748923       -1.90511245127795       -0.12221027634596
N           -2.80970147125843       -1.83995238278094       -0.20259444545820
C           -3.56958155799306       -2.07813472353358        0.93546126019627
C           -3.01667099156859       -2.79279345926759        2.00355819670604
C           -3.75878852297722       -3.08316129245232        3.12752024885466
C           -5.07194345327994       -2.65530308361269        3.21529820803425
C           -5.61282708315290       -1.92146197539982        2.17688273907081
C           -4.88844083373019       -1.61736145394961        1.03159302981577
C           -5.52564600591001       -0.75486418220147       -0.03901188644901
C           -6.84582187694394       -1.40337996018539       -0.49397698198083
C           -5.78752143093026        0.63995212033638        0.56041276689295
C           -4.62176561901818       -0.59171021232948       -1.24130700032384
C           -5.06444265399893        0.12779315075700       -2.34360922311470
C           -4.28120331893492        0.29730724326966       -3.46989094273793
C           -3.02515291921730       -0.28507387067470       -3.51785679800241
C           -2.56085971988787       -0.99733856049085       -2.43506978749251
C           -3.33330973628754       -1.13418928952185       -1.27466341886203
C           -0.71523800443587       -0.67802858632321       -0.06069764986283
N           -1.35201033978194        0.48898409167735       -0.09188326220659
C           -0.69882793526554        1.65157198567787       -0.01538011842255
C           -1.53723289420458        2.84648432228695        0.06027316608298
C           -2.73047977903002        2.87290534282697       -0.66342612833147
C           -3.57078864649851        3.96589574819176       -0.58357847971077
C           -3.24024309643100        5.04237909585705        0.22365779148165
C           -2.06721772285853        5.01320752528021        0.96179260807542
C           -1.22166391631860        3.92357534441541        0.88787566144474
C            0.70489447944955        1.64865131179715        0.01475548002368
C            1.54837454375040        2.83976302388055       -0.06457540531166
C            1.23740747077308        3.91553123092346       -0.89564467325421
C            2.08745365547194        5.00143094880572       -0.97283414704647
C            3.26044171324466        5.02811412093940       -0.23454588154018
C            3.58647123562848        3.95276762687860        0.57603556401661
C            2.74167493311652        2.86347737917011        0.65913882344054
N            1.35312811258969        0.48347316358652        0.09465648729568
C            0.71135363453949       -0.68087970769942        0.06604236712838
C            3.32792098290596       -1.14488026978922        1.27951990659264
C            2.55699794169696       -1.00388294368608        2.44043964260646
C            3.02472318972811       -0.29182513486567        3.52188675162490
C            4.28272337137776        0.28617766404786        3.47203185044145
C            5.06422437562286        0.11281153644422        2.34513154011905
C            4.61802507000426       -0.60648648355548        1.24411531311106
H            4.84222542487368        1.08444261179387       -0.84392446707216
H            6.41368401938854        0.54664777158239       -1.44405102971323
H            6.28000905678239        1.26321939502581        0.16174031334674
H            6.64103816854226       -2.41621990155308        0.89975703057839
H            7.32199585548064       -0.83103525496288        1.26528683323278
H            7.53183406073348       -1.52517576554947       -0.33501620788970
H            6.61729083332441       -1.59223000339147       -2.27045100779166
H            5.64813855114709       -2.90129135003994       -4.08517057833602
H            3.29060078787792       -3.65794886221182       -3.92756731083448
H            1.97439815961221       -3.12615685698397       -1.94436787992105
H            1.22039160696359       -4.04269264837655        0.14205228169075
H           -1.23796286734496       -4.03786402523455       -0.13104653288049
H           -1.98892158206382       -3.11431971962736        1.95375719436549
H           -3.30905385144935       -3.63992560929425        3.93606553772244
H           -5.66487747644107       -2.87712745541169        4.08949395141284
H           -6.62825031432933       -1.56788692710104        2.27180933892027
H           -6.65060362445417       -2.39625890578675       -0.89495024639557
H           -7.54088922206236       -1.49813474920856        0.33508440510759
H           -7.32525384421588       -0.80992023940759       -1.26701953076124
H           -6.28089657965763        1.28363848263002       -0.16292949571958
H           -4.84373070147243        1.10294453719982        0.84332479860569
H           -6.41656938640537        0.56969893794247        1.44386783782335
H           -6.04493398160051        0.57913365364934       -2.32494728614252
H           -4.65095740267618        0.87160265016453       -4.30582649054279
H           -2.40786583651082       -0.18285571483495       -4.39783398363361
H           -1.58523012838874       -1.45731655625965       -2.47676950701130
H           -2.98175264265269        2.02935507474200       -1.28905303841876
H           -4.48884734452598        3.97754446830818       -1.15306568212170
H           -3.89710885762066        5.89757590539935        0.28472707488727
H           -1.81388312674762        5.84301090245814        1.60554620645155
H           -0.31961724728293        3.89821530613591        1.48132607664868
H            0.33538360694729        3.89199898223227       -1.48920393088645
H            1.83765288055269        5.83022559086016       -1.61926180372789
H            3.92078431840668        5.88044792647453       -0.29810191616638
H            4.50450989350142        3.96240949187998        1.14559359995907
H            2.98942025786275        2.02081946251538        1.28737429027599
H            1.57983549965701       -1.46046746606767        2.48361020261923
H            2.40863014738621       -0.18639827719611        4.40232221433823
H            4.65529375242051        0.86009786960907        4.30697695404127
H            6.04617776326925        0.56088977887485        2.32493590168956

 projected vibrational frequencies (cm⁻¹)
eigval :       -0.00    -0.00    -0.00     0.00     0.00     0.00
eigval :       13.84    15.11    17.81    19.52    22.45    23.32
eigval :       40.13    44.08    47.96    51.99    60.23    63.87
eigval :       77.28    82.41    93.88    94.25   104.18   105.82
eigval :      117.46   128.67   128.88   150.67   153.78   161.69
eigval :      168.37   194.85   200.48   200.60   212.27   219.49
eigval :      226.50   232.55   233.05   235.27   270.92   276.22
eigval :      288.05   295.06   303.53   304.88   333.31   333.49
eigval :      341.24   342.21   349.78   350.95   372.21   375.48
eigval :      378.57   380.02   382.77   389.92   390.93   410.99
eigval :      415.57   425.13   445.54   455.67   456.90   459.84
eigval :      511.14   511.38   511.69   515.20   515.50   530.84
eigval :      533.32   538.28   542.15   547.93   548.29   562.06
eigval :      564.23   582.56   585.31   586.31   587.05   597.90
eigval :      599.03   613.59   629.57   636.38   652.20   664.83
eigval :      666.84   670.13   673.78   684.43   687.75   689.01
eigval :      701.56   701.98   707.62   720.65   741.88   760.18
eigval :      761.13   776.52   777.42   779.28   779.31   821.00
eigval :      826.05   827.78   844.17   846.79   867.02   873.07
eigval :      874.66   874.76   875.41   878.06   899.48   902.76
eigval :      903.59   910.11   911.40   913.69   914.36   914.67
eigval :      915.29   918.47   922.20   922.94   922.94   923.74
eigval :      928.57   929.57   929.62   931.21   938.15   938.25
eigval :      958.32   958.37   973.05   999.91  1014.40  1014.44
eigval :     1035.99  1046.92  1077.25  1077.27  1081.68  1083.01
eigval :     1097.60  1097.84  1111.45  1111.49  1118.32  1118.71
eigval :     1119.77  1121.72  1132.28  1139.81  1140.01  1156.54
eigval :     1156.56  1169.02  1175.27  1180.55  1180.65  1185.35
eigval :     1185.37  1186.11  1187.36  1193.31  1195.66  1198.06
eigval :     1204.78  1231.53  1235.62  1243.43  1246.33  1246.48
eigval :     1257.28  1258.11  1260.42  1265.77  1280.41  1283.55
eigval :     1285.40  1288.60  1296.29  1296.42  1315.84  1316.31
eigval :     1319.28  1321.35  1326.93  1331.58  1332.26  1336.42
eigval :     1336.52  1338.87  1347.59  1392.70  1400.53  1402.06
eigval :     1402.10  1419.33  1419.36  1428.75  1431.38  1431.87
eigval :     1432.50  1434.45  1434.63  1451.25  1467.60  1467.62
eigval :     1471.79  1475.02  1484.41  1485.85  1488.87  1488.88
eigval :     1490.09  1490.12  1500.92  1500.94  1501.37  1503.42
eigval :     1503.62  1521.98  1567.36  1567.38  1573.04  1573.30
eigval :     1582.02  1582.36  1587.04  1587.13  1590.67  1590.83
eigval :     1597.08  1597.43  3027.92  3027.94  3029.70  3029.71
eigval :     3037.87  3037.88  3044.53  3044.56  3045.93  3045.97
eigval :     3056.14  3056.24  3071.38  3071.57  3075.01  3075.45
eigval :     3078.59  3078.60  3079.28  3079.33  3083.25  3083.27
eigval :     3084.24  3085.23  3085.34  3085.41  3087.78  3090.66
eigval :     3091.65  3091.99  3092.08  3096.02  3096.42  3097.20
eigval :     3097.35  3097.86  3098.28  3099.11  3111.27  3111.37

   temp. (K)  partition function   enthalpy   heat capacity  entropy
                                   cal/mol     cal/K/mol   cal/K/mol   J/K/mol
 298.15  VIB  0.229E+21            26702.034    168.641    165.182
         ROT  0.387E+08              888.752      2.981     37.701
         INT  0.888E+28            27590.786    171.622    202.882
         TR   0.178E+29             1481.254      4.968     45.484
         TOT                       29072.0400   176.5905   248.3668  1039.1668

       T/K    H(0)-H(T)+PV         H(T)/Eh          T*S/Eh         G(T)/Eh
   ------------------------------------------------------------------------
    298.15    0.463292E-01    0.789648E+00    0.118007E+00    0.671641E+00
   ------------------------------------------------------------------------

         :::::::::::::::::::::::::::::::::::::::::::::::::::::
         ::                  THERMODYNAMIC                  ::
         :::::::::::::::::::::::::::::::::::::::::::::::::::::
         :: total free energy        -138.518088176774 Eh   ::
         ::.................................................::
         :: total energy             -139.189728914397 Eh   ::
         :: zero point energy           0.743318581788 Eh   ::
         :: G(RRHO) w/o ZPVE           -0.071677844165 Eh   ::
         :: G(RRHO) contrib.            0.671640737623 Eh   ::
         :::::::::::::::::::::::::::::::::::::::::::::::::::::

           -------------------------------------------------
          | TOTAL ENERGY             -139.189728914397 Eh   |
          | TOTAL ENTHALPY           -138.400081087856 Eh   |
          | TOTAL FREE ENERGY        -138.518088176774 Eh   |
          | GRADIENT NORM               0.000058107779 Eh/α |
           -------------------------------------------------

 * finished run on 2025/07/21 at 04:29:15.577
