   * xtb version 6.7.1 (edcfbbe) compiled by 'albert@albert-system' on 2024-07-22

   ID    Z sym.   atoms
    1    6 C      1-9, 11-14, 16-31, 33-46, 48-54
    2    7 N      10, 15, 32, 47
    3    1 H      55-94

          program call               : xtb data2507/gas/BDQDMAC/BDQDMAC_gas_S0_finalOpt.xtbopt.xyz --gfn 2 --spinpol --tblite --uhf 2 --ohess vtight --parallel 40 --molden --ceasefiles --namespace data2507/gas/BDQDMAC/BDQDMAC_gas_T1_preOpt
 * total energy  :  -139.1850801 Eh     change        0.5564814E-07 Eh
 * total energy  :  -139.1882812 Eh     change       -0.3201114E-02 Eh
 * total energy  :  -139.1891314 Eh     change       -0.8501379E-03 Eh
 * total energy  :  -139.1892469 Eh     change       -0.1155774E-03 Eh
 * total energy  :  -139.1893127 Eh     change       -0.6577190E-04 Eh
 * total energy  :  -139.1893388 Eh     change       -0.2606320E-04 Eh
 * total energy  :  -139.1893696 Eh     change       -0.3087798E-04 Eh
 * total energy  :  -139.1894022 Eh     change       -0.3258371E-04 Eh
 * total energy  :  -139.1894304 Eh     change       -0.2815025E-04 Eh
 * total energy  :  -139.1894623 Eh     change       -0.3195617E-04 Eh
 * total energy  :  -139.1896944 Eh     change       -0.1459882E-05 Eh
 * total energy  :  -139.1896960 Eh     change       -0.1659292E-05 Eh
 * total energy  :  -139.1896978 Eh     change       -0.1739135E-05 Eh
 * total energy  :  -139.1896993 Eh     change       -0.1569926E-05 Eh
 * total energy  :  -139.1897009 Eh     change       -0.1522962E-05 Eh
 * total energy  :  -139.1897021 Eh     change       -0.1256432E-05 Eh
 * total energy  :  -139.1897033 Eh     change       -0.1148986E-05 Eh
 * total energy  :  -139.1897043 Eh     change       -0.1040214E-05 Eh
 * total energy  :  -139.1897043 Eh     change       -0.3372782E-07 Eh
   *** GEOMETRY OPTIMIZATION CONVERGED AFTER 68 ITERATIONS ***

 final structure:
================
94
 xtb: 6.7.1 (edcfbbe)
C            5.81402875573989        0.61145211274133       -0.50627672832782
C            5.53023236945331       -0.77389188934313        0.10497784698764
C            6.83711482477692       -1.42797250533860        0.58952859242515
C            4.90339937454186       -1.64356138156972       -0.96592554476362
C            5.64403197359586       -1.96628720270744       -2.09561204854893
C            5.11419393084396       -2.70678028562431       -3.13497987457715
C            3.79571253776241       -3.12124345908509       -3.06499970209539
C            3.03763328016274       -2.81242305908385       -1.95671172495190
C            3.57932730749592       -2.09262510718498       -0.88628490137641
N            2.80399812913620       -1.83755422951858        0.23761012065919
C            1.39275375723505       -1.89972492732976        0.14038694918689
C            0.68768261613048       -3.10135068478966        0.07372294880890
C           -0.68479384607748       -3.10166321038523       -0.07951227832392
C           -1.39085651494700       -1.90039597151047       -0.14214405718196
N           -2.80215483708558       -1.83908114696143       -0.23924810850098
C           -3.57737202874368       -2.09867593785482        0.88369812028910
C           -3.03514681829961       -2.82164218626120        1.95171422929097
C           -3.79308146328555       -3.13495632889046        3.05884293208138
C           -5.11195329693442       -2.72195720232978        3.13007133605628
C           -5.64233480248408       -1.97836905963554        2.09319364219470
C           -4.90185007627700       -1.65107143718358        0.96472399062376
C           -5.52932363552971       -0.77822724421757       -0.10322522169605
C           -6.83558415998208       -1.43173655750953       -0.59020805231985
C           -5.81439944314151        0.60473166874563        0.51280999354302
C           -4.60751527833351       -0.58931283939092       -1.28796139176690
C           -5.03837094629807        0.14399055234497       -2.38588529641362
C           -4.23986590021633        0.33480042212660       -3.49792381777902
C           -2.98044316670387       -0.24090744322561       -3.53655141611328
C           -2.52773675997851       -0.96638719813136       -2.45764809934805
C           -3.31522703751311       -1.12320465929956       -1.30989023815560
C           -0.71238466271816       -0.67199091476304       -0.06749947374257
N           -1.35207174247327        0.49350892792645       -0.09502631901268
C           -0.70252921861240        1.65740817061573       -0.00982393926367
C           -1.54366626310762        2.84926212160468        0.07851102914384
C           -2.74289278849780        2.87689629915931       -0.63525156846446
C           -3.58649594888303        3.96609859992884       -0.53998045418618
C           -3.25323051288560        5.03765032527768        0.27271099831943
C           -2.07377665351071        5.00743732554081        1.00051313551020
C           -1.22498735583925        3.92153214026841        0.91132596305103
C            0.70149397894931        1.65793058947142        0.01992352500465
C            1.54164640019596        2.85075442966261       -0.06459222097661
C            1.22197759388385        3.92549677256648       -0.89383210953482
C            2.06986855304873        5.01238084813837       -0.97956884557553
C            3.24941122354529        5.04115164346062       -0.25185386172513
C            3.58367310176350        3.96719799739271        0.55724986982055
C            2.74096067262546        2.87701018978526        0.64907487851694
N            1.35197731891495        0.49429483483252        0.10130462683336
C            0.71326463523425       -0.67162735660114        0.06989211211012
C            3.31654675269104       -1.12491935362899        1.31064652265904
C            2.52901148649488       -0.97268752470965        2.45899452498639
C            2.98121655415425       -0.25058791455593        3.54036906599847
C            4.24018933649822        0.32623183192184        3.50365614116783
C            5.03875381834950        0.13993557044225        2.39089502311733
C            4.60839814730835       -0.58988717703597        1.29046190856739
H            4.87914575436530        1.07901982126413       -0.81042090901028
H            6.45704547856506        0.52539172791318       -1.37819810255645
H            6.30100086585081        1.25945525373845        0.21754490814948
H            7.54527744057934       -1.53790527599262       -0.22647147767117
H            6.62682966185172       -2.41455301699266        0.99836231205024
H            7.30829370984607       -0.82964034225271        1.36390138408212
H            6.66396212479186       -1.62251692356372       -2.17724870163862
H            5.71977074289671       -2.94365284299607       -3.99646084073336
H            3.35421481268806       -3.68201415242323       -3.87531049889952
H            2.00606418903230       -3.12335498354512       -1.92168567457725
H            1.22863717531256       -4.03233374511247        0.14896814601216
H           -1.22498182136910       -4.03283163098676       -0.15788194699563
H           -2.00329020253613       -3.13150707521009        1.91575189302257
H           -3.35117006336542       -3.69810381850070        3.86727694580800
H           -5.71742579621121       -2.96235612889405        3.99064770503576
H           -6.66258466983908       -1.63580357332272        2.17588489520029
H           -7.54374618226891       -1.54514069046487        0.22531749655043
H           -7.30719248423244       -0.83111616467215       -1.36254757091740
H           -6.62438209986683       -2.41669481557807       -1.00245713489669
H           -6.30189869116079        1.25481827274117       -0.20878694304400
H           -4.87994568410391        1.07205702895605        0.81862882562690
H           -6.45738810145183        0.51507582862211        1.38439063919038
H           -6.02177114323982        0.58922248711651       -2.37492167922244
H           -4.60057728887051        0.91979469457534       -4.33037383956776
H           -2.35141333348685       -0.12317206563963       -4.40620408424634
H           -1.54947742031410       -1.42126244453782       -2.49278789309377
H           -2.99614849049832        2.03719022092178       -1.26520357968878
H           -4.50946955974709        3.97862596812194       -1.10146017510703
H           -3.91290025092176        5.88971655748529        0.34609251748464
H           -1.81806331806155        5.83329186741256        1.64840145086590
H           -0.31794873167908        3.89500560240082        1.49708295988914
H            0.31487884150595        3.90015975064138       -1.47954876962535
H            1.81338578785179        5.84015127400289       -1.62470246788101
H            3.90839140265571        5.89397819067266       -0.32255098134496
H            4.50673846906694        3.97861652139287        1.11860308569303
H            2.99499372538306        2.03544254272519        1.27622553623137
H            1.55111845712278       -1.42846594521100        2.49263008273302
H            2.35215909254693       -0.13636434528614        4.41047027864165
H            4.60049919787237        0.90861937995938        4.33810563208897
H            6.02178673398080        0.58601330381693        2.38139536013524

 projected vibrational frequencies (cm⁻¹)
eigval :       -0.00    -0.00    -0.00    -0.00     0.00     0.00
eigval :       13.80    15.28    17.73    19.83    22.48    23.63
eigval :       40.35    44.26    48.29    52.55    60.95    64.40
eigval :       77.57    82.37    93.92    94.36   104.45   106.40
eigval :      117.32   128.93   129.21   151.42   154.17   161.97
eigval :      168.35   195.34   200.34   200.38   212.29   219.39
eigval :      226.80   232.82   233.24   235.47   271.21   275.71
eigval :      288.26   295.00   303.60   305.02   333.24   333.51
eigval :      341.70   342.33   349.72   350.95   372.31   375.28
eigval :      378.19   379.94   382.72   390.08   391.62   410.56
eigval :      415.82   423.15   445.23   455.72   457.08   459.63
eigval :      511.14   511.53   511.69   514.98   515.33   531.99
eigval :      533.33   538.39   542.50   547.88   548.32   562.14
eigval :      564.40   582.95   585.25   586.40   586.82   598.28
eigval :      598.94   614.07   629.43   636.21   651.73   664.18
eigval :      666.84   669.96   673.64   684.35   687.77   689.03
eigval :      701.39   701.84   707.14   720.61   741.69   760.13
eigval :      761.12   776.46   777.44   779.38   779.43   821.42
eigval :      825.97   827.82   844.61   846.43   866.96   873.37
eigval :      874.93   875.03   875.42   878.03   899.45   902.72
eigval :      904.00   910.08   911.38   913.75   914.50   914.78
eigval :      915.42   918.43   922.31   923.06   923.07   924.03
eigval :      928.60   929.57   929.62   931.22   938.15   938.19
eigval :      958.34   958.40   972.91   999.75  1014.43  1014.48
eigval :     1035.43  1047.36  1077.20  1077.24  1081.46  1082.87
eigval :     1097.37  1098.07  1111.33  1111.53  1118.26  1118.66
eigval :     1119.85  1121.61  1132.34  1139.81  1140.01  1156.53
eigval :     1156.55  1169.17  1175.42  1180.66  1180.75  1185.48
eigval :     1185.49  1186.16  1187.51  1193.48  1195.98  1198.24
eigval :     1205.53  1231.75  1235.50  1243.75  1246.38  1246.51
eigval :     1257.31  1258.36  1261.01  1265.61  1280.13  1283.89
eigval :     1285.92  1288.94  1296.43  1296.53  1315.89  1316.32
eigval :     1319.34  1320.88  1327.00  1331.46  1332.20  1336.31
eigval :     1336.35  1339.20  1347.46  1392.65  1400.75  1402.05
eigval :     1402.12  1419.41  1419.61  1428.72  1431.42  1431.86
eigval :     1432.59  1434.49  1434.54  1450.36  1467.60  1467.77
eigval :     1471.81  1475.05  1484.02  1485.74  1488.83  1488.85
eigval :     1490.07  1490.11  1500.04  1500.75  1501.28  1503.38
eigval :     1503.58  1521.85  1567.31  1567.36  1572.88  1573.11
eigval :     1581.14  1582.22  1587.04  1587.15  1590.68  1590.74
eigval :     1596.81  1597.21  3027.92  3027.95  3029.70  3029.72
eigval :     3037.85  3037.86  3044.47  3044.49  3045.72  3045.86
eigval :     3055.76  3055.93  3071.53  3071.72  3075.10  3075.53
eigval :     3078.83  3078.84  3079.47  3079.51  3083.45  3083.50
eigval :     3084.41  3085.41  3085.43  3085.59  3087.91  3090.80
eigval :     3091.81  3092.32  3092.38  3096.24  3096.60  3097.61
eigval :     3097.70  3098.36  3098.54  3099.19  3111.87  3111.94

   temp. (K)  partition function   enthalpy   heat capacity  entropy
                                   cal/mol     cal/K/mol   cal/K/mol   J/K/mol
 298.15  VIB  0.209E+21            26693.485    168.685    165.083
         ROT  0.388E+08              888.752      2.981     37.705
         INT  0.809E+28            27582.237    171.666    202.788
         TR   0.178E+29             1481.254      4.968     45.484
         TOT                       29063.4912   176.6344   248.2720  1038.7702

       T/K    H(0)-H(T)+PV         H(T)/Eh          T*S/Eh         G(T)/Eh
   ------------------------------------------------------------------------
    298.15    0.463156E-01    0.789663E+00    0.117962E+00    0.671701E+00
   ------------------------------------------------------------------------

         :::::::::::::::::::::::::::::::::::::::::::::::::::::
         ::                  THERMODYNAMIC                  ::
         :::::::::::::::::::::::::::::::::::::::::::::::::::::
         :: total free energy        -138.518002990681 Eh   ::
         ::.................................................::
         :: total energy             -139.189704331840 Eh   ::
         :: zero point energy           0.743347776342 Eh   ::
         :: G(RRHO) w/o ZPVE           -0.071646435183 Eh   ::
         :: G(RRHO) contrib.            0.671701341159 Eh   ::
         :::::::::::::::::::::::::::::::::::::::::::::::::::::

           -------------------------------------------------
          | TOTAL ENERGY             -139.189704331840 Eh   |
          | TOTAL ENTHALPY           -138.400040934108 Eh   |
          | TOTAL FREE ENERGY        -138.518002990681 Eh   |
          | GRADIENT NORM               0.000064903518 Eh/α |
           -------------------------------------------------

 * finished run on 2025/07/21 at 04:22:14.121
