   * xtb version 6.7.1 (edcfbbe) compiled by 'albert@albert-system' on 2024-07-22

   ID    Z sym.   atoms
    1    6 C      1-9, 11-14, 16-31, 33-46, 48-54
    2    7 N      10, 15, 32, 47
    3    1 H      55-94

          program call               : xtb data2507/gas/BDQDMAC/BDQDMAC.xyz --gfn 2 --ohess vtight --parallel 40 --molden --ceasefiles --namespace data2507/gas/BDQDMAC/BDQDMAC_gas_S0_preOpt
          :  Hamiltonian                  GFN2-xTB          :
 * total energy  :  -139.1917224 Eh     change       -0.2590099E-08 Eh
 * total energy  :  -139.2162758 Eh     change       -0.2455344E-01 Eh
 * total energy  :  -139.2251670 Eh     change       -0.8891188E-02 Eh
 * total energy  :  -139.2269332 Eh     change       -0.1766162E-02 Eh
 * total energy  :  -139.2280655 Eh     change       -0.1132322E-02 Eh
 * total energy  :  -139.2286056 Eh     change       -0.5401233E-03 Eh
 * total energy  :  -139.2289086 Eh     change       -0.3029563E-03 Eh
 * total energy  :  -139.2291176 Eh     change       -0.2089941E-03 Eh
 * total energy  :  -139.2292456 Eh     change       -0.1280615E-03 Eh
 * total energy  :  -139.2293623 Eh     change       -0.1167086E-03 Eh
 * total energy  :  -139.2346747 Eh     change       -0.2382014E-06 Eh
 * total energy  :  -139.2346749 Eh     change       -0.2006496E-06 Eh
 * total energy  :  -139.2346751 Eh     change       -0.1755259E-06 Eh
 * total energy  :  -139.2346753 Eh     change       -0.1747061E-06 Eh
 * total energy  :  -139.2346755 Eh     change       -0.2196579E-06 Eh
 * total energy  :  -139.2346758 Eh     change       -0.2627515E-06 Eh
 * total energy  :  -139.2346760 Eh     change       -0.2236568E-06 Eh
 * total energy  :  -139.2346761 Eh     change       -0.1401955E-06 Eh
 * total energy  :  -139.2346761 Eh     change       -0.3851028E-08 Eh
   *** GEOMETRY OPTIMIZATION CONVERGED AFTER 94 ITERATIONS ***

 final structure:
================
94
 xtb: 6.7.1 (edcfbbe)
C            5.79846651217482        0.50773121037983       -0.78679475117281
C            5.54533678034105       -0.86038844042644       -0.12680177776886
C            6.87176088710796       -1.49062822796922        0.33492018839103
C            4.89223852963343       -1.76726881462236       -1.15248118808934
C            5.60538457793270       -2.12152457501120       -2.29036804610660
C            5.05465586825267       -2.89543109693177       -3.29391950232400
C            3.74185747630081       -3.31307632557946       -3.17701522386520
C            3.01077233613157       -2.97379461956432       -2.05817833854658
C            3.57356708183329       -2.21792512437293       -1.02653757384144
N            2.82387888999927       -1.91413272762611        0.10631252957645
C            1.41527099548743       -1.97477468533128        0.05489292735938
C            0.70155312628184       -3.14977263398999        0.04294745581632
C           -0.69939376420579       -3.15036740421085       -0.03516562060238
C           -1.41392557227749       -1.97590089774312       -0.05004211716612
N           -2.82257532532995       -1.91631666456245       -0.10164280453591
C           -3.57208583150727       -2.21761545519275        1.03199073319854
C           -3.00890436625318       -2.97065960367156        2.06548280636941
C           -3.73978962852735       -3.30747912131529        3.18519386613061
C           -5.05276948390977       -2.89012885959099        3.30111264437934
C           -5.60389361924522       -2.11898124724571        2.29565591564346
C           -4.89095867106781       -1.76724942709389        1.15685420157133
C           -5.54450987124151       -0.86323761073457        0.12893135914603
C           -6.87070938308404       -1.49518763841052       -0.33109524359942
C           -5.79815953953353        0.50644161115722        0.78548056942205
C           -4.65924003696344       -0.65579355648682       -1.08210313084755
C           -5.12378753790051        0.09155062719482       -2.15690860646209
C           -4.36215507940809        0.29408396223672       -3.29239046753837
C           -3.10934554222462       -0.28759952093915       -3.37976915389749
C           -2.62438891409048       -1.02781926301254       -2.32342834468667
C           -3.37086262628228       -1.18773546777069       -1.15178033691335
C           -0.70709750876622       -0.74569456773348       -0.00417282129068
N           -1.37887427410433        0.41304125295050        0.07612696992450
C           -0.71210780695169        1.54201377772247        0.08275328381156
C           -1.51378378117053        2.75233896216874        0.28678599764989
C           -2.77443245288071        2.82539645690620       -0.30334470165704
C           -3.56502307867956        3.94266309260674       -0.11497995856916
C           -3.11274384345054        4.98988903909446        0.67149213994257
C           -1.86941532259927        4.91183734854299        1.27832658514188
C           -1.07022397678197        3.80003402435603        1.09025836086152
C            0.71095263835231        1.54232055524406       -0.08653278016160
C            1.51170519736174        2.75275314508389       -0.29351639803047
C            1.06722470232634        3.79822542183027       -1.09937384941684
C            1.86550849432161        4.91022194596666       -1.29012678334231
C            3.10885060812409        4.99066574428787       -0.68363445891735
C            3.56206110541904        3.94562093998608        0.10520079987074
C            2.77237660100063        2.82817193049281        0.29627054386218
N            1.37853296954480        0.41384594073851       -0.07716433359078
C            0.70758984937430       -0.74517470079668        0.00598274359285
C            3.37174874531574       -1.18258482628787        1.15460238383255
C            2.62513502053943       -1.01997906515198        2.32579201416487
C            3.10967640320431       -0.27678197525616        3.38023097378168
C            4.36222873505779        0.30523956434638        3.29143040283647
C            5.12403221817392        0.10009299486210        2.15653379876695
C            4.65988780447610       -0.65023322540804        1.08363375618831
H            4.85142607484274        0.95196628616961       -1.08827158677240
H            6.42634215155291        0.40254752691069       -1.66778174139247
H            6.29011367046333        1.18488074595065       -0.09304741193537
H            7.55395074161362       -1.62442323317298       -0.49949945712722
H            6.68130423454051       -2.46404869972627        0.78312480946138
H            7.36509833263972       -0.86468518523309        1.07288612800204
H            6.62098832820433       -1.77537698976784       -2.40840367968952
H            5.63986157475607       -3.15583386259096       -4.16269489261589
H            3.28157782078427       -3.90105974612067       -3.95725533570471
H            1.98173236148105       -3.28927298631523       -1.99212550477155
H            1.22588719740740       -4.09273909637150        0.09121915826292
H           -1.22306155042925       -4.09382060359894       -0.08109690329433
H           -1.97972632150460       -3.28584038910276        2.00016019279518
H           -3.27921632331044       -3.89331263808282        3.96687641764229
H           -5.63782061668893       -3.14862333504985        4.17056183517950
H           -6.61964680222927       -1.77299549128712        2.41287611693380
H           -7.55279257577658       -1.62713333201667        0.50370558035695
H           -7.36434856243817       -0.87132334335546       -1.07061776469263
H           -6.67988755563854       -2.46966761112596       -0.77683526058031
H           -6.29012787955987        1.18163318248828        0.09005404183279
H           -4.85128629144442        0.95182943987999        1.08577786714012
H           -6.42594007768761        0.40322193050171        1.66676827747513
H           -6.10536692208969        0.53873095172927       -2.10862878585738
H           -4.74831555094130        0.88935620743920       -4.10603452471081
H           -2.50979254395492       -0.16718152459258       -4.26998338456120
H           -1.65077732524332       -1.48948286001031       -2.40059616974877
H           -3.11449755936838        2.00089634764849       -0.91202226494988
H           -4.53774229300098        3.99621671074416       -0.58115090335381
H           -3.73053764049378        5.86364843160871        0.81769512371331
H           -1.52158890570395        5.72056277925049        1.90406782456645
H           -0.10936557307891        3.73488764659345        1.57965847813695
H            0.10635819593219        3.73118589479218       -1.58850104355355
H            1.51695252225260        5.71722099984804       -1.91768863510294
H            3.72593180376573        5.86457427609289       -0.83194143728158
H            4.53480982725011        4.00101707529489        0.57109514119321
H            3.11318112936519        2.00535092646971        0.90680436468804
H            1.65173781392394       -1.48189855414170        2.40411584709619
H            2.51000081245325       -0.15431461334767        4.27008306194889
H            4.74806378050701        0.90279889203917        4.10355073964197
H            6.10542418121963        0.54756566549811        2.10716804334395

          :  Hamiltonian                  GFN2-xTB          :
         :: gradient norm              0.000034152707 Eh/a0 ::
         :: HOMO-LUMO gap              1.182413991050 eV    ::
         :: SCC energy              -141.758750850752 Eh    ::
         :: -> dispersion             -0.145196575776 Eh    ::
         :: repulsion energy           2.524074720036 Eh    ::

    * Orbital Energies and Occupations

         #    Occupation            Energy/Eh            Energy/eV
      -------------------------------------------------------------
         1        2.0000           -0.6812913             -18.5389
       ...           ...                  ...                  ...
       118        2.0000           -0.4041922             -10.9986
       119        2.0000           -0.4032306             -10.9725
       120        2.0000           -0.3995498             -10.8723
       121        2.0000           -0.3983550             -10.8398
       122        2.0000           -0.3959041             -10.7731
       123        2.0000           -0.3941014             -10.7240
       124        2.0000           -0.3938135             -10.7162
       125        2.0000           -0.3915054             -10.6534
       126        2.0000           -0.3885199             -10.5722
       127        2.0000           -0.3884777             -10.5710
       128        2.0000           -0.3588708              -9.7654
       129        2.0000           -0.3460414              -9.4163
       130        2.0000           -0.3391237              -9.2280 (HOMO)
       131                         -0.2956708              -8.0456 (LUMO)
       132                         -0.2669267              -7.2634
       133                         -0.2306712              -6.2769
       134                         -0.2299571              -6.2575
       135                         -0.2246668              -6.1135
       136                         -0.2218992              -6.0382
       137                         -0.2197786              -5.9805
       138                         -0.2196627              -5.9773
       139                         -0.2152078              -5.8561
       140                         -0.2151124              -5.8535
       141                         -0.2148304              -5.8458
       ...                                ...                  ...
       256                          0.6965161              18.9532
      -------------------------------------------------------------
                  HL-Gap            0.0434529 Eh            1.1824 eV

     #   Z          covCN         q      C6AA      α(0)
     1   6 C        3.762    -0.102    22.489     6.760
     2   6 C        3.909     0.022    20.140     6.379
     3   6 C        3.760    -0.104    22.532     6.767
     4   6 C        2.980    -0.011    28.277     8.723
     5   6 C        2.928    -0.036    28.898     8.816
     6   6 C        2.917    -0.044    29.093     8.845
     7   6 C        2.920    -0.033    28.825     8.804
     8   6 C        2.924    -0.059    29.459     8.901
     9   6 C        2.926     0.061    26.639     8.464
    10   7 N        2.753    -0.058    22.361     7.023
    11   6 C        2.930     0.055    26.766     8.485
    12   6 C        2.917    -0.047    29.156     8.855
    13   6 C        2.917    -0.047    29.156     8.855
    14   6 C        2.930     0.055    26.766     8.484
    15   7 N        2.753    -0.058    22.361     7.023
    16   6 C        2.926     0.061    26.639     8.464
    17   6 C        2.924    -0.059    29.459     8.901
    18   6 C        2.920    -0.033    28.825     8.804
    19   6 C        2.917    -0.044    29.093     8.845
    20   6 C        2.928    -0.036    28.898     8.816
    21   6 C        2.980    -0.011    28.277     8.723
    22   6 C        3.909     0.022    20.140     6.379
    23   6 C        3.760    -0.104    22.532     6.767
    24   6 C        3.762    -0.102    22.489     6.760
    25   6 C        2.980    -0.009    28.231     8.716
    26   6 C        2.928    -0.036    28.903     8.817
    27   6 C        2.918    -0.044    29.096     8.845
    28   6 C        2.919    -0.033    28.833     8.805
    29   6 C        2.926    -0.051    29.272     8.873
    30   6 C        2.937     0.065    26.535     8.448
    31   6 C        2.967     0.070    26.429     8.433
    32   7 N        1.855    -0.233    26.957     7.695
    33   6 C        2.951     0.088    26.041     8.370
    34   6 C        2.984     0.007    27.847     8.656
    35   6 C        2.926    -0.025    28.634     8.775
    36   6 C        2.919    -0.027    28.675     8.781
    37   6 C        2.920    -0.027    28.682     8.782
    38   6 C        2.919    -0.028    28.701     8.785
    39   6 C        2.922    -0.029    28.721     8.788
    40   6 C        2.951     0.088    26.041     8.370
    41   6 C        2.984     0.007    27.847     8.656
    42   6 C        2.922    -0.029    28.721     8.788
    43   6 C        2.919    -0.028    28.701     8.785
    44   6 C        2.920    -0.027    28.682     8.782
    45   6 C        2.919    -0.027    28.675     8.781
    46   6 C        2.926    -0.025    28.634     8.775
    47   7 N        1.855    -0.233    26.957     7.695
    48   6 C        2.967     0.070    26.429     8.433
    49   6 C        2.937     0.065    26.535     8.448
    50   6 C        2.926    -0.051    29.272     8.873
    51   6 C        2.919    -0.033    28.833     8.805
    52   6 C        2.918    -0.044    29.096     8.845
    53   6 C        2.928    -0.036    28.903     8.817
    54   6 C        2.980    -0.009    28.231     8.716
    55   1 H        0.925     0.036     2.497     2.471
    56   1 H        0.925     0.038     2.478     2.462
    57   1 H        0.925     0.038     2.482     2.463
    58   1 H        0.925     0.039     2.461     2.453
    59   1 H        0.925     0.032     2.559     2.502
    60   1 H        0.925     0.039     2.463     2.454
    61   1 H        0.926     0.030     2.582     2.513
    62   1 H        0.926     0.026     2.645     2.543
    63   1 H        0.926     0.027     2.629     2.536
    64   1 H        0.926     0.026     2.644     2.543
    65   1 H        0.926     0.052     2.299     2.371
    66   1 H        0.926     0.052     2.299     2.371
    67   1 H        0.926     0.026     2.644     2.543
    68   1 H        0.926     0.027     2.629     2.536
    69   1 H        0.926     0.026     2.645     2.543
    70   1 H        0.926     0.030     2.582     2.513
    71   1 H        0.925     0.039     2.461     2.453
    72   1 H        0.925     0.039     2.463     2.454
    73   1 H        0.925     0.032     2.559     2.502
    74   1 H        0.925     0.038     2.482     2.463
    75   1 H        0.925     0.036     2.497     2.471
    76   1 H        0.925     0.038     2.478     2.462
    77   1 H        0.926     0.029     2.598     2.521
    78   1 H        0.926     0.025     2.657     2.549
    79   1 H        0.926     0.026     2.648     2.545
    80   1 H        0.926     0.019     2.751     2.594
    81   1 H        0.926     0.050     2.319     2.381
    82   1 H        0.926     0.036     2.499     2.472
    83   1 H        0.926     0.035     2.518     2.481
    84   1 H        0.926     0.034     2.530     2.487
    85   1 H        0.926     0.030     2.581     2.512
    86   1 H        0.926     0.030     2.581     2.512
    87   1 H        0.926     0.034     2.530     2.487
    88   1 H        0.926     0.035     2.518     2.481
    89   1 H        0.926     0.036     2.499     2.472
    90   1 H        0.926     0.050     2.319     2.381
    91   1 H        0.926     0.019     2.751     2.594
    92   1 H        0.926     0.026     2.648     2.545
    93   1 H        0.926     0.025     2.657     2.549
    94   1 H        0.926     0.029     2.598     2.521

molecular dipole:
                 x           y           z       tot (Debye)
 q only:       -0.000       0.643      -0.001
   full:       -0.000       0.701      -0.001       1.783

 projected vibrational frequencies (cm⁻¹)
eigval :       -0.00    -0.00    -0.00    -0.00     0.00     0.00
eigval :       13.56    15.42    18.86    19.12    22.98    23.28
eigval :       37.69    42.22    46.57    56.32    63.44    64.50
eigval :       77.15    79.35    93.84    94.98   107.14   109.20
eigval :      116.14   128.20   128.42   151.47   155.60   162.19
eigval :      166.08   195.96   203.40   204.12   213.30   219.93
eigval :      230.54   233.43   233.86   238.86   275.30   275.84
eigval :      281.42   291.16   304.51   306.42   336.25   336.35
eigval :      341.92   344.14   349.57   350.91   371.68   374.54
eigval :      376.30   378.08   379.68   396.92   401.72   411.29
eigval :      416.50   428.47   448.61   455.63   458.60   459.64
eigval :      496.72   502.84   514.91   515.06   516.84   539.13
eigval :      539.88   539.92   547.47   548.90   549.14   562.63
eigval :      566.28   584.87   586.13   587.76   589.30   604.88
eigval :      606.61   617.82   650.89   654.17   660.70   669.00
eigval :      672.26   679.76   684.82   686.51   698.44   698.64
eigval :      704.67   708.70   721.17   741.17   753.91   763.75
eigval :      776.84   777.52   777.69   780.63   780.81   825.24
eigval :      825.48   846.93   849.03   853.42   866.66   873.11
eigval :      873.14   876.26   878.56   880.93   905.88   909.35
eigval :      910.50   911.86   912.41   913.37   913.88   914.98
eigval :      918.65   921.91   922.34   922.35   928.68   930.35
eigval :      932.02   932.49   933.08   933.26   938.81   938.91
eigval :      958.02   958.03   973.19  1004.19  1014.91  1014.92
eigval :     1051.98  1057.77  1077.57  1077.82  1080.73  1082.69
eigval :     1096.11  1108.31  1113.59  1115.02  1115.97  1121.03
eigval :     1121.24  1122.14  1126.62  1140.95  1141.22  1160.21
eigval :     1160.32  1168.63  1178.33  1181.01  1181.09  1186.83
eigval :     1187.03  1187.48  1189.38  1195.09  1196.28  1197.21
eigval :     1209.30  1240.54  1243.70  1249.34  1250.22  1256.18
eigval :     1263.85  1267.31  1269.84  1274.38  1278.03  1281.70
eigval :     1286.64  1296.27  1296.34  1316.63  1320.78  1320.94
eigval :     1321.90  1325.68  1332.77  1333.11  1333.88  1339.32
eigval :     1340.36  1363.34  1398.37  1402.34  1402.34  1420.57
eigval :     1420.59  1428.46  1428.83  1434.71  1436.24  1440.11
eigval :     1440.33  1441.74  1466.61  1477.43  1478.01  1478.61
eigval :     1479.15  1490.11  1490.25  1490.66  1490.94  1493.70
eigval :     1495.71  1502.56  1502.58  1505.57  1505.62  1520.72
eigval :     1533.69  1572.36  1575.84  1577.49  1579.95  1581.39
eigval :     1591.37  1591.56  1592.76  1593.14  1594.46  1597.07
eigval :     1601.84  1602.58  3027.35  3027.38  3029.43  3029.45
eigval :     3035.23  3035.24  3043.22  3043.25  3043.58  3043.59
eigval :     3055.29  3055.35  3073.75  3073.77  3074.99  3075.40
eigval :     3077.25  3077.27  3078.47  3078.48  3078.86  3079.39
eigval :     3083.50  3083.51  3085.40  3085.50  3085.92  3086.08
eigval :     3086.52  3092.76  3093.32  3094.54  3094.60  3095.12
eigval :     3095.36  3095.85  3099.14  3099.21  3107.03  3107.11

   temp. (K)  partition function   enthalpy   heat capacity  entropy
                                   cal/mol     cal/K/mol   cal/K/mol   J/K/mol
 298.15  VIB  0.191E+21            26578.843    167.754    164.406
         ROT  0.390E+08              888.752      2.981     37.717
         INT  0.746E+28            27467.595    170.735    202.123
         TR   0.178E+29             1481.254      4.968     45.484
         TOT                       28948.8488   175.7032   247.6075  1035.9897

       T/K    H(0)-H(T)+PV         H(T)/Eh          T*S/Eh         G(T)/Eh
   ------------------------------------------------------------------------
    298.15    0.461329E-01    0.791735E+00    0.117646E+00    0.674089E+00
   ------------------------------------------------------------------------

         :::::::::::::::::::::::::::::::::::::::::::::::::::::
         ::                  THERMODYNAMIC                  ::
         :::::::::::::::::::::::::::::::::::::::::::::::::::::
         :: total free energy        -138.560587289189 Eh   ::
         ::.................................................::
         :: total energy             -139.234676130711 Eh   ::
         :: zero point energy           0.745602213880 Eh   ::
         :: G(RRHO) w/o ZPVE           -0.071513372359 Eh   ::
         :: G(RRHO) contrib.            0.674088841522 Eh   ::
         :::::::::::::::::::::::::::::::::::::::::::::::::::::

           -------------------------------------------------
          | TOTAL ENERGY             -139.234676130711 Eh   |
          | TOTAL ENTHALPY           -138.442940989710 Eh   |
          | TOTAL FREE ENERGY        -138.560587289189 Eh   |
          | GRADIENT NORM               0.000034149830 Eh/α |
          | HOMO-LUMO GAP               1.182414137675 eV   |
           -------------------------------------------------

 * finished run on 2025/07/21 at 04:16:21.661
