   * xtb version 6.7.1 (edcfbbe) compiled by 'albert@albert-system' on 2024-07-22

   ID    Z sym.   atoms
    1    6 C      1-9, 11-14, 16-31, 33-46, 48-54
    2    7 N      10, 15, 32, 47
    3    1 H      55-94

          program call               : xtb data2507/gas/BDQDMAC/BDQDMAC_gas_S0_crest.xyz --gfn 2 --ohess vtight --parallel 40 --molden --ceasefiles --namespace data2507/gas/BDQDMAC/BDQDMAC_gas_S0_finalOpt
          :  Hamiltonian                  GFN2-xTB          :
 * total energy  :  -139.2346693 Eh     change       -0.4137036E-08 Eh
 * total energy  :  -139.2346697 Eh     change       -0.4139102E-06 Eh
 * total energy  :  -139.2346702 Eh     change       -0.4872359E-06 Eh
 * total energy  :  -139.2346714 Eh     change       -0.1183467E-05 Eh
 * total energy  :  -139.2346719 Eh     change       -0.5037153E-06 Eh
 * total energy  :  -139.2346723 Eh     change       -0.3555727E-06 Eh
 * total energy  :  -139.2346727 Eh     change       -0.4680049E-06 Eh
 * total energy  :  -139.2346732 Eh     change       -0.4626886E-06 Eh
 * total energy  :  -139.2346735 Eh     change       -0.3559901E-06 Eh
 * total energy  :  -139.2346739 Eh     change       -0.3590061E-06 Eh
 * total energy  :  -139.2346743 Eh     change       -0.3625699E-06 Eh
 * total energy  :  -139.2346746 Eh     change       -0.3181243E-06 Eh
 * total energy  :  -139.2346749 Eh     change       -0.3002116E-06 Eh
 * total energy  :  -139.2346752 Eh     change       -0.3345669E-06 Eh
 * total energy  :  -139.2346755 Eh     change       -0.3243400E-06 Eh
 * total energy  :  -139.2346758 Eh     change       -0.2351369E-06 Eh
 * total energy  :  -139.2346759 Eh     change       -0.1625068E-06 Eh
 * total energy  :  -139.2346761 Eh     change       -0.1329752E-06 Eh
 * total energy  :  -139.2346762 Eh     change       -0.9511834E-07 Eh
   *** GEOMETRY OPTIMIZATION CONVERGED AFTER 19 ITERATIONS ***

 final structure:
================
94
 xtb: 6.7.1 (edcfbbe)
C            5.82791176032072        0.59843201905443       -0.52088563900074
C            5.54634287840220       -0.77288171743406        0.12072318730261
C            6.85130846149476       -1.40519726517411        0.63743813866150
C            4.93942750939217       -1.67474594780063       -0.93724188638119
C            5.70234680007225       -2.02389108254579       -2.04399547205370
C            5.19649122188035       -2.79254055908323       -3.07485314718396
C            3.87967968466639       -3.21008999798142       -3.01843833974736
C            3.09974505796531       -2.87599479255398       -1.93148871334555
C            3.61634160458853       -2.12535393426793       -0.87222705587564
N            2.81710667813162       -1.82656700466925        0.22755825835335
C            1.41221771132460       -1.88752813706013        0.11318507501787
C            0.70080163851836       -3.06299446338214        0.06514002716470
C           -0.69519925144434       -3.06437767051589       -0.07570107170424
C           -1.40931820465768       -1.89034697475854       -0.11886678881788
N           -2.81438229507089       -1.83163365564998       -0.23204020291758
C           -3.61220078836310       -2.13584216168882        0.86742876719330
C           -3.09517586350368       -2.89451542307336        1.92073476109064
C           -3.87372244050366       -3.23411695159164        3.00696146190838
C           -5.18948978645339       -2.81401002385929        3.06872274329883
C           -5.69563908578796       -2.03746856436310        2.04397010469872
C           -4.93420405727314       -1.68292354661329        0.93788706729239
C           -5.54105737279287       -0.77246627379481       -0.11274848913821
C           -6.85029304862984       -1.39621422582369       -0.62901079754957
C           -5.81474837066391        0.59611720312453        0.53804833343936
C           -4.60575456294556       -0.56465323710142       -1.28549893673638
C           -5.02301174136693        0.18654935699894       -2.37688693629449
C           -4.21375072536332        0.39033163194382       -3.47871714284035
C           -2.95944230024900       -0.19360202210762       -3.51470578567374
C           -2.52091792002634       -0.93747320600181       -2.44077753558163
C           -3.31663394122274       -1.09902052500308       -1.30224707396705
C           -0.70626777976044       -0.65977724828590       -0.03804595643698
N           -1.38201589726386        0.49827943987521        0.01423439725047
C           -0.71724171504810        1.62774200941031        0.05411070763608
C           -1.52883953876906        2.83687353357792        0.22340382192066
C           -2.75998246618942        2.91087780025429       -0.42589767623915
C           -3.55995094602274        4.02666914835398       -0.27136370192228
C           -3.14701095433718        5.07133386404009        0.53974403630824
C           -1.93385325242138        4.99233129201712        1.20473340810883
C           -1.12520315871285        3.88211938307318        1.05073698499870
C            0.71212188920548        1.62956169860237       -0.04893500460172
C            1.52084536788465        2.84105089298236       -0.21477544195778
C            1.11370096722943        3.88901380759943       -1.03694084035029
C            1.91979615828888        5.00157492412375       -1.18742389855064
C            3.13392891609659        5.08018274874040       -0.52418894699590
C            3.55049548925772        4.03277898170650        0.28154830940447
C            2.75303364063367        2.91475040428799        0.43264501086141
N            1.37955298781156        0.50152018565090       -0.01221490086001
C            0.70650163461043       -0.65824890551328        0.03639204061939
C            3.31783328845024       -1.10026250373754        1.30265232157285
C            2.51973818586857       -0.94270390414072        2.44008193634485
C            2.95720161755140       -0.20508160004621        3.51875238506944
C            4.21278108911745        0.37640234481754        3.48876538992170
C            5.02429764758830        0.17635346413626        2.38792108955292
C            4.60811336868964       -0.56842127617934        1.29175096842688
H            4.89496376734942        1.04388693999569       -0.86191558812027
H            6.49422407257218        0.49754677381530       -1.37368832169355
H            6.28803361766917        1.27236244773644        0.19719627396422
H            7.57021369629921       -1.53345585407752       -0.16647157712693
H            6.64187760288107       -2.38145436931580        1.07075925045754
H            7.31069347907856       -0.78351235256986        1.40048747516777
H            6.72232250450395       -1.67778363968548       -2.11504052639029
H            5.81960631137829       -3.04889852087793       -3.91808930773098
H            3.45430173285271       -3.79398124242234       -3.82123746013377
H            2.06874207953205       -3.19143675594648       -1.91269520544421
H            1.22343202331975       -4.00566454754485        0.13360691882831
H           -1.21547803259320       -4.00803548004642       -0.14822884302498
H           -2.06486535623195       -3.21189966201646        1.89795990916645
H           -3.44808266421414       -3.82419454651546        3.80507880325658
H           -5.81149072655105       -3.07450053701702        3.91151778017906
H           -6.71458325817619       -1.68929270802199        2.11950078855658
H           -7.56672965508601       -1.52752482404768        0.17658454845023
H           -7.31025492599549       -0.76736443501404       -1.38580111496823
H           -6.64614651933788       -2.37010704867475       -1.07009465848851
H           -6.27456747065888        1.27621045136698       -0.17440108199876
H           -4.87879869791411        1.03575791493684        0.87840845363302
H           -6.47848177424142        0.49274536626237        1.39257898532893
H           -6.00467880607632        0.63605963420288       -2.36869481247740
H           -4.56404672084522        0.98857577054743       -4.30629962157707
H           -2.32259374181863       -0.07193056659608       -4.37845830501200
H           -1.54566832693155       -1.40068310236341       -2.47767083576046
H           -3.06980936277189        2.08833063469121       -1.05306043536163
H           -4.50935647124222        4.08101175579332       -0.78326228526087
H           -3.77222094450014        5.94381296452744        0.65972401016409
H           -1.61725688930944        5.79901509819783        1.84940134226294
H           -0.18855812996939        3.81619667337521        1.58492887037565
H            0.17641847122556        3.82348742539840       -1.57005243817267
H            1.60041855317594        5.81041533307392       -1.82800778063696
H            3.75709597991360        5.95450324275014       -0.64135920976828
H            4.50072077425292        4.08679532079888        0.79195450554085
H            3.06554669985292        2.09003471589430        1.05563759091216
H            1.54355371444494       -1.40424380359893        2.47256746581091
H            2.31853392988869       -0.08652011589087        4.38159295821737
H            4.56235555809870        0.96965132442046        4.32022964085994
H            6.00708603377592        0.62348895828893        2.38452634812273

          :  Hamiltonian                  GFN2-xTB          :
         :: gradient norm              0.000052980158 Eh/a0 ::
         :: HOMO-LUMO gap              1.181936809772 eV    ::
         :: SCC energy              -141.758755248559 Eh    ::
         :: -> dispersion             -0.145207449745 Eh    ::
         :: repulsion energy           2.524079080979 Eh    ::

    * Orbital Energies and Occupations

         #    Occupation            Energy/Eh            Energy/eV
      -------------------------------------------------------------
         1        2.0000           -0.6812933             -18.5389
       ...           ...                  ...                  ...
       118        2.0000           -0.4041841             -10.9984
       119        2.0000           -0.4032199             -10.9722
       120        2.0000           -0.3995546             -10.8724
       121        2.0000           -0.3983505             -10.8397
       122        2.0000           -0.3958909             -10.7727
       123        2.0000           -0.3940983             -10.7240
       124        2.0000           -0.3938092             -10.7161
       125        2.0000           -0.3915331             -10.6542
       126        2.0000           -0.3885188             -10.5721
       127        2.0000           -0.3884719             -10.5709
       128        2.0000           -0.3588728              -9.7654
       129        2.0000           -0.3460345              -9.4161
       130        2.0000           -0.3391184              -9.2279 (HOMO)
       131                         -0.2956831              -8.0459 (LUMO)
       132                         -0.2669186              -7.2632
       133                         -0.2306704              -6.2769
       134                         -0.2299607              -6.2575
       135                         -0.2246856              -6.1140
       136                         -0.2219040              -6.0383
       137                         -0.2197733              -5.9803
       138                         -0.2196522              -5.9770
       139                         -0.2152043              -5.8560
       140                         -0.2151060              -5.8533
       141                         -0.2148340              -5.8459
       ...                                ...                  ...
       256                          0.6964918              18.9525
      -------------------------------------------------------------
                  HL-Gap            0.0434354 Eh            1.1819 eV

     #   Z          covCN         q      C6AA      α(0)
     1   6 C        3.762    -0.102    22.488     6.760
     2   6 C        3.909     0.022    20.140     6.379
     3   6 C        3.760    -0.104    22.532     6.767
     4   6 C        2.980    -0.011    28.277     8.723
     5   6 C        2.928    -0.036    28.898     8.816
     6   6 C        2.917    -0.044    29.093     8.845
     7   6 C        2.920    -0.033    28.825     8.804
     8   6 C        2.924    -0.059    29.459     8.901
     9   6 C        2.926     0.061    26.640     8.464
    10   7 N        2.753    -0.058    22.361     7.023
    11   6 C        2.930     0.055    26.766     8.484
    12   6 C        2.917    -0.047    29.156     8.854
    13   6 C        2.917    -0.047    29.156     8.855
    14   6 C        2.930     0.055    26.765     8.484
    15   7 N        2.753    -0.058    22.364     7.024
    16   6 C        2.926     0.061    26.639     8.464
    17   6 C        2.924    -0.059    29.459     8.901
    18   6 C        2.920    -0.033    28.826     8.804
    19   6 C        2.917    -0.044    29.093     8.845
    20   6 C        2.928    -0.036    28.899     8.816
    21   6 C        2.980    -0.011    28.276     8.723
    22   6 C        3.909     0.022    20.139     6.379
    23   6 C        3.760    -0.104    22.533     6.767
    24   6 C        3.762    -0.102    22.488     6.760
    25   6 C        2.980    -0.009    28.230     8.715
    26   6 C        2.928    -0.036    28.903     8.817
    27   6 C        2.918    -0.044    29.096     8.845
    28   6 C        2.919    -0.033    28.833     8.805
    29   6 C        2.926    -0.051    29.271     8.872
    30   6 C        2.937     0.065    26.534     8.448
    31   6 C        2.967     0.070    26.429     8.433
    32   7 N        1.855    -0.233    26.959     7.696
    33   6 C        2.951     0.088    26.041     8.370
    34   6 C        2.984     0.007    27.847     8.656
    35   6 C        2.926    -0.025    28.634     8.775
    36   6 C        2.919    -0.027    28.674     8.781
    37   6 C        2.920    -0.027    28.682     8.782
    38   6 C        2.919    -0.028    28.701     8.785
    39   6 C        2.922    -0.029    28.721     8.788
    40   6 C        2.951     0.088    26.041     8.370
    41   6 C        2.984     0.007    27.847     8.656
    42   6 C        2.922    -0.029    28.721     8.788
    43   6 C        2.919    -0.028    28.701     8.785
    44   6 C        2.920    -0.027    28.682     8.782
    45   6 C        2.919    -0.027    28.674     8.781
    46   6 C        2.926    -0.025    28.633     8.775
    47   7 N        1.855    -0.233    26.958     7.695
    48   6 C        2.967     0.070    26.429     8.432
    49   6 C        2.937     0.065    26.535     8.448
    50   6 C        2.926    -0.051    29.272     8.873
    51   6 C        2.919    -0.033    28.833     8.805
    52   6 C        2.918    -0.044    29.096     8.845
    53   6 C        2.928    -0.036    28.903     8.817
    54   6 C        2.980    -0.009    28.231     8.716
    55   1 H        0.925     0.036     2.497     2.471
    56   1 H        0.925     0.038     2.479     2.462
    57   1 H        0.925     0.038     2.481     2.463
    58   1 H        0.925     0.039     2.461     2.453
    59   1 H        0.925     0.032     2.559     2.502
    60   1 H        0.925     0.039     2.463     2.454
    61   1 H        0.926     0.030     2.582     2.513
    62   1 H        0.926     0.026     2.645     2.543
    63   1 H        0.926     0.027     2.630     2.536
    64   1 H        0.926     0.026     2.645     2.543
    65   1 H        0.926     0.052     2.299     2.371
    66   1 H        0.926     0.052     2.299     2.371
    67   1 H        0.926     0.026     2.643     2.542
    68   1 H        0.926     0.027     2.629     2.536
    69   1 H        0.926     0.026     2.645     2.543
    70   1 H        0.926     0.030     2.582     2.513
    71   1 H        0.925     0.039     2.461     2.453
    72   1 H        0.925     0.039     2.463     2.454
    73   1 H        0.925     0.032     2.559     2.502
    74   1 H        0.925     0.038     2.482     2.463
    75   1 H        0.925     0.036     2.496     2.471
    76   1 H        0.925     0.038     2.479     2.462
    77   1 H        0.926     0.029     2.598     2.521
    78   1 H        0.926     0.025     2.658     2.549
    79   1 H        0.926     0.026     2.648     2.545
    80   1 H        0.926     0.019     2.750     2.593
    81   1 H        0.926     0.050     2.319     2.381
    82   1 H        0.926     0.036     2.499     2.472
    83   1 H        0.926     0.035     2.518     2.481
    84   1 H        0.926     0.034     2.530     2.487
    85   1 H        0.926     0.030     2.581     2.512
    86   1 H        0.926     0.030     2.581     2.512
    87   1 H        0.926     0.034     2.530     2.487
    88   1 H        0.926     0.035     2.518     2.481
    89   1 H        0.926     0.036     2.499     2.472
    90   1 H        0.926     0.050     2.319     2.381
    91   1 H        0.926     0.019     2.751     2.594
    92   1 H        0.926     0.026     2.648     2.545
    93   1 H        0.926     0.025     2.658     2.549
    94   1 H        0.926     0.029     2.598     2.521

molecular dipole:
                 x           y           z       tot (Debye)
 q only:       -0.002       0.644       0.001
   full:       -0.002       0.703       0.002       1.787

 projected vibrational frequencies (cm⁻¹)
eigval :       -0.00    -0.00    -0.00     0.00     0.00     0.00
eigval :       13.56    15.40    18.84    19.12    23.01    23.32
eigval :       37.67    42.23    46.54    56.30    63.43    64.45
eigval :       77.09    79.27    93.77    94.93   107.12   109.16
eigval :      116.14   127.77   128.21   151.47   155.58   162.25
eigval :      165.97   196.00   203.51   204.36   213.33   219.92
eigval :      230.39   233.44   233.84   238.75   275.27   275.82
eigval :      281.40   291.08   304.43   306.34   336.30   336.54
eigval :      341.89   344.17   349.59   350.89   371.66   374.54
eigval :      376.30   378.03   379.67   396.94   401.66   411.31
eigval :      416.47   428.44   448.63   455.62   458.62   459.67
eigval :      496.71   502.81   514.90   515.05   516.81   539.14
eigval :      539.87   539.90   547.45   548.90   549.15   562.63
eigval :      566.27   584.86   586.14   587.76   589.30   604.92
eigval :      606.59   617.79   650.90   654.16   660.70   668.98
eigval :      672.28   679.75   684.83   686.52   698.45   698.68
eigval :      704.72   708.67   721.17   741.14   753.96   763.74
eigval :      776.81   777.52   777.69   780.62   780.80   825.22
eigval :      825.46   846.91   849.05   853.41   866.63   873.07
eigval :      873.13   876.27   878.54   880.90   905.86   909.33
eigval :      910.48   911.84   912.38   913.34   913.86   914.97
eigval :      918.64   921.90   922.33   922.34   928.69   930.33
eigval :      932.08   932.47   933.08   933.26   938.80   938.91
eigval :      958.02   958.03   973.19  1004.20  1014.87  1014.90
eigval :     1051.98  1057.80  1077.57  1077.81  1080.74  1082.70
eigval :     1096.12  1108.31  1113.58  1115.02  1115.96  1121.04
eigval :     1121.26  1122.14  1126.62  1140.95  1141.22  1160.20
eigval :     1160.32  1168.63  1178.32  1181.01  1181.09  1186.83
eigval :     1187.02  1187.46  1189.40  1195.10  1196.30  1197.22
eigval :     1209.31  1240.55  1243.71  1249.34  1250.23  1256.13
eigval :     1263.84  1267.31  1269.84  1274.37  1278.03  1281.70
eigval :     1286.64  1296.26  1296.33  1316.64  1320.78  1320.94
eigval :     1321.88  1325.70  1332.79  1333.11  1333.88  1339.32
eigval :     1340.34  1363.31  1398.35  1402.32  1402.33  1420.56
eigval :     1420.58  1428.46  1428.82  1434.71  1436.25  1440.11
eigval :     1440.33  1441.73  1466.68  1477.43  1478.00  1478.62
eigval :     1479.16  1490.06  1490.23  1490.64  1490.91  1493.71
eigval :     1495.71  1502.59  1502.68  1505.56  1505.62  1520.65
eigval :     1533.76  1572.36  1575.84  1577.49  1579.97  1581.40
eigval :     1591.37  1591.55  1592.76  1593.14  1594.47  1597.08
eigval :     1601.85  1602.58  3027.34  3027.38  3029.43  3029.47
eigval :     3035.19  3035.25  3043.22  3043.30  3043.51  3043.60
eigval :     3055.34  3055.52  3073.69  3073.75  3074.98  3075.39
eigval :     3077.26  3077.30  3078.43  3078.45  3078.85  3079.38
eigval :     3083.54  3083.59  3085.37  3085.47  3085.89  3086.07
eigval :     3086.52  3092.75  3093.30  3094.54  3094.60  3095.14
eigval :     3095.38  3095.82  3099.11  3099.32  3107.00  3107.20

   temp. (K)  partition function   enthalpy   heat capacity  entropy
                                   cal/mol     cal/K/mol   cal/K/mol   J/K/mol
 298.15  VIB  0.193E+21            26580.246    167.753    164.423
         ROT  0.390E+08              888.752      2.981     37.717
         INT  0.753E+28            27468.998    170.733    202.140
         TR   0.178E+29             1481.254      4.968     45.484
         TOT                       28950.2523   175.7015   247.6242  1036.0597

       T/K    H(0)-H(T)+PV         H(T)/Eh          T*S/Eh         G(T)/Eh
   ------------------------------------------------------------------------
    298.15    0.461352E-01    0.791734E+00    0.117654E+00    0.674080E+00
   ------------------------------------------------------------------------

         :::::::::::::::::::::::::::::::::::::::::::::::::::::
         ::                  THERMODYNAMIC                  ::
         :::::::::::::::::::::::::::::::::::::::::::::::::::::
         :: total free energy        -138.560596217084 Eh   ::
         ::.................................................::
         :: total energy             -139.234676167583 Eh   ::
         :: zero point energy           0.745599035181 Eh   ::
         :: G(RRHO) w/o ZPVE           -0.071519084682 Eh   ::
         :: G(RRHO) contrib.            0.674079950500 Eh   ::
         :::::::::::::::::::::::::::::::::::::::::::::::::::::

           -------------------------------------------------
          | TOTAL ENERGY             -139.234676167583 Eh   |
          | TOTAL ENTHALPY           -138.442941968705 Eh   |
          | TOTAL FREE ENERGY        -138.560596217084 Eh   |
          | GRADIENT NORM               0.000052958623 Eh/α |
          | HOMO-LUMO GAP               1.181936298912 eV   |
           -------------------------------------------------

 * finished run on 2025/07/21 at 04:21:58.584
