   * xtb version 6.7.1 (edcfbbe) compiled by 'albert@albert-system' on 2024-07-22

   ID    Z sym.   atoms
    1   35 Br     1, 11
    2    6 C      2-10, 12-14, 16-20, 22-28, 30-36, 38, 39
    3    7 N      15, 21, 29, 37
    4    1 H      40-59

          program call               : xtb data2507/gas/2BrCPT/2BrCPT.xyz --gfn 2 --ohess vtight --parallel 40 --molden --ceasefiles --namespace data2507/gas/2BrCPT/2BrCPT_gas_S0_preOpt
          :  Hamiltonian                  GFN2-xTB          :
 * total energy  :  -100.7638220 Eh     change       -0.4848744E-09 Eh
 * total energy  :  -100.7740296 Eh     change       -0.1020758E-01 Eh
 * total energy  :  -100.7766703 Eh     change       -0.2640637E-02 Eh
 * total energy  :  -100.7773692 Eh     change       -0.6989419E-03 Eh
 * total energy  :  -100.7777173 Eh     change       -0.3481000E-03 Eh
 * total energy  :  -100.7778122 Eh     change       -0.9490574E-04 Eh
 * total energy  :  -100.7778864 Eh     change       -0.7424711E-04 Eh
 * total energy  :  -100.7779249 Eh     change       -0.3845822E-04 Eh
 * total energy  :  -100.7779661 Eh     change       -0.4117274E-04 Eh
 * total energy  :  -100.7779880 Eh     change       -0.2188692E-04 Eh
 * total energy  :  -100.7780181 Eh     change       -0.1822831E-05 Eh
 * total energy  :  -100.7780193 Eh     change       -0.1183257E-05 Eh
 * total energy  :  -100.7780200 Eh     change       -0.7063328E-06 Eh
 * total energy  :  -100.7780205 Eh     change       -0.4635562E-06 Eh
 * total energy  :  -100.7780210 Eh     change       -0.4924494E-06 Eh
 * total energy  :  -100.7780215 Eh     change       -0.5303607E-06 Eh
 * total energy  :  -100.7780220 Eh     change       -0.4504942E-06 Eh
 * total energy  :  -100.7780223 Eh     change       -0.3416083E-06 Eh
 * total energy  :  -100.7780223 Eh     change       -0.6799496E-08 Eh
   *** GEOMETRY OPTIMIZATION CONVERGED AFTER 22 ITERATIONS ***

 final structure:
================
59
 xtb: 6.7.1 (edcfbbe)
Br           8.07364978876200       -3.56256642276852       -2.47337948871833
C            6.71699804141289       -2.45961996252156       -1.70869528326600
C            5.38283847259565       -2.78043402544962       -1.95234961193133
C            4.36794920990512       -2.01441720722136       -1.41581667815203
C            4.71718236905001       -0.92756085291373       -0.62461870532638
C            6.07442439535955       -0.59385478303646       -0.40254504982517
C            7.08798584437727       -1.37088005242771       -0.94673698425412
C            6.07443943262802        0.59382079642717        0.40248549677242
C            7.08802108265927        1.37084009109591        0.94664821165771
C            6.71706159116645        2.45958326407972        1.70861563968090
Br           8.07374186259649        3.56252226854175        2.47326002451992
C            5.38291091208783        2.78040619310666        1.95230698944548
C            4.36800167418853        2.01439535622150        1.41580329916040
C            4.71720576855252        0.92753588498638        0.62459679133057
N            3.91079643070873       -0.00001008799758        0.00000088567058
C            2.50785509651080       -0.00000385517916        0.00001526471572
C            1.80988912240762        1.15672462816612       -0.34076684657322
C            0.43099609171473        1.15590070619312       -0.33575837339621
C           -0.27099220962290        0.00000505966451        0.00003106183140
C           -1.73472266069874        0.00000898436025        0.00003501436448
N           -2.35556777333165        1.15014141898803       -0.23947131872659
C           -3.68611531533222        1.10610955674034       -0.22559986346908
C           -4.41777567061929        2.34787945874032       -0.47231607520609
C           -3.72595778292414        3.53457958558888       -0.70810734882474
C           -4.42058837109749        4.70589506742319       -0.93848048423181
C           -5.80692997952038        4.70426180466329       -0.93534992354589
C           -6.49992054392839        3.52657284706688       -0.70120856967608
C           -5.81146669392337        2.35164789716176       -0.47053537745997
N           -4.38843421499216        0.00000849832396        0.00000269179072
C           -3.68612040202146       -1.10609019860206        0.22563280296645
C           -4.41778682676798       -2.34785770690814        0.47234319765230
C           -3.72597501758728       -3.53453508621534        0.70826670300752
C           -4.42061138143452       -4.70584882100041        0.93863140275069
C           -5.80695268415446       -4.70423687955914        0.93535871101250
C           -6.49993724030433       -3.52657066403552        0.70108514692017
C           -5.81147763280959       -2.35164695342072        0.47042281396609
N           -2.35557313518709       -1.15012161576103        0.23953709997405
C            0.43099220867403       -1.15589509304265        0.33581322758332
C            1.80988555718606       -1.15672723782139        0.34080730997680
H            5.14684314888619       -3.63335959028324       -2.56939120350663
H            3.33594483880286       -2.25267829954565       -1.61993920244970
H            8.12645810895422       -1.12999921555437       -0.78392169090665
H            8.12648722147619        1.12995255863779        0.78380378755478
H            5.14693841501280        3.63333406604787        2.56935410086794
H            3.33600450422690        2.25266327383481        1.61995422758479
H            2.35597190619801        2.04387388506720       -0.62483108195523
H           -0.12342071572738        2.04191736234300       -0.60079176464339
H           -2.64750150436022        3.51727434695645       -0.70549012087395
H           -3.88297880728657        5.62482746978454       -1.12098129364441
H           -6.34776759660890        5.62182888845857       -1.11531905000978
H           -7.58002428565941        3.52799337175098       -0.69905761746106
H           -6.33352190857186        1.42600703148012       -0.28643559595666
H           -2.64751875859791       -3.51721386786424        0.70575775275343
H           -3.88300648362830       -5.62476319680273        1.12123670752909
H           -6.34779476657204       -5.62180260031424        1.11532137161367
H           -7.58004073957377       -3.52800770643436        0.69882382867451
H           -6.33352811203632       -1.42602355801796        0.28622176331020
H           -0.12342686138492       -2.04190689439568        0.60085787477671
H            2.35596598016455       -2.04388018680671        0.62486440257402

          :  Hamiltonian                  GFN2-xTB          :
         :: gradient norm              0.000056988013 Eh/a0 ::
         :: HOMO-LUMO gap              2.191192281477 eV    ::
         :: SCC energy              -102.479823150960 Eh    ::
         :: -> dispersion             -0.081047970983 Eh    ::
         :: repulsion energy           1.701800835625 Eh    ::

    * Orbital Energies and Occupations

         #    Occupation            Energy/Eh            Energy/eV
      -------------------------------------------------------------
         1        2.0000           -0.8363106             -22.7572
       ...           ...                  ...                  ...
        81        2.0000           -0.4310896             -11.7305
        82        2.0000           -0.4170981             -11.3498
        83        2.0000           -0.4170418             -11.3483
        84        2.0000           -0.4157489             -11.3131
        85        2.0000           -0.4145212             -11.2797
        86        2.0000           -0.4135409             -11.2530
        87        2.0000           -0.4126793             -11.2296
        88        2.0000           -0.4108617             -11.1801
        89        2.0000           -0.4097630             -11.1502
        90        2.0000           -0.3993193             -10.8660
        91        2.0000           -0.3828883             -10.4189
        92        2.0000           -0.3786925             -10.3047
        93        2.0000           -0.3777707             -10.2797 (HOMO)
        94                         -0.2972459              -8.0885 (LUMO)
        95                         -0.2927997              -7.9675
        96                         -0.2753644              -7.4930
        97                         -0.2559119              -6.9637
        98                         -0.2542410              -6.9183
        99                         -0.2499126              -6.8005
       100                         -0.2340902              -6.3699
       101                         -0.2340771              -6.3696
       102                         -0.2292304              -6.2377
       103                         -0.2177583              -5.9255
       104                         -0.2064143              -5.6168
       ...                                ...                  ...
       186                          0.7143018              19.4371
      -------------------------------------------------------------
                  HL-Gap            0.0805248 Eh            2.1912 eV

     #   Z          covCN         q      C6AA      α(0)
     1  35 Br       1.071    -0.173   189.844    22.216
     2   6 C        2.918     0.075    26.328     8.414
     3   6 C        2.996    -0.037    28.910     8.820
     4   6 C        2.912    -0.048    29.186     8.859
     5   6 C        3.077     0.047    26.860     8.497
     6   6 C        3.073    -0.013    28.263     8.717
     7   6 C        2.987    -0.037    28.918     8.821
     8   6 C        3.073    -0.013    28.263     8.717
     9   6 C        2.987    -0.037    28.918     8.821
    10   6 C        2.918     0.075    26.328     8.414
    11  35 Br       1.071    -0.173   189.844    22.216
    12   6 C        2.996    -0.037    28.910     8.820
    13   6 C        2.912    -0.048    29.186     8.859
    14   6 C        3.077     0.047    26.860     8.497
    15   7 N        2.803    -0.033    21.878     6.947
    16   6 C        2.914     0.066    26.527     8.446
    17   6 C        2.920    -0.041    29.027     8.835
    18   6 C        2.924    -0.023    28.569     8.765
    19   6 C        2.984    -0.000    28.031     8.685
    20   6 C        2.984     0.202    23.718     7.989
    21   7 N        1.844    -0.296    28.509     7.913
    22   6 C        2.982     0.203    23.698     7.985
    23   6 C        2.984    -0.000    28.029     8.684
    24   6 C        2.924    -0.023    28.584     8.768
    25   6 C        2.918    -0.027    28.678     8.782
    26   6 C        2.920    -0.023    28.568     8.765
    27   6 C        2.918    -0.027    28.672     8.781
    28   6 C        2.924    -0.023    28.576     8.766
    29   7 N        1.844    -0.292    28.414     7.900
    30   6 C        2.982     0.203    23.698     7.985
    31   6 C        2.984    -0.000    28.029     8.684
    32   6 C        2.924    -0.023    28.584     8.768
    33   6 C        2.918    -0.027    28.678     8.782
    34   6 C        2.920    -0.023    28.568     8.765
    35   6 C        2.918    -0.027    28.672     8.781
    36   6 C        2.924    -0.023    28.576     8.766
    37   7 N        1.844    -0.296    28.509     7.913
    38   6 C        2.924    -0.023    28.569     8.765
    39   6 C        2.920    -0.041    29.027     8.835
    40   1 H        0.926     0.056     2.245     2.343
    41   1 H        0.926     0.044     2.392     2.419
    42   1 H        0.926     0.057     2.231     2.336
    43   1 H        0.926     0.057     2.231     2.336
    44   1 H        0.926     0.056     2.245     2.343
    45   1 H        0.926     0.044     2.392     2.419
    46   1 H        0.926     0.047     2.353     2.399
    47   1 H        0.926     0.065     2.141     2.288
    48   1 H        0.926     0.054     2.272     2.357
    49   1 H        0.926     0.038     2.476     2.461
    50   1 H        0.926     0.038     2.470     2.458
    51   1 H        0.926     0.038     2.470     2.457
    52   1 H        0.926     0.056     2.248     2.344
    53   1 H        0.926     0.054     2.272     2.357
    54   1 H        0.926     0.038     2.476     2.461
    55   1 H        0.926     0.038     2.470     2.458
    56   1 H        0.926     0.038     2.470     2.457
    57   1 H        0.926     0.056     2.248     2.344
    58   1 H        0.926     0.065     2.141     2.288
    59   1 H        0.926     0.047     2.353     2.399

molecular dipole:
                 x           y           z       tot (Debye)
 q only:       -2.286       0.000       0.000
   full:       -2.988       0.000       0.000       7.594

 projected vibrational frequencies (cm⁻¹)
eigval :       -0.00    -0.00    -0.00    -0.00    -0.00     0.00
eigval :        3.91    12.71    15.85    16.93    22.72    42.14
eigval :       47.29    51.71    55.87    68.25    74.79    87.74
eigval :       89.56    94.42   133.17   136.40   151.94   172.23
eigval :      181.65   189.99   205.98   206.95   237.59   244.44
eigval :      262.25   274.17   294.55   310.10   312.72   335.80
eigval :      363.76   364.62   374.47   377.57   391.02   401.56
eigval :      403.19   421.71   425.28   443.11   453.93   486.90
eigval :      489.04   534.85   553.05   556.70   563.47   587.49
eigval :      587.87   600.98   610.39   614.36   624.69   626.69
eigval :      627.15   644.75   661.46   663.83   669.05   673.72
eigval :      704.12   705.73   724.15   752.10   775.51   795.21
eigval :      809.74   813.82   815.66   832.83   847.56   848.22
eigval :      865.69   869.96   874.42   876.86   878.36   896.12
eigval :      905.55   907.43   909.58   911.02   927.89   929.13
eigval :      930.67   933.64   934.11   934.48   936.35   975.91
eigval :      990.66  1015.14  1018.20  1047.77  1074.99  1075.68
eigval :     1078.56  1081.44  1089.52  1107.75  1112.04  1122.65
eigval :     1130.57  1157.90  1162.75  1166.69  1179.60  1180.20
eigval :     1181.28  1190.18  1202.93  1206.15  1207.96  1220.57
eigval :     1237.93  1254.09  1257.04  1268.60  1270.10  1298.87
eigval :     1325.46  1328.35  1330.00  1349.09  1352.89  1355.64
eigval :     1371.82  1372.87  1380.47  1402.58  1410.55  1422.71
eigval :     1432.74  1433.95  1455.54  1467.78  1467.89  1475.44
eigval :     1492.89  1510.83  1518.47  1557.92  1569.72  1576.59
eigval :     1583.71  1584.79  1585.28  1591.30  1594.91  1595.58
eigval :     1603.64  3075.89  3075.94  3081.93  3082.06  3089.67
eigval :     3090.68  3091.09  3091.53  3097.11  3097.34  3106.16
eigval :     3107.62  3107.79  3108.16  3108.32  3108.50  3109.27
eigval :     3110.12  3113.45  3113.84

   temp. (K)  partition function   enthalpy   heat capacity  entropy
                                   cal/mol     cal/K/mol   cal/K/mol   J/K/mol
 298.15  VIB  0.804E+16            18452.810    111.391    118.296
         ROT  0.640E+08              888.752      2.981     38.701
         INT  0.515E+24            19341.562    114.372    156.997
         TR   0.154E+29             1481.254      4.968     45.195
         TOT                       20822.8162   119.3403   202.1920   845.9715

       T/K    H(0)-H(T)+PV         H(T)/Eh          T*S/Eh         G(T)/Eh
   ------------------------------------------------------------------------
    298.15    0.331833E-01    0.461497E+00    0.960680E-01    0.365429E+00
   ------------------------------------------------------------------------

         :::::::::::::::::::::::::::::::::::::::::::::::::::::
         ::                  THERMODYNAMIC                  ::
         :::::::::::::::::::::::::::::::::::::::::::::::::::::
         :: total free energy        -100.412593390171 Eh   ::
         ::.................................................::
         :: total energy             -100.778022315342 Eh   ::
         :: zero point energy           0.428313619688 Eh   ::
         :: G(RRHO) w/o ZPVE           -0.062884694517 Eh   ::
         :: G(RRHO) contrib.            0.365428925171 Eh   ::
         :::::::::::::::::::::::::::::::::::::::::::::::::::::

           -------------------------------------------------
          | TOTAL ENERGY             -100.778022315342 Eh   |
          | TOTAL ENTHALPY           -100.316525425772 Eh   |
          | TOTAL FREE ENERGY        -100.412593390171 Eh   |
          | GRADIENT NORM               0.000056979929 Eh/α |
          | HOMO-LUMO GAP               2.191191494698 eV   |
           -------------------------------------------------

 * finished run on 2025/08/29 at 12:43:03.676
