   * xtb version 6.7.1 (edcfbbe) compiled by 'albert@albert-system' on 2024-07-22

   ID    Z sym.   atoms
    1   35 Br     1, 11
    2    6 C      2-10, 12-14, 16-20, 22-28, 30-36, 38, 39
    3    7 N      15, 21, 29, 37
    4    1 H      40-59

          program call               : xtb data2507/gas/2BrCPT/2BrCPT_gas_S0_finalOpt.xtbopt.xyz --gfn 2 --spinpol --tblite --uhf 2 --ohess vtight --parallel 40 --molden --ceasefiles --namespace data2507/gas/2BrCPT/2BrCPT_gas_T1_preOpt
 * total energy  :  -100.6956086 Eh     change       -0.3666770E-08 Eh
 * total energy  :  -100.6988016 Eh     change       -0.3192925E-02 Eh
 * total energy  :  -100.7007719 Eh     change       -0.1970311E-02 Eh
 * total energy  :  -100.7009295 Eh     change       -0.1576556E-03 Eh
 * total energy  :  -100.7010656 Eh     change       -0.1360920E-03 Eh
 * total energy  :  -100.7010807 Eh     change       -0.1513300E-04 Eh
 * total energy  :  -100.7010938 Eh     change       -0.1305398E-04 Eh
 * total energy  :  -100.7010953 Eh     change       -0.1455860E-05 Eh
 * total energy  :  -100.7010964 Eh     change       -0.1127057E-05 Eh
 * total energy  :  -100.7010976 Eh     change       -0.1235537E-05 Eh
 * total energy  :  -100.7011020 Eh     change       -0.5493691E-06 Eh
 * total energy  :  -100.7011025 Eh     change       -0.4348152E-06 Eh
 * total energy  :  -100.7011034 Eh     change       -0.9592153E-06 Eh
 * total energy  :  -100.7011043 Eh     change       -0.9026940E-06 Eh
 * total energy  :  -100.7011053 Eh     change       -0.1003986E-05 Eh
 * total energy  :  -100.7011063 Eh     change       -0.9837635E-06 Eh
 * total energy  :  -100.7011071 Eh     change       -0.8286150E-06 Eh
 * total energy  :  -100.7011081 Eh     change       -0.9973068E-06 Eh
 * total energy  :  -100.7011082 Eh     change       -0.2734144E-07 Eh
   *** GEOMETRY OPTIMIZATION CONVERGED AFTER 22 ITERATIONS ***

 final structure:
================
59
 xtb: 6.7.1 (edcfbbe)
Br           6.09134389709802       -4.13701766415474       -1.30513482601860
C            4.73629182771801       -2.85599705308405       -0.90656611710340
C            3.40096746314207       -3.23155323009866       -1.05058545072215
C            2.38802914149292       -2.33893884196596       -0.76743662400495
C            2.73931662205745       -1.06659777004515       -0.33081967844354
C            4.09953622224984       -0.68527455338970       -0.21107930263740
C            5.11034908936989       -1.59081135546235       -0.49716642699383
C            4.09788888111428        0.68622565239057        0.21067809031033
C            5.10649905986210        1.59349802654173        0.49904941620995
C            4.72934689623508        2.85799291559274        0.90774280809567
Br           6.08128098572565        4.14126696436728        1.30962584968752
C            3.39306390120539        3.23121079713716        1.04888511660876
C            2.38230591914953        2.33684333126712        0.76350136702209
C            2.73676059427191        1.06514603741475        0.32758110095741
N            1.93454834528023       -0.00143239542592       -0.00248138859929
C            0.52971936117116       -0.00279441237688       -0.00285489084075
C           -0.17482765528613        0.99753979941595       -0.68056687003763
C           -1.54579183077612        0.99979980756613       -0.67901744509570
C           -2.26825019723838       -0.00454367457515       -0.00207527625214
C           -3.68607245941719       -0.00509491817630       -0.00123769227071
N           -4.37445227918043        0.96287594642905       -0.65820996341617
C           -5.67709656099846        0.95562200257067       -0.64291755629943
C           -6.41592344567394        1.99898763580940       -1.33579977801339
C           -5.73733717645040        3.01139383531990       -2.01711024597439
C           -6.44466472205543        3.99840689430698       -2.67185915668888
C           -7.83209593868740        3.99014946658220       -2.65671113735396
C           -8.51171211225547        2.98765714112471       -1.98167677721127
C           -7.81176922929218        1.99632708834504       -1.32389587314740
N           -6.37575589551143       -0.00608576776794        0.00043258392108
C           -5.67556377152488       -0.96738275062324        0.64300478961468
C           -6.41262932347727       -2.01135083376267        1.33665891966156
C           -5.73241110137854       -3.02233290403262        2.01850261466968
C           -6.43815654247951       -4.01010559134335        2.67379576297302
C           -7.82560760287290       -4.00408068107262        2.65866501445304
C           -8.50684020406592       -3.00298102564387        1.98317744596330
C           -7.80850001193029       -2.01086133330664        1.32489649855036
N           -4.37288967535256       -0.97343189307666        0.65654584786255
C           -1.54415909286912       -1.00822323534287        0.67410747031704
C           -0.17320317349660       -1.00423438397151        0.67492039402165
H            3.16458130567392       -4.22789407363168       -1.39006048976893
H            1.35479195964447       -2.62113487835366       -0.89364688610382
H            6.14979099849820       -1.31761481727441       -0.40732088911972
H            6.14660788376484        1.32209893965334        0.41151493692994
H            3.15418957778805        4.22712378169435        1.38787387318895
H            1.34831136891654        2.61724039619151        0.88747987708622
H            0.37336064320973        1.75354832879184       -1.22380433940083
H           -2.09701457122359        1.76325291705460       -1.20519142587273
H           -4.65826669314746        3.00436518558739       -2.02018426262219
H           -5.91663243490706        4.78006621316296       -3.19802160112919
H           -8.38226126410103        4.76434205059806       -3.17062399732924
H           -9.59175420841029        2.98189232986796       -1.97026009822896
H           -8.32688471202351        1.20979681589724       -0.79411280912828
H           -4.65334935955962       -3.01357237579360        2.02158336268907
H           -5.90886385736673       -4.79063493500269        3.20037517529436
H           -8.37453011235194       -4.77892943709098        3.17292307571713
H           -9.58689293206551       -2.99895915667698        1.97176672050684
H           -8.32488985038478       -1.22540880590845        0.79475110212772
H           -2.09412412234542       -1.77244613159311        1.20048024876186
H            0.37623229835433       -1.75961703476283        1.21776739368524

 projected vibrational frequencies (cm⁻¹)
eigval :       -0.00    -0.00    -0.00     0.00     0.00     0.00
eigval :        8.41    12.39    16.75    26.51    28.51    40.22
eigval :       44.24    50.57    59.83    67.08    74.48    89.64
eigval :       90.35   109.37   130.54   132.37   153.37   167.07
eigval :      185.04   191.47   204.72   224.92   236.74   237.38
eigval :      245.52   261.65   291.32   302.98   308.18   333.71
eigval :      349.60   363.72   366.05   366.84   382.73   390.75
eigval :      402.14   402.96   409.13   419.57   427.75   465.80
eigval :      489.07   537.05   538.78   545.55   550.90   562.63
eigval :      563.26   564.66   581.94   588.04   593.20   596.87
eigval :      609.26   620.82   638.45   646.40   655.87   659.78
eigval :      664.74   669.42   670.03   704.50   713.52   759.89
eigval :      761.64   797.23   798.66   802.56   811.74   815.90
eigval :      816.58   845.96   865.66   867.40   867.51   869.71
eigval :      893.27   899.41   900.20   901.50   904.09   914.53
eigval :      921.23   923.68   925.56   926.39   929.30   929.51
eigval :      948.32   981.68   985.45   998.80  1016.65  1062.16
eigval :     1073.44  1075.33  1075.66  1076.98  1107.97  1108.99
eigval :     1124.01  1127.42  1138.63  1151.41  1154.22  1168.37
eigval :     1179.62  1180.16  1182.24  1188.42  1191.43  1219.18
eigval :     1235.42  1251.16  1253.64  1255.81  1267.43  1273.18
eigval :     1283.68  1290.12  1328.53  1330.69  1331.93  1346.55
eigval :     1351.96  1352.72  1388.63  1401.32  1412.95  1415.55
eigval :     1423.81  1428.93  1439.18  1442.27  1446.00  1461.52
eigval :     1466.55  1471.41  1486.16  1501.55  1550.95  1559.03
eigval :     1569.48  1570.51  1571.15  1571.62  1584.84  1589.86
eigval :     1592.82  3077.36  3077.54  3079.10  3080.50  3081.59
eigval :     3081.80  3091.80  3092.27  3098.46  3099.29  3099.46
eigval :     3099.50  3100.21  3101.16  3101.45  3102.88  3105.21
eigval :     3107.50  3109.54  3109.62

   temp. (K)  partition function   enthalpy   heat capacity  entropy
                                   cal/mol     cal/K/mol   cal/K/mol   J/K/mol
 298.15  VIB  0.274E+16            18834.539    114.445    118.957
         ROT  0.644E+08              888.752      2.981     38.712
         INT  0.176E+24            19723.292    117.426    157.669
         TR   0.154E+29             1481.254      4.968     45.195
         TOT                       21204.5456   122.3939   202.8643   848.7841

       T/K    H(0)-H(T)+PV         H(T)/Eh          T*S/Eh         G(T)/Eh
   ------------------------------------------------------------------------
    298.15    0.337916E-01    0.456615E+00    0.963874E-01    0.360228E+00
   ------------------------------------------------------------------------

         :::::::::::::::::::::::::::::::::::::::::::::::::::::
         ::                  THERMODYNAMIC                  ::
         :::::::::::::::::::::::::::::::::::::::::::::::::::::
         :: total free energy        -100.340880573780 Eh   ::
         ::.................................................::
         :: total energy             -100.701108169166 Eh   ::
         :: zero point energy           0.422823356275 Eh   ::
         :: G(RRHO) w/o ZPVE           -0.062595760890 Eh   ::
         :: G(RRHO) contrib.            0.360227595385 Eh   ::
         :::::::::::::::::::::::::::::::::::::::::::::::::::::

           -------------------------------------------------
          | TOTAL ENERGY             -100.701108169166 Eh   |
          | TOTAL ENTHALPY           -100.244493218574 Eh   |
          | TOTAL FREE ENERGY        -100.340880573780 Eh   |
          | GRADIENT NORM               0.000079936335 Eh/α |
           -------------------------------------------------

 * finished run on 2025/08/29 at 12:46:07.585
