   * xtb version 6.7.1 (edcfbbe) compiled by 'albert@albert-system' on 2024-07-22

   ID    Z sym.   atoms
    1   35 Br     1, 11
    2    6 C      2-10, 12-14, 16-20, 22-28, 30-36, 38, 39
    3    7 N      15, 21, 29, 37
    4    1 H      40-59

          program call               : xtb data2507/gas/2BrCPT/2BrCPT_gas_T1_crest.xyz --gfn 2 --spinpol --tblite --uhf 2 --ohess vtight --parallel 40 --molden --ceasefiles --namespace data2507/gas/2BrCPT/2BrCPT_gas_T1_finalOpt
 * total energy  :  -100.7009874 Eh     change        0.3459495E-07 Eh
 * total energy  :  -100.7010676 Eh     change       -0.8013285E-04 Eh
 * total energy  :  -100.7011012 Eh     change       -0.3360458E-04 Eh
 * total energy  :  -100.7011041 Eh     change       -0.2889323E-05 Eh
 * total energy  :  -100.7011058 Eh     change       -0.1699800E-05 Eh
 * total energy  :  -100.7011067 Eh     change       -0.9711977E-06 Eh
 * total energy  :  -100.7011076 Eh     change       -0.8817638E-06 Eh
 * total energy  :  -100.7011084 Eh     change       -0.7518743E-06 Eh
 * total energy  :  -100.7011089 Eh     change       -0.4827263E-06 Eh
 * total energy  :  -100.7011091 Eh     change       -0.2409602E-06 Eh
 * total energy  :  -100.7011096 Eh     change       -0.7944462E-07 Eh
 * total energy  :  -100.7011098 Eh     change       -0.2745067E-06 Eh
 * total energy  :  -100.7011103 Eh     change       -0.4881596E-06 Eh
 * total energy  :  -100.7011104 Eh     change       -0.6701120E-07 Eh
 * total energy  :  -100.7011105 Eh     change       -0.1332939E-06 Eh
 * total energy  :  -100.7011106 Eh     change       -0.1015751E-06 Eh
 * total energy  :  -100.7011105 Eh     change        0.1162592E-06 Eh
 * total energy  :  -100.7011107 Eh     change       -0.1777085E-06 Eh
 * total energy  :  -100.7011107 Eh     change       -0.2707300E-07 Eh
   *** GEOMETRY OPTIMIZATION CONVERGED AFTER 21 ITERATIONS ***

 final structure:
================
59
 xtb: 6.7.1 (edcfbbe)
Br           6.08114847209638       -4.13353185581842       -1.32783284919859
C            4.72881736196894       -2.85235859117569       -0.92058139562664
C            3.39264611122898       -3.22649390312834       -1.06042854004414
C            2.38166884647684       -2.33344488767520       -0.77181640427018
C            2.73598886751067       -1.06229534803112       -0.33429555956726
C            4.09691666923101       -0.68251888622419       -0.21777231806981
C            5.10571004402598       -1.58853673832913       -0.50946288628559
C            4.09771244291437        0.68813201204971        0.20700767491621
C            5.10758751193560        1.59397828553596        0.49547030105179
C            4.73222441251834        2.85789430547299        0.90769841741740
Br           6.08607460289571        4.13884888714186        1.31056979653055
C            3.39656874258485        3.23228517233857        1.05173354902634
C            2.38452162328284        2.33941699789342        0.76633026557823
C            2.73722692633541        1.06817869205925        0.32775729059122
N            1.93326276666236        0.00301975643255       -0.00200525430366
C            0.52836914781251        0.00325440071724       -0.00028828112681
C           -0.17576660472981        1.00177367883266       -0.68098739343852
C           -1.54671671935424        1.00473800092243       -0.67880059854344
C           -2.26923868173209        0.00339162426244        0.00249667857251
C           -3.68703272177703        0.00331997064254        0.00354761742176
N           -4.37513213451587        0.96713069486266       -0.65944364763965
C           -5.67777776300258        0.96025811284775       -0.64468331664746
C           -6.41571538303199        1.99976241414232       -1.34404904101295
C           -5.73605501319112        3.00561072858618       -2.03401838622694
C           -6.44225768140242        3.98950685281562       -2.69458145293738
C           -7.82967828809358        3.98470690807796       -2.67667426949042
C           -8.51035211323534        2.98866580542450       -1.99319861346820
C           -7.81154697952190        2.00038749420023       -1.32965206059449
N           -6.37680944494606        0.00243045433460        0.00437193554989
C           -5.67683001499127       -0.95459804797528        0.65327039713650
C           -6.41382278312006       -1.99446245439399        1.35331469938950
C           -5.73325162535301       -2.99773859653232        2.04607306084573
C           -6.43855063721715       -3.98196582068393        2.70714179243881
C           -7.82593661188350       -3.98006531041465        2.68685692838739
C           -8.50750693108011       -2.98657029751536        2.00059021063692
C           -7.80960345414161       -1.99791965702552        1.33662906076125
N           -4.37416078961666       -0.96079705030011        0.66740619306934
C           -1.54546944526672       -0.99792703654540        0.68249994799506
C           -0.17450440272539       -0.99510517385898        0.68193431434992
H            3.15409367646989       -4.22192031228287       -1.40107013695118
H            1.34756678766092       -2.61411239585775       -0.89442679425397
H            6.14579026042919       -1.31680095546126       -0.42269086758252
H            6.14733968510035        1.32204542713275        0.40543918046013
H            3.15927800611297        4.22778405261466        1.39304532862992
H            1.35085931441308        2.62029028844909        0.89214718235655
H            0.37278592184149        1.75559243510192       -1.22691969679294
H           -2.09789588534413        1.76638473675542       -1.20762912590328
H           -4.65701217272687        2.99595595911193       -2.03914086424529
H           -5.91336799242034        4.76608767075737       -3.22736400785102
H           -8.37896726602595        4.75661177611234       -3.19494645641005
H           -9.59038061148187        2.98556831965195       -1.97966940673170
H           -8.32754562127234        1.21892604065261       -0.79326541231023
H           -4.65424574578087       -2.98581176784805        2.05304889045362
H           -5.90897135953444       -4.75650573397182        3.24219765054913
H           -8.37451347669906       -4.75223275023484        3.20549326168333
H           -9.58751064009911       -2.98575032490844        1.98518348868094
H           -8.32629599150759       -1.21842157970355        0.79806595856505
H           -2.09566431920161       -1.75955318450988        1.21238231532081
H            0.37506341501529       -1.74898834092721        1.22675622755903

 projected vibrational frequencies (cm⁻¹)
eigval :       -0.00    -0.00    -0.00     0.00     0.00     0.00
eigval :        8.09    12.22    16.70    26.34    28.34    40.16
eigval :       44.29    50.30    59.79    67.16    74.55    89.05
eigval :       90.20   109.09   130.86   132.22   153.36   167.01
eigval :      185.03   191.33   204.70   224.97   236.74   237.16
eigval :      245.35   261.55   291.36   302.76   307.92   333.44
eigval :      348.35   363.96   366.02   366.84   382.48   390.64
eigval :      400.89   403.39   409.13   419.45   427.63   465.70
eigval :      488.44   536.97   538.80   545.62   550.80   562.61
eigval :      563.24   563.68   583.28   587.96   592.52   596.87
eigval :      609.17   619.40   639.08   646.36   655.62   659.73
eigval :      664.73   669.34   670.06   704.46   713.64   759.87
eigval :      761.64   797.37   799.22   802.50   811.85   815.95
eigval :      816.52   845.59   865.62   867.38   867.48   869.68
eigval :      893.23   899.37   900.17   901.47   904.09   914.19
eigval :      920.96   923.87   925.53   926.36   929.25   929.45
eigval :      946.73   981.87   986.75   999.05  1016.68  1062.09
eigval :     1073.58  1075.32  1075.78  1077.17  1108.21  1109.00
eigval :     1123.93  1127.36  1137.47  1151.30  1154.12  1168.53
eigval :     1179.54  1180.07  1182.15  1188.25  1191.33  1219.10
eigval :     1235.01  1250.50  1253.57  1255.83  1267.41  1273.14
eigval :     1283.62  1290.21  1328.55  1330.68  1331.96  1346.30
eigval :     1351.87  1352.40  1388.00  1401.17  1412.43  1415.39
eigval :     1423.75  1428.77  1439.12  1442.50  1445.90  1461.15
eigval :     1466.23  1471.12  1486.10  1501.51  1550.89  1559.10
eigval :     1569.46  1570.53  1571.13  1571.54  1584.82  1589.90
eigval :     1592.90  3077.19  3077.32  3078.94  3080.33  3081.43
eigval :     3081.63  3091.42  3091.82  3098.02  3098.99  3099.05
eigval :     3099.10  3099.78  3100.56  3101.17  3102.51  3104.89
eigval :     3107.20  3109.21  3109.46

   temp. (K)  partition function   enthalpy   heat capacity  entropy
                                   cal/mol     cal/K/mol   cal/K/mol   J/K/mol
 298.15  VIB  0.297E+16            18840.948    114.450    119.056
         ROT  0.644E+08              888.752      2.981     38.712
         INT  0.191E+24            19729.700    117.431    157.769
         TR   0.154E+29             1481.254      4.968     45.195
         TOT                       21210.9543   122.3987   202.9635   849.1993

       T/K    H(0)-H(T)+PV         H(T)/Eh          T*S/Eh         G(T)/Eh
   ------------------------------------------------------------------------
    298.15    0.338018E-01    0.456578E+00    0.964345E-01    0.360144E+00
   ------------------------------------------------------------------------

         :::::::::::::::::::::::::::::::::::::::::::::::::::::
         ::                  THERMODYNAMIC                  ::
         :::::::::::::::::::::::::::::::::::::::::::::::::::::
         :: total free energy        -100.340966913054 Eh   ::
         ::.................................................::
         :: total energy             -100.701110714677 Eh   ::
         :: zero point energy           0.422776504690 Eh   ::
         :: G(RRHO) w/o ZPVE           -0.062632703068 Eh   ::
         :: G(RRHO) contrib.            0.360143801622 Eh   ::
         :::::::::::::::::::::::::::::::::::::::::::::::::::::

           -------------------------------------------------
          | TOTAL ENERGY             -100.701110714677 Eh   |
          | TOTAL ENTHALPY           -100.244532402710 Eh   |
          | TOTAL FREE ENERGY        -100.340966913054 Eh   |
          | GRADIENT NORM               0.000041095805 Eh/α |
           -------------------------------------------------

 * finished run on 2025/08/29 at 12:50:38.823
