   * xtb version 6.7.1 (edcfbbe) compiled by 'albert@albert-system' on 2024-07-22

   ID    Z sym.   atoms
    1   35 Br     1, 11
    2    6 C      2-10, 12-14, 16-20, 22-28, 30-36, 38, 39
    3    7 N      15, 21, 29, 37
    4    1 H      40-59

          program call               : xtb data2507/gas/2BrCPT/2BrCPT_gas_S0_crest.xyz --gfn 2 --ohess vtight --parallel 40 --molden --ceasefiles --namespace data2507/gas/2BrCPT/2BrCPT_gas_S0_finalOpt
          :  Hamiltonian                  GFN2-xTB          :
 * total energy  :  -100.7780182 Eh     change       -0.2364118E-09 Eh
 * total energy  :  -100.7780192 Eh     change       -0.9943667E-06 Eh
 * total energy  :  -100.7780199 Eh     change       -0.6929616E-06 Eh
 * total energy  :  -100.7780154 Eh     change        0.4501774E-05 Eh
 * total energy  :  -100.7780220 Eh     change       -0.6639889E-05 Eh
 * total energy  :  -100.7780224 Eh     change       -0.4470285E-06 Eh
 * total energy  :  -100.7780224 Eh     change        0.2604021E-07 Eh
 * total energy  :  -100.7780227 Eh     change       -0.2953670E-06 Eh
 * total energy  :  -100.7780229 Eh     change       -0.1731899E-06 Eh
 * total energy  :  -100.7780229 Eh     change       -0.3184907E-07 Eh
   *** GEOMETRY OPTIMIZATION CONVERGED AFTER 10 ITERATIONS ***

 final structure:
================
59
 xtb: 6.7.1 (edcfbbe)
Br           6.09988335062823       -4.13538962155094       -1.26325963472178
C            4.73701656722796       -2.85707437703243       -0.87559861858632
C            3.40479076756284       -3.24165488540222       -1.01550994340496
C            2.38556684327849       -2.35257295451674       -0.74104017149841
C            2.72855103442262       -1.07538049320419       -0.31641806955507
C            4.08393784875367       -0.68498864184798       -0.20077927305142
C            5.10186781482537       -1.58702241481200       -0.47886995009068
C            4.07725247445197        0.69118227405618        0.20510123193701
C            5.08620578780307        1.60054709155738        0.49203666608972
C            4.70880323965112        2.86799433113367        0.88538825705695
Br           6.05895547293603        4.15606131210544        1.28499781613024
C            3.37269057812231        3.24280522652680        1.01419709318304
C            2.36234822593351        2.34624977472617        0.73138294758744
C            2.71817054181134        1.07164149752009        0.30953023043963
N            1.91703697287855       -0.00477981749731       -0.00698743406165
C            0.51404030545390       -0.00946916589445       -0.01046841928156
C           -0.18507090877808        0.98526876587511       -0.69087842403437
C           -1.56392815068547        0.98301946653925       -0.68773090131390
C           -2.26475391309991       -0.01387995339807       -0.01188415770029
C           -3.72851269430755       -0.01298644516311       -0.00910499802169
N           -4.34955835323792        0.97069819288871       -0.65124639014706
C           -5.68005459388996        0.93472982812526       -0.62251401582917
C           -6.41138903124198        1.99226390581750       -1.31891861866597
C           -5.71914111790323        3.00793158296836       -1.97595549200069
C           -6.41323931326969        4.00487142112904       -2.63311373726582
C           -7.79953516608128        3.99771899743020       -2.64103198444193
C           -8.49296290577922        2.98965356955058       -1.98915081622329
C           -7.80502581446481        1.98974618805619       -1.32992535698895
N           -6.38235919125275       -0.00530906773471        0.00255286418600
C           -5.67995065079727       -0.95062216652914        0.61955387680391
C           -6.41176370352587       -2.00426138488913        1.32137469550964
C           -5.72087459996985       -3.03305392999588        1.95909196471090
C           -6.41581544713554       -4.02592231023101        2.62151621269522
C           -7.80153139229216       -4.00134585761575        2.65442924545398
C           -8.49363138951696       -2.98012639046776        2.02189020751952
C           -7.80487295776984       -1.98456961408614        1.35697043914287
N           -4.34942360550451       -0.99450459473614        0.63647916011419
C           -1.56152773488076       -1.00962110194974        0.66312586149269
C           -0.18259737742202       -1.00753509489799        0.66760031093514
H            3.17375973392764       -4.24260199291864       -1.34512750575836
H            1.35506539975066       -2.64516370110244       -0.86730923222610
H            6.13899867689529       -1.30446315891877       -0.39241339280502
H            6.12605671323120        1.32546861945979        0.41466131874859
H            3.13156121131589        4.24205186674475        1.34173968608000
H            1.32874142069381        2.63137969097345        0.84901270397552
H            0.36020940685093        1.74386557726808       -1.23230392265895
H           -2.11934073167034        1.74393614174808       -1.21224274810385
H           -4.64073604686448        2.99751830068791       -1.95930388446338
H           -5.87523395459502        4.79139817004818       -3.14173613306798
H           -8.33997015166087        4.77863881750769       -3.15573121238575
H           -9.57303215720024        2.98637744420592       -1.99676468878622
H           -8.32745236482095        1.19728702048365       -0.81774903984257
H           -4.64285993469786       -3.03612048056259        1.92323388728555
H           -5.87888957023010       -4.82276713230378        3.11504615372633
H           -8.34257981056455       -4.77893531006721        3.17351193855698
H           -9.57325227731328       -2.96298025574545        2.04934289217628
H           -8.32619545412835       -1.18175787160121        0.86004632163896
H           -2.11502390700591       -1.77215726650928        1.18733117485370
H            0.36451729415238       -1.76457114115143        1.20936959045328

          :  Hamiltonian                  GFN2-xTB          :
         :: gradient norm              0.000118931075 Eh/a0 ::
         :: HOMO-LUMO gap              2.189440666081 eV    ::
         :: SCC energy              -102.479849701760 Eh    ::
         :: -> dispersion             -0.081044638736 Eh    ::
         :: repulsion energy           1.701826783221 Eh    ::

    * Orbital Energies and Occupations

         #    Occupation            Energy/Eh            Energy/eV
      -------------------------------------------------------------
         1        2.0000           -0.8363002             -22.7569
       ...           ...                  ...                  ...
        81        2.0000           -0.4311103             -11.7311
        82        2.0000           -0.4171071             -11.3501
        83        2.0000           -0.4170502             -11.3485
        84        2.0000           -0.4157548             -11.3133
        85        2.0000           -0.4145117             -11.2794
        86        2.0000           -0.4135509             -11.2533
        87        2.0000           -0.4126908             -11.2299
        88        2.0000           -0.4108507             -11.1798
        89        2.0000           -0.4097525             -11.1499
        90        2.0000           -0.3993077             -10.8657
        91        2.0000           -0.3828835             -10.4188
        92        2.0000           -0.3786831             -10.3045
        93        2.0000           -0.3777911             -10.2802 (HOMO)
        94                         -0.2973307              -8.0908 (LUMO)
        95                         -0.2928001              -7.9675
        96                         -0.2753562              -7.4928
        97                         -0.2559124              -6.9637
        98                         -0.2542284              -6.9179
        99                         -0.2499248              -6.8008
       100                         -0.2340994              -6.3702
       101                         -0.2340838              -6.3697
       102                         -0.2292148              -6.2373
       103                         -0.2177468              -5.9252
       104                         -0.2063964              -5.6163
       ...                                ...                  ...
       186                          0.7143392              19.4382
      -------------------------------------------------------------
                  HL-Gap            0.0804604 Eh            2.1894 eV

     #   Z          covCN         q      C6AA      α(0)
     1  35 Br       1.071    -0.173   189.845    22.216
     2   6 C        2.918     0.075    26.328     8.414
     3   6 C        2.996    -0.037    28.910     8.820
     4   6 C        2.912    -0.048    29.186     8.859
     5   6 C        3.077     0.047    26.859     8.497
     6   6 C        3.073    -0.013    28.264     8.717
     7   6 C        2.987    -0.037    28.918     8.821
     8   6 C        3.073    -0.013    28.264     8.717
     9   6 C        2.987    -0.037    28.918     8.821
    10   6 C        2.918     0.075    26.328     8.414
    11  35 Br       1.071    -0.173   189.845    22.216
    12   6 C        2.996    -0.037    28.910     8.820
    13   6 C        2.912    -0.048    29.186     8.859
    14   6 C        3.078     0.047    26.859     8.497
    15   7 N        2.803    -0.033    21.879     6.947
    16   6 C        2.914     0.066    26.527     8.446
    17   6 C        2.920    -0.041    29.026     8.835
    18   6 C        2.924    -0.023    28.570     8.766
    19   6 C        2.984    -0.000    28.032     8.685
    20   6 C        2.984     0.202    23.718     7.989
    21   7 N        1.844    -0.296    28.508     7.913
    22   6 C        2.981     0.203    23.698     7.985
    23   6 C        2.984    -0.000    28.029     8.684
    24   6 C        2.924    -0.023    28.584     8.768
    25   6 C        2.918    -0.027    28.678     8.782
    26   6 C        2.920    -0.023    28.568     8.765
    27   6 C        2.918    -0.027    28.672     8.781
    28   6 C        2.924    -0.023    28.576     8.766
    29   7 N        1.844    -0.292    28.414     7.900
    30   6 C        2.982     0.203    23.698     7.985
    31   6 C        2.984    -0.000    28.028     8.684
    32   6 C        2.924    -0.023    28.584     8.768
    33   6 C        2.918    -0.027    28.678     8.782
    34   6 C        2.920    -0.023    28.568     8.765
    35   6 C        2.918    -0.027    28.672     8.781
    36   6 C        2.924    -0.023    28.576     8.766
    37   7 N        1.844    -0.295    28.508     7.913
    38   6 C        2.924    -0.023    28.570     8.765
    39   6 C        2.920    -0.041    29.026     8.835
    40   1 H        0.926     0.056     2.245     2.343
    41   1 H        0.926     0.044     2.394     2.419
    42   1 H        0.926     0.057     2.231     2.336
    43   1 H        0.926     0.057     2.231     2.336
    44   1 H        0.926     0.056     2.245     2.343
    45   1 H        0.926     0.044     2.393     2.419
    46   1 H        0.926     0.047     2.353     2.399
    47   1 H        0.926     0.065     2.139     2.287
    48   1 H        0.926     0.054     2.272     2.357
    49   1 H        0.926     0.038     2.476     2.461
    50   1 H        0.926     0.038     2.470     2.458
    51   1 H        0.926     0.038     2.469     2.457
    52   1 H        0.926     0.056     2.248     2.344
    53   1 H        0.926     0.054     2.273     2.357
    54   1 H        0.926     0.038     2.476     2.461
    55   1 H        0.926     0.038     2.470     2.458
    56   1 H        0.926     0.038     2.469     2.457
    57   1 H        0.926     0.056     2.247     2.344
    58   1 H        0.926     0.065     2.140     2.288
    59   1 H        0.926     0.047     2.354     2.399

molecular dipole:
                 x           y           z       tot (Debye)
 q only:       -2.288      -0.004      -0.005
   full:       -2.990      -0.007      -0.008       7.599

 projected vibrational frequencies (cm⁻¹)
eigval :       -0.00    -0.00     0.00     0.00     0.00     0.00
eigval :        3.68    12.56    15.79    17.03    22.50    42.26
eigval :       47.30    51.86    55.50    68.23    75.06    87.72
eigval :       88.87    94.13   133.15   135.28   153.81   170.89
eigval :      181.58   189.97   206.03   207.06   237.66   244.66
eigval :      262.23   273.54   294.53   310.03   312.67   335.91
eigval :      363.72   364.57   374.34   377.19   390.94   401.53
eigval :      402.14   421.61   426.50   443.03   454.07   486.74
eigval :      489.03   534.90   552.72   557.19   563.47   587.50
eigval :      587.86   600.62   610.34   614.29   625.30   626.70
eigval :      627.12   644.31   661.47   663.66   669.01   673.70
eigval :      703.77   705.70   724.19   751.95   775.47   795.10
eigval :      809.70   813.86   815.70   832.77   847.51   848.19
eigval :      865.68   869.93   874.34   876.80   878.33   896.10
eigval :      905.57   907.41   909.55   910.95   927.79   929.11
eigval :      930.67   933.61   934.10   934.56   936.18   975.89
eigval :      990.65  1015.13  1018.14  1047.77  1075.01  1075.67
eigval :     1078.48  1081.37  1089.48  1107.76  1112.05  1122.44
eigval :     1130.36  1157.84  1162.48  1166.70  1179.61  1180.22
eigval :     1181.29  1190.17  1203.02  1206.12  1207.90  1220.58
eigval :     1237.91  1254.02  1256.94  1268.61  1270.11  1298.97
eigval :     1325.53  1328.37  1330.03  1349.13  1352.87  1355.69
eigval :     1371.82  1372.84  1380.36  1402.57  1410.57  1422.74
eigval :     1432.78  1433.95  1455.56  1467.88  1467.91  1475.49
eigval :     1492.83  1510.87  1518.51  1557.95  1569.96  1576.66
eigval :     1583.74  1584.86  1585.29  1591.37  1594.91  1595.59
eigval :     1603.51  3075.80  3075.91  3081.84  3082.03  3089.60
eigval :     3090.60  3091.05  3091.48  3097.06  3097.28  3106.17
eigval :     3107.50  3107.84  3108.19  3108.34  3108.46  3109.29
eigval :     3110.13  3113.70  3114.10

   temp. (K)  partition function   enthalpy   heat capacity  entropy
                                   cal/mol     cal/K/mol   cal/K/mol   J/K/mol
 298.15  VIB  0.879E+16            18456.393    111.394    118.402
         ROT  0.128E+09              888.752      2.981     40.080
         INT  0.113E+25            19345.146    114.375    158.482
         TR   0.154E+29             1481.254      4.968     45.195
         TOT                       20826.3995   119.3427   203.6772   852.1856

       T/K    H(0)-H(T)+PV         H(T)/Eh          T*S/Eh         G(T)/Eh
   ------------------------------------------------------------------------
    298.15    0.331890E-01    0.461491E+00    0.967736E-01    0.364717E+00
   ------------------------------------------------------------------------

         :::::::::::::::::::::::::::::::::::::::::::::::::::::
         ::                  THERMODYNAMIC                  ::
         :::::::::::::::::::::::::::::::::::::::::::::::::::::
         :: total free energy        -100.413305511432 Eh   ::
         ::.................................................::
         :: total energy             -100.778022918560 Eh   ::
         :: zero point energy           0.428302053703 Eh   ::
         :: G(RRHO) w/o ZPVE           -0.063584646575 Eh   ::
         :: G(RRHO) contrib.            0.364717407128 Eh   ::
         :::::::::::::::::::::::::::::::::::::::::::::::::::::

           -------------------------------------------------
          | TOTAL ENERGY             -100.778022918560 Eh   |
          | TOTAL ENTHALPY           -100.316531884613 Eh   |
          | TOTAL FREE ENERGY        -100.413305511432 Eh   |
          | GRADIENT NORM               0.000118822595 Eh/α |
          | HOMO-LUMO GAP               2.189440148613 eV   |
           -------------------------------------------------

 * finished run on 2025/08/29 at 12:46:01.264
