   * xtb version 6.7.1 (edcfbbe) compiled by 'albert@albert-system' on 2024-07-22

   ID    Z sym.   atoms
    1    6 C      1-8, 10-16, 18-36, 38-63
    2    7 N      9, 17, 37
    3    1 H      64-102

          program call               : xtb data2507/toluene/BDPCC/BDPCC_toluene_S0_finalOpt.xtbopt.xyz --gfn 2 --uhf 2 --gbsa toluene --ohess vtight --parallel 40 --molden --ceasefiles --namespace data2507/toluene/BDPCC/BDPCC_toluene_T1_preOpt
      * Solvation model:               GBSA
        Solvent                        toluene
        Solvent mass                       9.2140E+01 g/mol
          :  Hamiltonian                  GFN2-xTB          :
 * total energy  :  -157.2047240 Eh     change       -0.1325253E-07 Eh
 * total energy  :  -157.2078851 Eh     change       -0.3161142E-02 Eh
 * total energy  :  -157.2098634 Eh     change       -0.1978289E-02 Eh
 * total energy  :  -157.2103522 Eh     change       -0.4887819E-03 Eh
 * total energy  :  -157.2108370 Eh     change       -0.4847883E-03 Eh
 * total energy  :  -157.2110457 Eh     change       -0.2087273E-03 Eh
 * total energy  :  -157.2112181 Eh     change       -0.1723578E-03 Eh
 * total energy  :  -157.2113640 Eh     change       -0.1459790E-03 Eh
 * total energy  :  -157.2115078 Eh     change       -0.1437171E-03 Eh
 * total energy  :  -157.2116548 Eh     change       -0.1469969E-03 Eh
 * total energy  :  -157.2122535 Eh     change       -0.7197320E-06 Eh
 * total energy  :  -157.2122539 Eh     change       -0.4253221E-06 Eh
 * total energy  :  -157.2122543 Eh     change       -0.3734793E-06 Eh
 * total energy  :  -157.2122545 Eh     change       -0.2361807E-06 Eh
 * total energy  :  -157.2122546 Eh     change       -0.1495713E-06 Eh
 * total energy  :  -157.2122548 Eh     change       -0.1361962E-06 Eh
 * total energy  :  -157.2122549 Eh     change       -0.1280390E-06 Eh
 * total energy  :  -157.2122550 Eh     change       -0.1126908E-06 Eh
 * total energy  :  -157.2122551 Eh     change       -0.8728509E-07 Eh
   *** GEOMETRY OPTIMIZATION CONVERGED AFTER 61 ITERATIONS ***

 final structure:
================
102
 xtb: 6.7.1 (edcfbbe)
C           -7.01570624105615       -3.06722691008004       -2.65836477837545
C           -6.61697204350292       -2.22400477747677       -1.63385162634125
C           -5.30250071940615       -1.80432894580741       -1.54958577759969
C           -4.35889399900181       -2.22543482956132       -2.48641730379029
C           -2.96085781863001       -1.78081750835591       -2.39074511753222
C           -1.91577315268969       -2.68669394661622       -2.63711471503820
C           -0.58951725977171       -2.31855452667691       -2.53344628023502
C           -0.30948840678298       -1.01006854168465       -2.17122475056351
N            0.89289442877409       -0.38915971486316       -1.96401887223043
C            0.68425150981422        0.89677810656412       -1.55701347143864
C            1.63483145234346        1.89068714464323       -1.19258559454505
C            2.97813928704782        1.60748116551428       -0.78914202971411
C            4.01545293308670        2.51280774200548       -1.11039773281758
C            5.33456027133711        2.23657422969450       -0.88945648890535
C            5.68030108034974        1.01699718992234       -0.25737068757155
C            4.65852069630769        0.12294005590094        0.13563273529621
N            5.24055253473637       -0.92677053947965        0.81067064895222
C            6.59447816344265       -0.74248493757772        0.86654847143469
C            7.57427159611436       -1.53126449323343        1.44410644627396
C            8.88668500347653       -1.10081520350496        1.34707097663071
C            9.21232394529175        0.09038775741687        0.68939661359556
C            8.24490265170383        0.88403539693401        0.11488371833992
C            6.90950522064453        0.47388255995893        0.19230947473669
C            3.30283191956524        0.38320527221360       -0.06136832466966
C            2.27328600838999       -0.46717496908792        0.48880686593207
C            2.34233166848385       -1.86817470976451        0.36932876153604
C            1.28194098779573       -2.71240235047874        0.68079323393893
C            1.41086155189110       -4.15850472111761        0.45385754159071
C            2.59208959266123       -4.83219831703359        0.76200057957902
C            2.70867233871094       -6.19214478671567        0.54296842864006
C            1.64910873766983       -6.90462127860033        0.00559124791087
C            0.47006691242178       -6.24674267053879       -0.30608871934596
C            0.34988086984491       -4.88816085981564       -0.08180524520927
C            0.07607197743276       -2.18079460299181        1.15416396464583
C           -0.01186598514427       -0.81152324332543        1.35479841213295
C            1.08292773697152        0.03335050386057        1.06379387022101
N            0.77609545765589        1.30507955555755        1.46088509490879
C           -0.52045627701671        1.34659449563724        1.90190418724845
C           -1.28153655584785        2.42209947728449        2.33215341665810
C           -2.59456919936676        2.18073762589413        2.68323539356973
C           -3.15241598822496        0.89358010856927        2.63534283321260
C           -4.56464124107477        0.68810768585133        2.99264576817087
C           -4.95191081345798       -0.40393650597049        3.76745571088550
C           -6.28088789716602       -0.60261745456134        4.09282477799776
C           -7.24837079524041        0.28238076635768        3.64546328046499
C           -6.87638857640496        1.36986702996528        2.87210936363833
C           -5.54695363112905        1.57296757156669        2.55094603578038
C           -2.37135242482133       -0.18478689540016        2.23548414835556
C           -1.05666707369523        0.03763639214810        1.85823231819068
C            1.11027516048031        3.20589893362977       -1.11804957418297
C           -0.24323295053077        3.48651949226716       -1.18525859882283
C           -0.71245829044097        4.86481572749334       -0.99390512584426
C           -0.03076911101132        5.93897053905808       -1.56562496537988
C           -0.47476781914057        7.23487873468547       -1.38092427752785
C           -1.60321208131809        7.48325019056724       -0.61599998310719
C           -2.28808198827458        6.42453252491475       -0.04115297858296
C           -1.85066672891751        5.12737446109719       -0.23151627756875
C           -1.17828990185881        2.45194091045288       -1.38640777884865
C           -0.70047410113490        1.16772021581483       -1.60130854850642
C           -1.34570564285879       -0.07069148707686       -1.94388488646810
C           -2.66932636737572       -0.46348390040731       -2.05039225861466
C           -4.77223497461116       -3.07550859517027       -3.51145418897438
C           -6.08872805070937       -3.48888333990980       -3.59784268684955
H           -8.04363467227843       -3.39286937174291       -2.72535108380003
H           -7.33283039957868       -1.89349150215101       -0.89452101780154
H           -4.99775221540169       -1.15903369273382       -0.73825146838135
H           -2.16086864134480       -3.70814653307769       -2.88782845660967
H            0.20313816853931       -3.03092830268653       -2.70767762747719
H            1.79164729963890       -0.83932321217115       -2.01634648278550
H            3.74981833198459        3.42168735164409       -1.62988279401173
H            6.10788833501484        2.92450993961563       -1.19375516665153
H            4.73396853948828       -1.65478993183156        1.28556578500816
H            7.32368969114027       -2.44957899059317        1.95491919876122
H            9.67522555596755       -1.69365549653641        1.78638982314835
H           10.24953974352336        0.38919480698870        0.63619508115832
H            8.50591252062036        1.80246670694083       -0.38927149236769
H            3.21232289492706       -2.29890276269952       -0.10652717470037
H            3.41825494357314       -4.28967537263406        1.19883685564648
H            3.62921939092644       -6.69963745337643        0.79427564762180
H            1.74131578110553       -7.96689965493730       -0.16757325230028
H           -0.35912989175233       -6.79606358962015       -0.72870444054708
H           -0.56498764609602       -4.37736658690862       -0.34386392043202
H           -0.75614394086846       -2.82537825818198        1.38595387860058
H            1.36589294824429        2.10918158151650        1.32729860486953
H           -0.86519599936271        3.41760170195604        2.37517956888657
H           -3.20997641465850        3.00162463932748        3.02126921470245
H           -4.20028570852450       -1.08950046174105        4.13193795393867
H           -6.56405742952896       -1.45075774556305        4.70009677813887
H           -8.28693803619673        0.12526013897209        3.89831555474202
H           -7.62694503518661        2.06143840265323        2.51605552709267
H           -5.26648509375841        2.41448780596700        1.93362343708977
H           -2.79441975139027       -1.17669930935403        2.18192037727677
H            1.78856040136693        4.00876723172245       -0.87047391328927
H            0.84018165375751        5.75085027251705       -2.17689765720224
H            0.06003205844572        8.05584828821273       -1.83709854051352
H           -1.94759703521652        8.49666391835827       -0.46975498833921
H           -3.16688794001641        6.61272870441404        0.55920050192766
H           -2.37748033062699        4.30645705688423        0.23249501271066
H           -2.23328921288320        2.66512452395560       -1.43447902620369
H           -3.46507383612560        0.24589897511062       -1.88082361558408
H           -4.05956570755724       -3.39389420434500       -4.25869208217207
H           -6.39469725451541       -4.14145503935395       -4.40328971652794

          :  Hamiltonian                  GFN2-xTB          :
         :: gradient norm              0.000051181277 Eh/a0 ::
         :: HOMO-LUMO gap              0.556358909683 eV    ::
         :: SCC energy              -160.213725767455 Eh    ::
         :: -> dispersion             -0.160935536632 Eh    ::
         :: -> Gsolv                  -0.059184021207 Eh    ::
         :: repulsion energy           3.001470659752 Eh    ::

    * Orbital Energies and Occupations

         #    Occupation            Energy/Eh            Energy/eV
      -------------------------------------------------------------
         1        2.0000           -0.6813195             -18.5396
       ...           ...                  ...                  ...
       136        2.0000           -0.4021081             -10.9419
       137        2.0000           -0.4019217             -10.9368
       138        2.0000           -0.4007861             -10.9059
       139        2.0000           -0.3998035             -10.8792
       140        2.0000           -0.3913377             -10.6488
       141        2.0000           -0.3880115             -10.5583
       142        2.0000           -0.3795770             -10.3288
       143        2.0000           -0.3763709             -10.2416
       144        2.0000           -0.3732375             -10.1563
       145        2.0000           -0.3702757             -10.0757
       146        1.9351           -0.3576868              -9.7332
       147        1.0649           -0.3526176              -9.5952
       148        1.0000           -0.2686085              -7.3092 (HOMO)
       149        0.0000           -0.2481628              -6.7529 (LUMO)
       150        0.0000           -0.2475813              -6.7370
       151                         -0.2424789              -6.5982
       152                         -0.2379389              -6.4746
       153                         -0.2340367              -6.3685
       154                         -0.2331095              -6.3432
       155                         -0.2233438              -6.0775
       156                         -0.2232147              -6.0740
       157                         -0.2218711              -6.0374
       158                         -0.2201524              -5.9907
       159                         -0.2199268              -5.9845
       ...                                ...                  ...
       291                          0.7451523              20.2766
      -------------------------------------------------------------
                  HL-Gap            0.0204457 Eh            0.5564 eV

     #   Z          covCN         q      C6AA      α(0)
     1   6 C        2.919    -0.033    28.813     8.802
     2   6 C        2.918    -0.031    28.762     8.794
     3   6 C        2.925    -0.034    28.853     8.809
     4   6 C        2.977     0.011    27.772     8.644
     5   6 C        2.976     0.002    27.978     8.676
     6   6 C        2.928    -0.040    28.991     8.830
     7   6 C        2.907    -0.050    29.239     8.866
     8   6 C        3.074     0.051    26.786     8.486
     9   7 N        2.763    -0.103    23.263     7.163
    10   6 C        3.072     0.050    26.796     8.488
    11   6 C        2.962    -0.014    28.371     8.737
    12   6 C        2.970    -0.020    28.494     8.756
    13   6 C        2.916    -0.048    29.198     8.861
    14   6 C        2.905    -0.043    29.072     8.841
    15   6 C        3.072    -0.029    28.658     8.777
    16   6 C        3.061     0.047    26.879     8.502
    17   7 N        2.760    -0.122    23.640     7.221
    18   6 C        3.070     0.054    26.722     8.476
    19   6 C        2.907    -0.058    29.446     8.898
    20   6 C        2.923    -0.040    28.982     8.828
    21   6 C        2.918    -0.040    28.994     8.830
    22   6 C        2.909    -0.042    29.031     8.835
    23   6 C        3.074    -0.016    28.323     8.726
    24   6 C        2.963    -0.035    28.858     8.811
    25   6 C        2.961    -0.021    28.535     8.762
    26   6 C        2.930    -0.065    29.605     8.923
    27   6 C        2.973    -0.001    28.057     8.689
    28   6 C        2.977     0.009    27.816     8.651
    29   6 C        2.925    -0.036    28.894     8.815
    30   6 C        2.918    -0.031    28.784     8.798
    31   6 C        2.920    -0.032    28.808     8.802
    32   6 C        2.918    -0.030    28.755     8.793
    33   6 C        2.925    -0.035    28.872     8.812
    34   6 C        2.915    -0.048    29.196     8.860
    35   6 C        3.069    -0.018    28.382     8.736
    36   6 C        3.073     0.051    26.783     8.485
    37   7 N        2.760    -0.114    23.492     7.199
    38   6 C        3.075     0.053    26.738     8.478
    39   6 C        2.907    -0.052    29.291     8.874
    40   6 C        2.929    -0.039    28.970     8.827
    41   6 C        2.976    -0.001    28.037     8.685
    42   6 C        2.977     0.010    27.778     8.645
    43   6 C        2.925    -0.035    28.878     8.813
    44   6 C        2.918    -0.031    28.770     8.796
    45   6 C        2.920    -0.033    28.827     8.805
    46   6 C        2.918    -0.031    28.777     8.797
    47   6 C        2.925    -0.035    28.878     8.813
    48   6 C        2.917    -0.037    28.922     8.819
    49   6 C        3.072    -0.018    28.378     8.734
    50   6 C        2.929    -0.060    29.486     8.905
    51   6 C        2.972     0.002    27.971     8.675
    52   6 C        2.978     0.010    27.794     8.648
    53   6 C        2.924    -0.035    28.872     8.812
    54   6 C        2.918    -0.031    28.769     8.796
    55   6 C        2.920    -0.032    28.802     8.801
    56   6 C        2.918    -0.031    28.764     8.795
    57   6 C        2.925    -0.035    28.867     8.811
    58   6 C        2.914    -0.050    29.242     8.867
    59   6 C        3.068    -0.018    28.390     8.737
    60   6 C        3.073    -0.016    28.340     8.728
    61   6 C        2.917    -0.036    28.904     8.816
    62   6 C        2.924    -0.035    28.882     8.813
    63   6 C        2.918    -0.031    28.775     8.797
    64   1 H        0.926     0.030     2.589     2.516
    65   1 H        0.926     0.030     2.589     2.516
    66   1 H        0.926     0.031     2.567     2.506
    67   1 H        0.926     0.037     2.488     2.466
    68   1 H        0.926     0.033     2.546     2.495
    69   1 H        0.860     0.170     1.270     1.765
    70   1 H        0.926     0.028     2.620     2.531
    71   1 H        0.926     0.026     2.644     2.543
    72   1 H        0.860     0.166     1.295     1.783
    73   1 H        0.926     0.025     2.653     2.547
    74   1 H        0.926     0.027     2.630     2.536
    75   1 H        0.926     0.025     2.654     2.547
    76   1 H        0.926     0.026     2.639     2.540
    77   1 H        0.926     0.026     2.650     2.546
    78   1 H        0.926     0.026     2.638     2.540
    79   1 H        0.926     0.030     2.584     2.514
    80   1 H        0.926     0.030     2.583     2.513
    81   1 H        0.926     0.031     2.574     2.509
    82   1 H        0.926     0.035     2.522     2.484
    83   1 H        0.926     0.031     2.573     2.509
    84   1 H        0.860     0.168     1.283     1.774
    85   1 H        0.926     0.031     2.569     2.506
    86   1 H        0.926     0.035     2.512     2.478
    87   1 H        0.926     0.031     2.576     2.510
    88   1 H        0.926     0.029     2.597     2.520
    89   1 H        0.926     0.029     2.603     2.523
    90   1 H        0.926     0.030     2.592     2.518
    91   1 H        0.926     0.031     2.575     2.509
    92   1 H        0.926     0.034     2.528     2.486
    93   1 H        0.926     0.031     2.566     2.505
    94   1 H        0.926     0.032     2.561     2.503
    95   1 H        0.926     0.030     2.579     2.511
    96   1 H        0.926     0.030     2.580     2.512
    97   1 H        0.926     0.031     2.573     2.508
    98   1 H        0.926     0.034     2.525     2.485
    99   1 H        0.926     0.031     2.572     2.508
   100   1 H        0.926     0.036     2.506     2.476
   101   1 H        0.926     0.033     2.549     2.497
   102   1 H        0.926     0.030     2.580     2.512

molecular dipole:
                 x           y           z       tot (Debye)
 q only:       -0.391      -0.286       0.009
   full:       -0.172      -0.363       0.084       1.042

 projected vibrational frequencies (cm⁻¹)
eigval :       -0.00    -0.00    -0.00    -0.00     0.00     0.00
eigval :       11.95    13.79    16.41    22.37    24.42    32.95
eigval :       40.13    41.96    44.41    45.56    49.31    53.90
eigval :       57.72    60.52    64.59    74.11    77.27    84.15
eigval :       94.98    98.98   111.88   128.32   135.27   138.79
eigval :      143.36   155.45   170.96   178.66   200.96   204.03
eigval :      229.38   235.66   237.03   243.49   251.50   255.03
eigval :      258.67   262.89   277.14   280.56   293.00   297.46
eigval :      315.04   320.93   334.15   350.45   360.51   370.61
eigval :      372.41   372.77   374.01   381.91   395.46   401.16
eigval :      403.16   406.82   422.05   426.77   455.49   459.47
eigval :      467.28   471.61   474.14   480.99   488.86   498.57
eigval :      503.68   512.12   515.40   519.68   528.40   533.44
eigval :      540.84   550.56   557.90   571.90   572.89   579.65
eigval :      581.10   584.79   586.53   587.97   595.10   598.18
eigval :      599.33   601.55   614.12   619.32   621.65   629.36
eigval :      634.26   643.46   663.84   666.93   670.17   671.07
eigval :      674.16   676.98   680.79   688.32   692.77   700.48
eigval :      703.18   719.64   723.82   735.47   754.47   755.66
eigval :      758.01   759.23   759.86   781.39   789.04   792.67
eigval :      819.25   820.14   820.72   828.67   843.48   846.41
eigval :      849.31   852.91   858.71   860.67   870.24   871.37
eigval :      873.91   875.08   877.73   879.87   881.42   883.03
eigval :      883.24   888.06   891.13   896.72   899.55   902.79
eigval :      903.43   904.24   906.40   909.03   910.61   926.15
eigval :      929.73   930.60   931.09   931.99   932.15   932.32
eigval :      934.70   942.37   966.52   979.13   981.49   986.91
eigval :     1007.20  1033.23  1056.75  1063.91  1065.93  1067.37
eigval :     1082.39  1082.83  1084.07  1084.98  1086.86  1089.25
eigval :     1115.51  1120.22  1120.87  1121.33  1121.69  1124.51
eigval :     1142.60  1148.18  1151.53  1161.47  1171.01  1174.87
eigval :     1176.33  1180.12  1180.74  1180.91  1181.10  1188.47
eigval :     1196.73  1198.95  1199.92  1200.89  1203.86  1214.89
eigval :     1216.85  1226.61  1228.11  1228.48  1244.66  1253.56
eigval :     1261.39  1273.44  1277.66  1280.27  1280.96  1281.55
eigval :     1283.74  1285.43  1290.92  1302.59  1306.96  1312.68
eigval :     1316.51  1316.88  1318.38  1318.79  1327.70  1342.77
eigval :     1355.48  1356.24  1361.53  1364.62  1372.04  1379.38
eigval :     1380.06  1393.58  1398.57  1411.13  1416.11  1427.39
eigval :     1428.26  1429.33  1431.13  1431.98  1434.78  1446.53
eigval :     1453.26  1456.92  1460.72  1463.78  1478.41  1482.61
eigval :     1486.18  1489.23  1496.81  1506.18  1514.91  1528.43
eigval :     1544.91  1556.94  1564.09  1569.87  1574.72  1575.04
eigval :     1577.13  1577.78  1579.11  1580.09  1586.44  1592.99
eigval :     1595.46  1597.84  1600.45  3064.19  3065.48  3065.55
eigval :     3066.04  3066.23  3067.14  3067.16  3067.85  3068.18
eigval :     3071.20  3071.41  3074.47  3075.81  3075.89  3076.03
eigval :     3076.17  3077.16  3077.40  3077.68  3080.60  3081.40
eigval :     3082.90  3083.43  3085.14  3086.50  3086.79  3087.65
eigval :     3087.92  3088.32  3088.99  3089.57  3090.16  3090.53
eigval :     3092.86  3103.96  3108.35  3467.71  3472.48  3474.57

   temp. (K)  partition function   enthalpy   heat capacity  entropy
                                   cal/mol     cal/K/mol   cal/K/mol   J/K/mol
 298.15  VIB  0.212E+23            29240.956    187.153    181.027
         ROT  0.143E+09              888.752      2.981     40.304
         INT  0.304E+31            30129.708    190.134    221.331
         TR   0.220E+29             1481.254      4.968     45.903
         TOT                       31610.9622   195.1025   267.2340  1118.1069

       T/K    H(0)-H(T)+PV         H(T)/Eh          T*S/Eh         G(T)/Eh
   ------------------------------------------------------------------------
    298.15    0.503753E-01    0.832847E+00    0.126971E+00    0.705876E+00
   ------------------------------------------------------------------------

         :::::::::::::::::::::::::::::::::::::::::::::::::::::
         ::                  THERMODYNAMIC                  ::
         :::::::::::::::::::::::::::::::::::::::::::::::::::::
         :: total free energy        -156.506379094588 Eh   ::
         ::.................................................::
         :: total energy             -157.212255106046 Eh   ::
         :: zero point energy           0.782472219885 Eh   ::
         :: G(RRHO) w/o ZPVE           -0.076596208427 Eh   ::
         :: G(RRHO) contrib.            0.705876011458 Eh   ::
         :::::::::::::::::::::::::::::::::::::::::::::::::::::

           -------------------------------------------------
          | TOTAL ENERGY             -157.212255106046 Eh   |
          | TOTAL ENTHALPY           -156.379407611402 Eh   |
          | TOTAL FREE ENERGY        -156.506379094588 Eh   |
          | GRADIENT NORM               0.000050241117 Eh/α |
          | HOMO-LUMO GAP               0.556355665014 eV   |
           -------------------------------------------------

 * finished run on 2025/07/16 at 23:26:08.677
