   * xtb version 6.7.1 (edcfbbe) compiled by 'albert@albert-system' on 2024-07-22

   ID    Z sym.   atoms
    1    6 C      1-8, 10-16, 18-36, 38-63
    2    7 N      9, 17, 37
    3    1 H      64-102

          program call               : xtb data2507/toluene/BDPCC/BDPCC.xyz --gfn 2 --gbsa toluene --ohess vtight --parallel 40 --molden --ceasefiles --namespace data2507/toluene/BDPCC/BDPCC_toluene_S0_preOpt
      * Solvation model:               GBSA
        Solvent                        toluene
        Solvent mass                       9.2140E+01 g/mol
          :  Hamiltonian                  GFN2-xTB          :
 * total energy  :  -157.2740611 Eh     change       -0.1934950E-08 Eh
 * total energy  :  -157.2908647 Eh     change       -0.1680357E-01 Eh
 * total energy  :  -157.2944377 Eh     change       -0.3573041E-02 Eh
 * total energy  :  -157.2953149 Eh     change       -0.8771928E-03 Eh
 * total energy  :  -157.2959237 Eh     change       -0.6087744E-03 Eh
 * total energy  :  -157.2962291 Eh     change       -0.3053603E-03 Eh
 * total energy  :  -157.2966070 Eh     change       -0.3779983E-03 Eh
 * total energy  :  -157.2970607 Eh     change       -0.4536957E-03 Eh
 * total energy  :  -157.2975281 Eh     change       -0.4673837E-03 Eh
 * total energy  :  -157.2979572 Eh     change       -0.4290770E-03 Eh
 * total energy  :  -157.3052814 Eh     change       -0.7308949E-06 Eh
 * total energy  :  -157.3052822 Eh     change       -0.7200576E-06 Eh
 * total energy  :  -157.3052829 Eh     change       -0.7114913E-06 Eh
 * total energy  :  -157.3052836 Eh     change       -0.7036243E-06 Eh
 * total energy  :  -157.3052843 Eh     change       -0.6980943E-06 Eh
 * total energy  :  -157.3052850 Eh     change       -0.6933211E-06 Eh
 * total energy  :  -157.3052857 Eh     change       -0.6909211E-06 Eh
 * total energy  :  -157.3052864 Eh     change       -0.6895674E-06 Eh
 * total energy  :  -157.3052864 Eh     change       -0.6853071E-08 Eh
   *** GEOMETRY OPTIMIZATION CONVERGED AFTER 420 ITERATIONS ***

 final structure:
================
102
 xtb: 6.7.1 (edcfbbe)
C           -7.97010383935452        3.96632495518871       -0.01959259254329
C           -8.26461623453056        2.61315128697241        0.01121169466018
C           -7.24738634702002        1.67821471243044       -0.04534704230391
C           -5.91634351841047        2.08006084906829       -0.13827233221554
C           -4.83402406145436        1.08467186544182       -0.20819405417537
C           -4.86092168297191       -0.03731661422415        0.63244531946575
C           -3.87665140627826       -1.00331313305939        0.59362404665989
C           -2.84309393861055       -0.84081353757200       -0.31652639861145
N           -1.76853094761442       -1.64919494872030       -0.58021464034035
C           -1.00985985755888       -1.08512231228872       -1.57214687983806
C            0.15194159484365       -1.55827438464416       -2.18208826262249
C            0.81532992269358       -2.80350087628080       -1.74942848825763
C            1.06847094618608       -3.79869304824398       -2.70184917284459
C            1.66045453598051       -4.99758592927759       -2.36564677810576
C            2.01440139852539       -5.21431426733534       -1.03925799097340
C            1.76614266277764       -4.20892350320734       -0.07573784343187
N            2.22156090852034       -4.63921014561420        1.14413520415647
C            2.75915816467126       -5.89401256147340        1.00977717765204
C            3.33377312310795       -6.71725226915721        1.96663346169148
C            3.79783137035944       -7.95218362802506        1.55543496036340
C            3.69441105538709       -8.36155120757286        0.22651384281547
C            3.12173176302536       -7.54633154454599       -0.72962842494800
C            2.64734345763590       -6.29900193645354       -0.34170599880606
C            1.17176227759709       -2.99182245550625       -0.40962744911120
C            0.97208467039912       -1.95277485190145        0.61887590811766
C            0.28942990457472       -2.22870388296696        1.79655058760023
C            0.08382160189412       -1.26972077850780        2.79568507947210
C           -0.64489509836666       -1.63443042759551        4.02126372335054
C           -0.21404017246565       -1.17553723282489        5.26484332152993
C           -0.89168773549641       -1.52124711793023        6.41935975183085
C           -2.01415854641166       -2.33035704513128        6.35387363994368
C           -2.45350576048479       -2.79156947380769        5.12403200664551
C           -1.77369133396359       -2.44949512014806        3.96977747447126
C            0.57753357168775        0.01797545264922        2.62488881012460
C            1.27431181706261        0.32534703367957        1.46613754676641
C            1.47370180250732       -0.65951995253692        0.46982244972933
N            2.23025351082596       -0.12718866465640       -0.53965953423932
C            2.51051914829927        1.18265064034262       -0.25169792377986
C            3.24051535129340        2.11306996041851       -0.97598212535977
C            3.39179599285192        3.37378846497065       -0.43693598808573
C            2.84229259578562        3.72235620203524        0.80589389368809
C            3.06154036520265        5.07304128979135        1.34839326623945
C            2.97926605312613        6.19637639317467        0.52785302908858
C            3.20032936848462        7.46198329912776        1.03916778186143
C            3.50954315292531        7.62884406153440        2.37904644399211
C            3.59220715462751        6.52008738643493        3.20527221246628
C            3.36843982799137        5.25435573124037        2.69568253464167
C            2.11014285188234        2.78522296653536        1.52452077636110
C            1.93705693520242        1.51345931806127        0.99815973435423
C            0.66285000740734       -0.80097482399895       -3.22750574669583
C            0.08676107697164        0.40631523234692       -3.64018508818199
C            0.70361498237849        1.17620750025799       -4.73235244106051
C            1.19304680812143        0.53827759190739       -5.87043686994499
C            1.77465635230619        1.26592871986797       -6.89246723126520
C            1.88148290618529        2.64346976899916       -6.79403192104161
C            1.39931529179644        3.28880146316836       -5.66705562738948
C            0.81375993025598        2.56293395030811       -4.64641613859017
C           -1.05683039188804        0.87561622005949       -3.00589554971687
C           -1.61627625560676        0.12473141574441       -1.98338793070587
C           -2.79254361728746        0.28501633839564       -1.17127392542465
C           -3.78954550278704        1.24719501385333       -1.10985185096741
C           -5.63270680763156        3.44383035552850       -0.17095196701600
C           -6.65048823916107        4.37791832745695       -0.10906931023640
H           -8.76537403559498        4.69626011602464        0.02611534988359
H           -9.29258888839553        2.28540602200475        0.07638584861024
H           -7.48530599783818        0.62401343428709       -0.03755606109561
H           -5.66936359660543       -0.13593808995951        1.34201930398250
H           -3.91418764544182       -1.85922633426969        1.25068892638491
H           -1.55326158033733       -2.50954261720055       -0.10724595667577
H            0.76966491224597       -3.61445881278397       -3.72344919063652
H            1.84358227273769       -5.75234163062937       -3.11507167218569
H            2.19788718847129       -4.09821927225078        1.99232678538863
H            3.41512206156419       -6.40252868678277        2.99664915742412
H            4.25114252276601       -8.61539250598979        2.27773384968850
H            4.06969110897397       -9.33467151033206       -0.05471926099772
H            3.04281738479331       -7.86842555347133       -1.75727786874925
H           -0.09992157329530       -3.22666075750466        1.94871695783042
H            0.67044743722259       -0.55787921575291        5.32659408034013
H           -0.54069367152558       -1.16048339156343        7.37578060564883
H           -2.54402083213886       -2.59930908305820        7.25603345908021
H           -3.33130962944050       -3.41935410562624        5.06432575189746
H           -2.13308573071675       -2.80258532652974        3.01418743708414
H            0.40739487362233        0.77351540825771        3.37634518863202
H            2.48024279005743       -0.60245890043922       -1.38961371185123
H            3.67955781758485        1.85750094997021       -1.92901271731305
H            3.97267223633458        4.10956205406788       -0.97344731960337
H            2.72290644374133        6.07582769069591       -0.51501304668284
H            3.12952871246126        8.32341601498504        0.39005509654908
H            3.68580761957112        8.61760277505729        2.77724832148544
H            3.83641290419419        6.64293475303779        4.25104706619212
H            3.45282400304839        4.39236002213408        3.34195018935252
H            1.66593746188751        3.04982682335335        2.47247527754217
H            1.56454573527635       -1.14097781214462       -3.71881896289964
H            1.09775725937905       -0.53423872294250       -5.96303123689194
H            2.14389442786078        0.75693216927985       -7.77158616315320
H            2.33750465522049        3.21138267064322       -7.59200834410224
H            1.48254039640327        4.36313185519672       -5.58254421011099
H            0.45596456886836        3.07008172495282       -3.76171563003895
H           -1.52222027345090        1.79565665447862       -3.32466957530030
H           -3.76943260351378        2.09865495973007       -1.77363977585880
H           -4.60408978351976        3.77092122916495       -0.22566425122963
H           -6.41367787085018        5.43241991013900       -0.12904985879558

          :  Hamiltonian                  GFN2-xTB          :
         :: gradient norm              0.000075647903 Eh/a0 ::
         :: HOMO-LUMO gap              2.733997505506 eV    ::
         :: SCC energy              -160.329715514312 Eh    ::
         :: -> dispersion             -0.149526743142 Eh    ::
         :: -> Gsolv                  -0.063355439319 Eh    ::
         :: repulsion energy           3.024429154959 Eh    ::

    * Orbital Energies and Occupations

         #    Occupation            Energy/Eh            Energy/eV
      -------------------------------------------------------------
         1        2.0000           -0.6797876             -18.4980
       ...           ...                  ...                  ...
       135        2.0000           -0.4025137             -10.9530
       136        2.0000           -0.4012254             -10.9179
       137        2.0000           -0.4005935             -10.9007
       138        2.0000           -0.4002875             -10.8924
       139        2.0000           -0.3992615             -10.8645
       140        2.0000           -0.3909170             -10.6374
       141        2.0000           -0.3906109             -10.6291
       142        2.0000           -0.3788342             -10.3086
       143        2.0000           -0.3786429             -10.3034
       144        2.0000           -0.3762160             -10.2374
       145        2.0000           -0.3703052             -10.0765
       146        2.0000           -0.3600276              -9.7968
       147        2.0000           -0.3593415              -9.7782 (HOMO)
       148                         -0.2588689              -7.0442 (LUMO)
       149                         -0.2467656              -6.7148
       150                         -0.2459943              -6.6938
       151                         -0.2429570              -6.6112
       152                         -0.2387620              -6.4970
       153                         -0.2329256              -6.3382
       154                         -0.2310234              -6.2865
       155                         -0.2257662              -6.1434
       156                         -0.2227792              -6.0621
       157                         -0.2206252              -6.0035
       158                         -0.2193335              -5.9684
       ...                                ...                  ...
       291                          0.7479263              20.3521
      -------------------------------------------------------------
                  HL-Gap            0.1004726 Eh            2.7340 eV

     #   Z          covCN         q      C6AA      α(0)
     1   6 C        2.920    -0.034    28.845     8.807
     2   6 C        2.918    -0.032    28.789     8.799
     3   6 C        2.925    -0.036    28.900     8.816
     4   6 C        2.977     0.010    27.793     8.648
     5   6 C        2.976    -0.003    28.099     8.695
     6   6 C        2.929    -0.038    28.940     8.822
     7   6 C        2.908    -0.055    29.375     8.887
     8   6 C        3.075     0.054    26.710     8.474
     9   7 N        2.756    -0.122    23.657     7.224
    10   6 C        3.077     0.050    26.801     8.488
    11   6 C        2.967    -0.016    28.417     8.744
    12   6 C        2.980    -0.007    28.185     8.709
    13   6 C        2.924    -0.049    29.222     8.865
    14   6 C        2.910    -0.037    28.922     8.818
    15   6 C        3.071    -0.020    28.435     8.743
    16   6 C        3.074     0.047    26.860     8.497
    17   7 N        2.755    -0.121    23.638     7.221
    18   6 C        3.074     0.054    26.713     8.474
    19   6 C        2.909    -0.056    29.386     8.889
    20   6 C        2.924    -0.034    28.841     8.807
    21   6 C        2.920    -0.043    29.067     8.841
    22   6 C        2.912    -0.034    28.858     8.809
    23   6 C        3.072    -0.018    28.382     8.735
    24   6 C        2.969    -0.028    28.697     8.787
    25   6 C        2.964    -0.019    28.479     8.753
    26   6 C        2.933    -0.054    29.342     8.884
    27   6 C        2.974    -0.005    28.148     8.703
    28   6 C        2.976     0.009    27.820     8.652
    29   6 C        2.925    -0.036    28.899     8.816
    30   6 C        2.918    -0.031    28.770     8.796
    31   6 C        2.920    -0.033    28.824     8.804
    32   6 C        2.918    -0.031    28.781     8.798
    33   6 C        2.925    -0.036    28.890     8.815
    34   6 C        2.917    -0.041    29.010     8.832
    35   6 C        3.069    -0.018    28.386     8.736
    36   6 C        3.079     0.049    26.807     8.488
    37   7 N        2.755    -0.123    23.661     7.224
    38   6 C        3.077     0.054    26.704     8.472
    39   6 C        2.908    -0.055    29.362     8.885
    40   6 C        2.929    -0.037    28.924     8.820
    41   6 C        2.976    -0.003    28.089     8.694
    42   6 C        2.977     0.010    27.793     8.648
    43   6 C        2.925    -0.036    28.896     8.815
    44   6 C        2.918    -0.031    28.785     8.798
    45   6 C        2.920    -0.034    28.842     8.807
    46   6 C        2.918    -0.031    28.785     8.798
    47   6 C        2.925    -0.036    28.896     8.815
    48   6 C        2.917    -0.038    28.954     8.824
    49   6 C        3.069    -0.018    28.394     8.737
    50   6 C        2.934    -0.049    29.216     8.865
    51   6 C        2.975    -0.005    28.132     8.700
    52   6 C        2.977     0.009    27.809     8.650
    53   6 C        2.925    -0.036    28.906     8.817
    54   6 C        2.918    -0.032    28.790     8.799
    55   6 C        2.920    -0.034    28.837     8.806
    56   6 C        2.918    -0.031    28.773     8.796
    57   6 C        2.925    -0.035    28.884     8.814
    58   6 C        2.917    -0.041    29.012     8.833
    59   6 C        3.069    -0.018    28.395     8.738
    60   6 C        3.070    -0.018    28.392     8.737
    61   6 C        2.917    -0.038    28.954     8.824
    62   6 C        2.925    -0.036    28.891     8.815
    63   6 C        2.918    -0.031    28.784     8.798
    64   1 H        0.926     0.028     2.608     2.526
    65   1 H        0.926     0.029     2.601     2.522
    66   1 H        0.926     0.030     2.580     2.512
    67   1 H        0.926     0.034     2.529     2.487
    68   1 H        0.926     0.029     2.599     2.521
    69   1 H        0.860     0.165     1.306     1.790
    70   1 H        0.926     0.031     2.569     2.507
    71   1 H        0.926     0.034     2.537     2.491
    72   1 H        0.860     0.164     1.312     1.794
    73   1 H        0.926     0.029     2.602     2.523
    74   1 H        0.926     0.031     2.569     2.507
    75   1 H        0.926     0.029     2.606     2.524
    76   1 H        0.926     0.032     2.563     2.504
    77   1 H        0.925     0.028     2.619     2.531
    78   1 H        0.926     0.031     2.566     2.505
    79   1 H        0.926     0.030     2.588     2.516
    80   1 H        0.926     0.029     2.594     2.519
    81   1 H        0.926     0.030     2.592     2.517
    82   1 H        0.926     0.027     2.629     2.535
    83   1 H        0.926     0.035     2.523     2.484
    84   1 H        0.860     0.166     1.294     1.782
    85   1 H        0.926     0.029     2.594     2.519
    86   1 H        0.926     0.035     2.517     2.481
    87   1 H        0.926     0.031     2.576     2.510
    88   1 H        0.926     0.029     2.601     2.522
    89   1 H        0.926     0.028     2.608     2.525
    90   1 H        0.926     0.029     2.601     2.522
    91   1 H        0.926     0.031     2.579     2.511
    92   1 H        0.926     0.034     2.528     2.486
    93   1 H        0.925     0.030     2.587     2.515
    94   1 H        0.926     0.030     2.581     2.512
    95   1 H        0.926     0.029     2.598     2.521
    96   1 H        0.926     0.029     2.605     2.524
    97   1 H        0.926     0.029     2.599     2.521
    98   1 H        0.926     0.030     2.584     2.514
    99   1 H        0.926     0.033     2.540     2.492
   100   1 H        0.926     0.033     2.541     2.493
   101   1 H        0.926     0.030     2.584     2.514
   102   1 H        0.926     0.029     2.602     2.523

molecular dipole:
                 x           y           z       tot (Debye)
 q only:        0.371      -0.596       0.242
   full:        0.446      -0.723       0.348       2.333

 projected vibrational frequencies (cm⁻¹)
eigval :       -0.00    -0.00     0.00     0.00     0.00     0.00
eigval :        7.09    11.05    14.03    20.18    23.89    35.70
eigval :       39.94    42.17    43.19    44.60    47.96    50.35
eigval :       57.45    59.46    65.89    71.29    77.95    81.28
eigval :       89.51    98.95   111.07   119.99   130.60   133.49
eigval :      144.97   161.48   170.07   178.18   200.04   202.74
eigval :      223.35   237.69   249.10   250.93   252.36   254.85
eigval :      258.92   264.92   272.17   277.88   300.77   309.68
eigval :      311.99   326.79   340.62   361.48   371.22   373.76
eigval :      374.82   375.18   375.49   385.82   389.28   406.03
eigval :      411.40   417.70   420.75   424.16   452.50   457.88
eigval :      461.46   467.00   474.54   475.96   482.92   487.49
eigval :      495.41   508.90   510.27   522.71   536.23   540.62
eigval :      545.89   559.41   564.42   574.67   577.04   582.05
eigval :      584.06   586.07   588.68   591.57   597.36   604.98
eigval :      611.01   615.30   622.63   625.15   631.67   637.00
eigval :      647.30   651.16   669.01   671.91   674.29   675.39
eigval :      682.10   689.82   696.92   697.58   710.88   712.60
eigval :      714.47   724.15   729.15   746.85   757.03   757.70
eigval :      760.89   761.67   770.22   791.78   818.15   821.49
eigval :      829.20   833.82   845.21   854.16   855.50   859.48
eigval :      864.12   865.91   869.35   870.66   875.10   876.71
eigval :      877.52   878.78   880.91   882.13   885.22   893.85
eigval :      897.54   898.93   900.17   900.87   901.78   905.49
eigval :      906.34   907.87   909.00   913.87   919.09   929.55
eigval :      930.74   931.12   931.24   932.29   932.44   933.78
eigval :      934.33   948.51   972.07   982.31   983.01   988.79
eigval :     1014.85  1048.60  1065.93  1067.94  1070.98  1083.12
eigval :     1084.22  1084.66  1086.15  1088.50  1091.23  1095.19
eigval :     1119.82  1120.62  1121.36  1122.77  1135.87  1142.80
eigval :     1151.30  1155.32  1161.23  1167.78  1174.37  1178.93
eigval :     1179.96  1180.90  1181.74  1182.99  1187.34  1199.46
eigval :     1200.64  1201.61  1202.45  1213.30  1217.01  1219.35
eigval :     1228.31  1228.98  1230.64  1245.53  1258.46  1273.00
eigval :     1277.37  1281.04  1281.34  1281.82  1282.33  1289.41
eigval :     1291.78  1311.01  1313.50  1313.68  1314.46  1317.43
eigval :     1317.87  1317.97  1318.97  1332.71  1335.33  1344.71
eigval :     1352.39  1358.67  1368.18  1375.66  1376.28  1392.68
eigval :     1401.12  1410.11  1422.94  1423.54  1428.89  1429.01
eigval :     1430.41  1432.48  1432.88  1464.47  1465.44  1465.92
eigval :     1470.57  1486.65  1491.43  1495.20  1495.39  1496.92
eigval :     1503.44  1562.20  1570.07  1570.74  1575.34  1576.56
eigval :     1580.65  1580.98  1581.64  1582.82  1583.67  1589.66
eigval :     1590.92  1594.39  1597.23  1597.41  1601.13  1601.56
eigval :     1613.32  1614.19  1614.66  3062.74  3063.41  3064.39
eigval :     3064.93  3065.28  3065.54  3065.65  3065.78  3067.69
eigval :     3067.71  3071.37  3073.59  3074.32  3074.88  3075.17
eigval :     3075.19  3075.23  3076.32  3077.18  3077.52  3078.57
eigval :     3078.65  3079.16  3081.93  3083.29  3083.45  3085.71
eigval :     3086.55  3087.16  3088.17  3088.29  3088.40  3090.58
eigval :     3090.83  3092.96  3093.60  3474.91  3486.39  3489.71

   temp. (K)  partition function   enthalpy   heat capacity  entropy
                                   cal/mol     cal/K/mol   cal/K/mol   J/K/mol
 298.15  VIB  0.608E+23            29086.893    185.311    181.337
         ROT  0.169E+09              888.752      2.981     40.625
         INT  0.103E+32            29975.646    188.292    221.962
         TR   0.220E+29             1481.254      4.968     45.903
         TOT                       31456.8997   193.2599   267.8654  1120.7486

       T/K    H(0)-H(T)+PV         H(T)/Eh          T*S/Eh         G(T)/Eh
   ------------------------------------------------------------------------
    298.15    0.501298E-01    0.837049E+00    0.127271E+00    0.709778E+00
   ------------------------------------------------------------------------

         :::::::::::::::::::::::::::::::::::::::::::::::::::::
         ::                  THERMODYNAMIC                  ::
         :::::::::::::::::::::::::::::::::::::::::::::::::::::
         :: total free energy        -156.595508521309 Eh   ::
         ::.................................................::
         :: total energy             -157.305286357580 Eh   ::
         :: zero point energy           0.786919549789 Eh   ::
         :: G(RRHO) w/o ZPVE           -0.077141713518 Eh   ::
         :: G(RRHO) contrib.            0.709777836271 Eh   ::
         :::::::::::::::::::::::::::::::::::::::::::::::::::::

           -------------------------------------------------
          | TOTAL ENERGY             -157.305286357580 Eh   |
          | TOTAL ENTHALPY           -156.468237047174 Eh   |
          | TOTAL FREE ENERGY        -156.595508521309 Eh   |
          | GRADIENT NORM               0.000075646937 Eh/α |
          | HOMO-LUMO GAP               2.733997509394 eV   |
           -------------------------------------------------

 * finished run on 2025/07/16 at 23:18:51.902
