   * xtb version 6.7.1 (edcfbbe) compiled by 'albert@albert-system' on 2024-07-22

   ID    Z sym.   atoms
    1    6 C      1-8, 10-16, 18-36, 38-63
    2    7 N      9, 17, 37
    3    1 H      64-102

          program call               : xtb data2507/toluene/BDPCC/BDPCC_toluene_T1_crest.xyz --gfn 2 --uhf 2 --gbsa toluene --ohess vtight --parallel 40 --molden --ceasefiles --namespace data2507/toluene/BDPCC/BDPCC_toluene_T1_finalOpt
      * Solvation model:               GBSA
        Solvent                        toluene
        Solvent mass                       9.2140E+01 g/mol
          :  Hamiltonian                  GFN2-xTB          :
 * total energy  :  -157.2109521 Eh     change       -0.4622535E-08 Eh
 * total energy  :  -157.2110420 Eh     change       -0.8988436E-04 Eh
 * total energy  :  -157.2111377 Eh     change       -0.9568540E-04 Eh
 * total energy  :  -157.2111730 Eh     change       -0.3533177E-04 Eh
 * total energy  :  -157.2112538 Eh     change       -0.8073882E-04 Eh
 * total energy  :  -157.2112924 Eh     change       -0.3864355E-04 Eh
 * total energy  :  -157.2113130 Eh     change       -0.2056445E-04 Eh
 * total energy  :  -157.2113519 Eh     change       -0.3892790E-04 Eh
 * total energy  :  -157.2113715 Eh     change       -0.1959898E-04 Eh
 * total energy  :  -157.2113976 Eh     change       -0.2607028E-04 Eh
 * total energy  :  -157.2122372 Eh     change       -0.5507813E-05 Eh
 * total energy  :  -157.2122411 Eh     change       -0.3852420E-05 Eh
 * total energy  :  -157.2122438 Eh     change       -0.2768739E-05 Eh
 * total energy  :  -157.2122470 Eh     change       -0.3109009E-05 Eh
 * total energy  :  -157.2122495 Eh     change       -0.2533803E-05 Eh
 * total energy  :  -157.2122512 Eh     change       -0.1717127E-05 Eh
 * total energy  :  -157.2122525 Eh     change       -0.1264182E-05 Eh
 * total energy  :  -157.2122533 Eh     change       -0.8131044E-06 Eh
 * total energy  :  -157.2122534 Eh     change       -0.9127129E-07 Eh
   *** GEOMETRY OPTIMIZATION CONVERGED AFTER 94 ITERATIONS ***

 final structure:
================
102
 xtb: 6.7.1 (edcfbbe)
C           -6.90530091191220       -3.29123924427665       -2.64407672991076
C           -6.53180971562870       -2.42947271731888       -1.62552539725795
C           -5.23177763821207       -1.96587299577720       -1.54751451328000
C           -4.27716160871452       -2.36093601664031       -2.48455190776514
C           -2.89275430424861       -1.87468224976493       -2.39235967626116
C           -1.82266425201386       -2.75059903839191       -2.63959054740011
C           -0.50724697558061       -2.34546853291567       -2.53567504468293
C           -0.26413266614445       -1.03021470348898       -2.17177759857303
N            0.92067096483274       -0.37694715147919       -1.96183328506930
C            0.67620330482234        0.90199518306172       -1.55319127981734
C            1.59911858326414        1.92068053125121       -1.18630236135051
C            2.94758217446758        1.67041780947920       -0.77778835947840
C            3.96505805515207        2.59820892015318       -1.09688183126049
C            5.28952224252084        2.34912030528347       -0.87493154830218
C            5.66011035239174        1.13568694594496       -0.24510388124616
C            4.65754441556916        0.22007106280314        0.14735137909972
N            5.26166278608127       -0.81854592058675        0.82001496555016
C            6.61169537057475       -0.60678765251530        0.87433740944247
C            7.60850517542338       -1.37662320253531        1.44845159072360
C            8.91161450546621       -0.91918738904424        1.35023925073878
C            9.21176502662171        0.27991654774893        0.69480408248681
C            8.22725959141048        1.05472901066313        0.12359644892786
C            6.90080003695933        0.61703401028199        0.20219886240083
C            3.29669734099610        0.45369451222288       -0.04830900014785
C            2.28161849146496       -0.41283044785152        0.50256429090979
C            2.37097455024700       -1.81294471818587        0.38510026433990
C            1.31967053049890       -2.67102611230090        0.68922104104374
C            1.46721377844142       -4.11507805429412        0.46153908740879
C            2.65579523079209       -4.77513322027260        0.77109593428807
C            2.78893781211486       -6.13328848289627        0.55031873664639
C            1.73897884974530       -6.85767399845946        0.00995688216031
C            0.55271412401067       -6.21347738791518       -0.30295697995038
C            0.41594890352124       -4.85678470769342       -0.07703831544547
C            0.10306167481157       -2.15536751121110        1.15379615266733
C           -0.00445607872773       -0.78774239129832        1.35452059757079
C            1.08145768893476        0.07134195444625        1.07215490869962
N            0.75791796849374        1.33744054245970        1.47343553244918
C           -0.54104879840733        1.36173102876977        1.90896257904888
C           -1.31598972511434        2.42471668017305        2.34544912471473
C           -2.62822375915952        2.16631155915188        2.68725981978385
C           -3.17462379992621        0.87469518678775        2.62052338129780
C           -4.58946436101089        0.65240770575426        2.95597302658149
C           -4.98549774541285       -0.47542734059187        3.67375000465131
C           -6.31807814890485       -0.69168351189759        3.97192748652994
C           -7.28196903786219        0.21193223682991        3.55513873184601
C           -6.90180999339732        1.33623767686085        2.84067716146159
C           -5.56916453988068        1.55516642453912        2.54447954037651
C           -2.37806403031542       -0.19150168572363        2.21716982685043
C           -1.06251194942565        0.04732813969345        1.85409429493387
C            1.04040148025223        3.22145223120134       -1.11401170785582
C           -0.32016235814114        3.46543713575834       -1.18381332613163
C           -0.82745886541979        4.83026322381924       -0.99335746553200
C           -0.17798549225665        5.92282526960070       -1.56749509016568
C           -0.65994298184143        7.20538837248233       -1.38443368536245
C           -1.79418577273918        7.42168831820082       -0.61834424278191
C           -2.44664331278706        6.34435839703181       -0.04032930229719
C           -1.97152196791566        5.06035847305222       -0.22930834676034
C           -1.22713175252791        2.40644074752383       -1.38610957400163
C           -0.71536102032407        1.13541743638562       -1.60035307024277
C           -1.32604935972865       -0.12000817744596       -1.94495430587532
C           -2.63819323988713       -0.54961639037486       -2.05210285388616
C           -4.66559685272021       -3.22857447757296       -3.50463292457080
C           -5.96773832925725       -3.68618702826522       -3.58466170265940
H           -7.92168401987603       -3.65228476348386       -2.70553588232320
H           -7.25603638160037       -2.11886017414231       -0.88569257448784
H           -4.94680425103645       -1.30619556924320       -0.74060852614266
H           -2.03868437355539       -3.77857116980872       -2.89037108817610
H            0.30496460204852       -3.03539505856049       -2.71009551530095
H            1.83140000899979       -0.80242313026569       -2.01309374206694
H            3.68051638100390        3.50177082775008       -1.61566311566902
H            6.04876845409251        3.05328285143247       -1.17757614923223
H            4.77124692232659       -1.55876338582954        1.29298986028368
H            7.37774590166055       -2.30110045638670        1.95749122838279
H            9.71284792073758       -1.49693162384823        1.78673246978933
H           10.24259349378852        0.60005469499948        0.64064644941022
H            8.46842022033051        1.97942182111222       -0.37903230715309
H            3.24982403880699       -2.23199370281226       -0.08484988055219
H            3.47464806270758       -4.22358418556191        1.21038154615345
H            3.71497790789998       -6.63015826272634        0.80270577682969
H            1.84422999587167       -7.91851208426784       -0.16459383091369
H           -0.26926570455497       -6.77194524029595       -0.72771767538666
H           -0.50432186139042       -4.35658978156601       -0.34060065780963
H           -0.72195039658830       -2.81105519131532        1.38000608448234
H            1.33899485828491        2.14896257689132        1.34646955397652
H           -0.91095674654038        3.42430922995703        2.40020812173986
H           -3.25197638523750        2.97816815295964        3.03147609958265
H           -4.23857241566441       -1.17681101327984        4.01691448239472
H           -6.60690784845360       -1.56841729756042        4.53428973938495
H           -8.32332866346755        0.04160764064468        3.78713339383057
H           -7.64896761437749        2.04353291852560        2.50917046900118
H           -5.28484680238342        2.42453772915824        1.96914420810415
H           -2.78910397763972       -1.18742957766703        2.14866899200606
H            1.69671457878464        4.04232224590392       -0.86609983310477
H            0.69746768756209        5.75919899233740       -2.17942631491549
H           -0.15046104016451        8.04105309731642       -1.84289512961318
H           -2.16830270957754        8.42474125044073       -0.47368220234688
H           -3.32953914291746        6.50771473320897        0.56129511621589
H           -2.47241173803425        4.22451377138035        0.23679307669075
H           -2.28732317184674        2.59184955210178       -1.43557354209808
H           -3.45341199795877        0.13724739348447       -1.88226976251415
H           -3.94515468307488       -3.52693972069560       -4.25267438386711
H           -6.25415345126290       -4.35267866266923       -4.38588030390326

          :  Hamiltonian                  GFN2-xTB          :
         :: gradient norm              0.000075345553 Eh/a0 ::
         :: HOMO-LUMO gap              0.557221010546 eV    ::
         :: SCC energy              -160.213565870502 Eh    ::
         :: -> dispersion             -0.161235894791 Eh    ::
         :: -> Gsolv                  -0.059081747017 Eh    ::
         :: repulsion energy           3.001312381014 Eh    ::

    * Orbital Energies and Occupations

         #    Occupation            Energy/Eh            Energy/eV
      -------------------------------------------------------------
         1        2.0000           -0.6812598             -18.5380
       ...           ...                  ...                  ...
       136        2.0000           -0.4020463             -10.9402
       137        2.0000           -0.4018837             -10.9358
       138        2.0000           -0.4007387             -10.9047
       139        2.0000           -0.3997466             -10.8777
       140        2.0000           -0.3912482             -10.6464
       141        2.0000           -0.3879158             -10.5557
       142        2.0000           -0.3796236             -10.3301
       143        2.0000           -0.3762572             -10.2385
       144        2.0000           -0.3731490             -10.1539
       145        2.0000           -0.3701937             -10.0735
       146        1.9403           -0.3576404              -9.7319
       147        1.0597           -0.3524038              -9.5894
       148        1.0000           -0.2686408              -7.3101 (HOMO)
       149        0.0000           -0.2481628              -6.7529 (LUMO)
       150        0.0000           -0.2478327              -6.7439
       151                         -0.2424946              -6.5986
       152                         -0.2379319              -6.4745
       153                         -0.2343934              -6.3782
       154                         -0.2331498              -6.3443
       155                         -0.2233679              -6.0781
       156                         -0.2231787              -6.0730
       157                         -0.2218366              -6.0365
       158                         -0.2200811              -5.9887
       159                         -0.2198841              -5.9834
       ...                                ...                  ...
       291                          0.7451803              20.2774
      -------------------------------------------------------------
                  HL-Gap            0.0204781 Eh            0.5572 eV

     #   Z          covCN         q      C6AA      α(0)
     1   6 C        2.919    -0.033    28.814     8.803
     2   6 C        2.918    -0.031    28.762     8.795
     3   6 C        2.925    -0.034    28.854     8.809
     4   6 C        2.976     0.011    27.772     8.644
     5   6 C        2.976     0.002    27.982     8.677
     6   6 C        2.928    -0.040    28.990     8.830
     7   6 C        2.907    -0.050    29.238     8.866
     8   6 C        3.074     0.051    26.785     8.486
     9   7 N        2.763    -0.104    23.269     7.164
    10   6 C        3.072     0.051    26.790     8.487
    11   6 C        2.962    -0.014    28.370     8.737
    12   6 C        2.970    -0.020    28.495     8.756
    13   6 C        2.916    -0.048    29.199     8.861
    14   6 C        2.905    -0.043    29.073     8.841
    15   6 C        3.072    -0.030    28.659     8.778
    16   6 C        3.061     0.047    26.881     8.502
    17   7 N        2.760    -0.121    23.638     7.221
    18   6 C        3.070     0.054    26.725     8.477
    19   6 C        2.907    -0.058    29.445     8.898
    20   6 C        2.923    -0.040    28.983     8.829
    21   6 C        2.918    -0.040    28.995     8.830
    22   6 C        2.909    -0.042    29.031     8.835
    23   6 C        3.074    -0.016    28.324     8.726
    24   6 C        2.963    -0.035    28.858     8.811
    25   6 C        2.961    -0.021    28.532     8.761
    26   6 C        2.930    -0.064    29.601     8.923
    27   6 C        2.973    -0.001    28.053     8.688
    28   6 C        2.977     0.009    27.815     8.651
    29   6 C        2.925    -0.036    28.894     8.815
    30   6 C        2.918    -0.031    28.785     8.798
    31   6 C        2.920    -0.032    28.807     8.802
    32   6 C        2.918    -0.030    28.754     8.793
    33   6 C        2.925    -0.035    28.871     8.812
    34   6 C        2.915    -0.048    29.198     8.861
    35   6 C        3.069    -0.018    28.378     8.735
    36   6 C        3.074     0.051    26.779     8.485
    37   7 N        2.760    -0.114    23.483     7.197
    38   6 C        3.075     0.053    26.739     8.478
    39   6 C        2.907    -0.052    29.289     8.874
    40   6 C        2.929    -0.039    28.972     8.827
    41   6 C        2.976    -0.001    28.038     8.686
    42   6 C        2.976     0.010    27.780     8.646
    43   6 C        2.925    -0.035    28.880     8.813
    44   6 C        2.918    -0.031    28.771     8.796
    45   6 C        2.919    -0.033    28.827     8.805
    46   6 C        2.918    -0.031    28.778     8.797
    47   6 C        2.925    -0.035    28.881     8.813
    48   6 C        2.917    -0.037    28.920     8.819
    49   6 C        3.072    -0.018    28.377     8.734
    50   6 C        2.929    -0.060    29.483     8.905
    51   6 C        2.972     0.002    27.970     8.675
    52   6 C        2.978     0.010    27.793     8.648
    53   6 C        2.924    -0.035    28.872     8.812
    54   6 C        2.918    -0.031    28.769     8.796
    55   6 C        2.920    -0.032    28.802     8.801
    56   6 C        2.918    -0.031    28.763     8.795
    57   6 C        2.925    -0.035    28.866     8.811
    58   6 C        2.914    -0.050    29.242     8.867
    59   6 C        3.068    -0.018    28.387     8.736
    60   6 C        3.073    -0.016    28.341     8.729
    61   6 C        2.917    -0.036    28.903     8.816
    62   6 C        2.924    -0.035    28.883     8.813
    63   6 C        2.918    -0.031    28.776     8.797
    64   1 H        0.926     0.030     2.590     2.517
    65   1 H        0.926     0.030     2.590     2.517
    66   1 H        0.926     0.031     2.568     2.506
    67   1 H        0.926     0.037     2.487     2.466
    68   1 H        0.926     0.033     2.548     2.496
    69   1 H        0.860     0.170     1.271     1.766
    70   1 H        0.926     0.028     2.621     2.532
    71   1 H        0.926     0.026     2.645     2.543
    72   1 H        0.860     0.166     1.296     1.783
    73   1 H        0.926     0.025     2.653     2.547
    74   1 H        0.926     0.027     2.630     2.536
    75   1 H        0.926     0.025     2.655     2.548
    76   1 H        0.926     0.026     2.640     2.541
    77   1 H        0.926     0.025     2.651     2.546
    78   1 H        0.926     0.026     2.637     2.539
    79   1 H        0.926     0.030     2.584     2.514
    80   1 H        0.926     0.030     2.582     2.513
    81   1 H        0.926     0.031     2.574     2.509
    82   1 H        0.926     0.035     2.521     2.483
    83   1 H        0.926     0.031     2.573     2.508
    84   1 H        0.860     0.168     1.283     1.774
    85   1 H        0.926     0.031     2.569     2.507
    86   1 H        0.926     0.036     2.508     2.476
    87   1 H        0.926     0.031     2.574     2.509
    88   1 H        0.926     0.029     2.598     2.521
    89   1 H        0.926     0.029     2.604     2.523
    90   1 H        0.926     0.029     2.593     2.518
    91   1 H        0.926     0.031     2.572     2.508
    92   1 H        0.926     0.034     2.524     2.484
    93   1 H        0.926     0.031     2.568     2.506
    94   1 H        0.926     0.032     2.562     2.503
    95   1 H        0.926     0.030     2.579     2.511
    96   1 H        0.926     0.030     2.580     2.512
    97   1 H        0.926     0.031     2.574     2.509
    98   1 H        0.926     0.034     2.525     2.485
    99   1 H        0.926     0.031     2.573     2.509
   100   1 H        0.926     0.036     2.507     2.476
   101   1 H        0.926     0.033     2.549     2.497
   102   1 H        0.926     0.030     2.581     2.512

molecular dipole:
                 x           y           z       tot (Debye)
 q only:       -0.374      -0.294       0.018
   full:       -0.151      -0.366       0.092       1.033

 projected vibrational frequencies (cm⁻¹)
eigval :       -0.00    -0.00    -0.00    -0.00     0.00     0.00
eigval :        6.15    13.86    15.22    21.88    25.21    37.67
eigval :       40.99    42.21    43.90    45.06    49.09    53.40
eigval :       56.78    59.27    65.54    72.86    77.79    82.31
eigval :       94.03    98.16   112.30   127.46   136.51   138.73
eigval :      143.30   155.64   171.29   179.00   200.86   203.98
eigval :      227.35   235.55   237.00   242.60   251.18   254.11
eigval :      258.70   262.48   277.07   280.81   293.45   298.65
eigval :      317.96   320.84   334.76   350.69   360.36   370.48
eigval :      371.10   373.65   377.29   380.88   394.66   400.88
eigval :      403.05   406.81   421.58   426.48   455.15   460.02
eigval :      468.98   472.53   474.71   481.16   489.27   498.40
eigval :      503.62   512.08   515.44   519.33   528.50   533.51
eigval :      541.35   550.32   557.76   571.90   572.72   579.84
eigval :      580.83   584.63   586.52   587.93   594.91   598.04
eigval :      598.95   601.53   614.05   619.23   621.41   629.50
eigval :      634.13   643.78   663.86   666.65   671.02   672.60
eigval :      673.93   677.00   680.65   688.46   692.67   700.13
eigval :      702.76   719.65   723.85   735.64   755.25   756.87
eigval :      757.56   757.57   758.90   781.53   789.35   793.75
eigval :      805.71   820.33   820.80   827.31   843.87   847.66
eigval :      849.38   852.64   858.60   860.65   870.24   872.30
eigval :      873.83   875.15   877.27   879.48   881.90   883.00
eigval :      883.07   887.14   891.61   897.86   900.40   901.58
eigval :      903.32   903.82   907.22   907.78   910.14   929.45
eigval :      929.62   930.18   930.90   931.58   932.25   933.24
eigval :      934.27   942.41   966.45   979.25   981.26   986.80
eigval :     1007.10  1033.12  1057.25  1064.07  1065.91  1067.36
eigval :     1082.35  1082.60  1083.87  1084.97  1086.90  1089.51
eigval :     1115.15  1120.09  1120.68  1121.48  1121.82  1124.45
eigval :     1144.17  1148.27  1151.76  1161.47  1171.66  1174.97
eigval :     1177.56  1179.95  1180.04  1181.28  1181.97  1188.14
eigval :     1197.16  1198.28  1200.07  1200.42  1204.47  1215.14
eigval :     1217.40  1226.95  1227.84  1229.66  1245.03  1254.07
eigval :     1261.31  1273.16  1277.69  1280.35  1280.96  1281.81
eigval :     1283.67  1285.14  1290.77  1302.73  1307.14  1312.59
eigval :     1316.46  1317.01  1318.43  1318.85  1327.71  1342.85
eigval :     1355.56  1356.63  1361.62  1364.53  1372.47  1379.55
eigval :     1380.27  1393.89  1398.78  1411.32  1416.06  1427.21
eigval :     1428.03  1429.54  1431.13  1431.96  1434.78  1446.34
eigval :     1453.50  1456.82  1460.74  1464.53  1478.05  1482.54
eigval :     1486.05  1488.91  1496.96  1506.36  1514.62  1529.10
eigval :     1544.72  1557.21  1564.10  1569.41  1574.87  1574.99
eigval :     1576.93  1577.84  1578.89  1580.33  1585.73  1592.79
eigval :     1595.40  1598.03  1600.60  3064.51  3065.61  3065.83
eigval :     3065.97  3066.08  3066.73  3067.35  3067.48  3068.07
eigval :     3071.18  3071.91  3075.16  3075.82  3075.89  3076.18
eigval :     3076.39  3077.18  3077.65  3078.59  3080.59  3081.23
eigval :     3081.76  3082.63  3085.98  3086.38  3086.70  3087.67
eigval :     3088.10  3088.68  3088.98  3089.08  3089.41  3090.72
eigval :     3092.92  3103.90  3108.07  3469.25  3473.02  3474.38

   temp. (K)  partition function   enthalpy   heat capacity  entropy
                                   cal/mol     cal/K/mol   cal/K/mol   J/K/mol
 298.15  VIB  0.407E+23            29250.304    187.187    181.796
         ROT  0.143E+09              888.752      2.981     40.296
         INT  0.581E+31            30139.056    190.168    222.092
         TR   0.220E+29             1481.254      4.968     45.903
         TOT                       31620.3099   195.1360   267.9950  1121.2909

       T/K    H(0)-H(T)+PV         H(T)/Eh          T*S/Eh         G(T)/Eh
   ------------------------------------------------------------------------
    298.15    0.503902E-01    0.832854E+00    0.127333E+00    0.705521E+00
   ------------------------------------------------------------------------

         :::::::::::::::::::::::::::::::::::::::::::::::::::::
         ::                  THERMODYNAMIC                  ::
         :::::::::::::::::::::::::::::::::::::::::::::::::::::
         :: total free energy        -156.506732241255 Eh   ::
         ::.................................................::
         :: total energy             -157.212253485738 Eh   ::
         :: zero point energy           0.782464130128 Eh   ::
         :: G(RRHO) w/o ZPVE           -0.076942885646 Eh   ::
         :: G(RRHO) contrib.            0.705521244483 Eh   ::
         :::::::::::::::::::::::::::::::::::::::::::::::::::::

           -------------------------------------------------
          | TOTAL ENERGY             -157.212253485738 Eh   |
          | TOTAL ENTHALPY           -156.379399184348 Eh   |
          | TOTAL FREE ENERGY        -156.506732241255 Eh   |
          | GRADIENT NORM               0.000075401160 Eh/α |
          | HOMO-LUMO GAP               0.557236656961 eV   |
           -------------------------------------------------

 * finished run on 2025/07/16 at 23:34:36.672
