   * xtb version 6.7.1 (edcfbbe) compiled by 'albert@albert-system' on 2024-07-22

   ID    Z sym.   atoms
    1    6 C      1-8, 10-16, 18-36, 38-63
    2    7 N      9, 17, 37
    3    1 H      64-102

          program call               : xtb data2507/toluene/BDPCC/BDPCC_toluene_S0_crest.xyz --gfn 2 --gbsa toluene --ohess vtight --parallel 40 --molden --ceasefiles --namespace data2507/toluene/BDPCC/BDPCC_toluene_S0_finalOpt
      * Solvation model:               GBSA
        Solvent                        toluene
        Solvent mass                       9.2140E+01 g/mol
          :  Hamiltonian                  GFN2-xTB          :
 * total energy  :  -157.3052690 Eh     change       -0.3182492E-08 Eh
 * total energy  :  -157.3053567 Eh     change       -0.8770756E-04 Eh
 * total energy  :  -157.3054747 Eh     change       -0.1180792E-03 Eh
 * total energy  :  -157.3055197 Eh     change       -0.4492165E-04 Eh
 * total energy  :  -157.3056260 Eh     change       -0.1063348E-03 Eh
 * total energy  :  -157.3056700 Eh     change       -0.4398631E-04 Eh
 * total energy  :  -157.3056877 Eh     change       -0.1766489E-04 Eh
 * total energy  :  -157.3057186 Eh     change       -0.3098731E-04 Eh
 * total energy  :  -157.3057375 Eh     change       -0.1889018E-04 Eh
 * total energy  :  -157.3057695 Eh     change       -0.3201582E-04 Eh
 * total energy  :  -157.3066952 Eh     change       -0.2045150E-05 Eh
 * total energy  :  -157.3066963 Eh     change       -0.1184842E-05 Eh
 * total energy  :  -157.3066970 Eh     change       -0.6186229E-06 Eh
 * total energy  :  -157.3066974 Eh     change       -0.3918354E-06 Eh
 * total energy  :  -157.3066976 Eh     change       -0.2837917E-06 Eh
 * total energy  :  -157.3066979 Eh     change       -0.2283537E-06 Eh
 * total energy  :  -157.3066981 Eh     change       -0.2030526E-06 Eh
 * total energy  :  -157.3066984 Eh     change       -0.2799296E-06 Eh
 * total energy  :  -157.3066984 Eh     change       -0.3396195E-08 Eh
   *** GEOMETRY OPTIMIZATION CONVERGED AFTER 68 ITERATIONS ***

 final structure:
================
102
 xtb: 6.7.1 (edcfbbe)
C           -7.18986694526873       -2.85973373795269       -2.63254575619496
C           -6.75219087431428       -1.99783783871233       -1.64027406466631
C           -5.42079484702287       -1.63037843075329       -1.57587396979089
C           -4.50139519604372       -2.12136646670757       -2.50125180323404
C           -3.08473317084326       -1.72865134366961       -2.42376758139919
C           -2.07848128010570       -2.68991060524298       -2.59724640132797
C           -0.73869492084918       -2.37417438592782       -2.49599963323308
C           -0.40433899902286       -1.05894047008579       -2.21230474895851
N            0.82634421359956       -0.48657097199280       -2.02394883236291
C            0.66532666244885        0.83533609694426       -1.69912368699506
C            1.61258155800560        1.78759024552757       -1.31871335621955
C            3.01248962851271        1.45661473493606       -0.98753630324516
C            4.04245417031543        2.22250455051494       -1.54785594309973
C            5.36938128700979        2.00166257605218       -1.24578702716472
C            5.68388451142399        0.99703312345028       -0.33877368803984
C            4.64707070112384        0.22421243585097        0.23359047815635
N            5.19699606553690       -0.68108270089648        1.10535815186508
C            6.55972181847987       -0.52500629949406        1.12133484506450
C            7.52124098569838       -1.21393373509120        1.84537918580619
C            8.84309896415411       -0.85569998549783        1.66047935202345
C            9.20314822728922        0.16189846507365        0.77797796786610
C            8.24948660418227        0.85188196095556        0.05591390117655
C            6.91288946293102        0.51074687446003        0.22384915069622
C            3.30319009704955        0.43123384703951       -0.07622108846134
C            2.25841813442806       -0.44363178546730        0.49116391422065
C            2.35643233043322       -1.82260603269921        0.33898582777207
C            1.32696837984517       -2.70214152577741        0.69472543880412
C            1.49445859901578       -4.14824483954608        0.48134668297085
C            2.70413944231842       -4.77936608979181        0.76457760523071
C            2.85648117915118       -6.13882857747453        0.56254644241260
C            1.80432219232532       -6.89188573306425        0.06843948794862
C            0.59745150277097       -6.27542112739731       -0.21936970473748
C            0.44218100773629       -4.91727003616723       -0.01266374515723
C            0.13860096789649       -2.19549518652905        1.20581015498426
C            0.01993480467793       -0.82895200605122        1.40288483085246
C            1.09100952509518        0.03955942101577        1.08469123488839
N            0.74009488135327        1.32047736212728        1.42165423633679
C           -0.55732054836410        1.33070840517712        1.86346783781658
C           -1.35542873434512        2.39716434576443        2.24793605539408
C           -2.65686889016070        2.12571573577066        2.61777135186540
C           -3.17048793903071        0.82053590419991        2.62979836669733
C           -4.57346223337592        0.58408655565327        3.00801034664583
C           -4.91716764940606       -0.47979907496131        3.83959468199748
C           -6.23660380994743       -0.70819707255490        4.18457883242871
C           -7.23693425815467        0.11935804807285        3.70140483469518
C           -6.90789291998363        1.17920227108892        2.87243618048554
C           -5.58815795420138        1.41166343910348        2.53115578168001
C           -2.35536211941103       -0.24564519772399        2.27101153489454
C           -1.04899590133062        0.00558101628187        1.88025362347683
C            1.15200045530874        3.08629447680196       -1.13839145736503
C           -0.19849110992503        3.43777181438252       -1.25352539122649
C           -0.61279850828456        4.83172709477324       -1.03153973308009
C            0.15257423776872        5.88969692131800       -1.51859517632979
C           -0.23836803088351        7.19933118702486       -1.30840170630211
C           -1.39991062298101        7.47642741973350       -0.60642621788596
C           -2.16859443661624        6.43316407636698       -0.11658648029655
C           -1.78061280047193        5.12325049796525       -0.32874061113293
C           -1.14006262476953        2.45625808151498       -1.53675319663494
C           -0.71049017542037        1.15835814988658       -1.76369507665366
C           -1.40053551037358       -0.06747947246109       -2.06031661872795
C           -2.74023232650752       -0.40826208685909       -2.16294101160029
C           -4.95284662069853       -2.98989672824616       -3.49279455404021
C           -6.28566058097998       -3.35294307131982       -3.55892132493496
H           -8.23042478299968       -3.14597809867161       -2.68382022658361
H           -7.44994307260102       -1.61237850565073       -0.91016997117310
H           -5.08350556461422       -0.97059026946946       -0.78923729208664
H           -2.36581850681308       -3.71355043081759       -2.78930428498677
H            0.02392841605023       -3.12963201883046       -2.61425736586892
H            1.70045911170144       -0.98297867128423       -2.02026616658020
H            3.77515434938679        2.99490589127368       -2.25419382240221
H            6.14621662022812        2.59784544376187       -1.69968156223021
H            4.67142570622801       -1.31765839674779        1.68042152663405
H            7.24560261906757       -2.00269083111860        2.52996976628489
H            9.61486244086252       -1.37426952522187        2.21053082091996
H           10.24765021513634        0.41120885267716        0.66057476003957
H            8.53332808399752        1.63961652244286       -0.62597064981630
H            3.23773064902464       -2.22737302317105       -0.14063704568847
H            3.52697907606963       -4.20427382844819        1.16456970715909
H            3.79962171634590       -6.61355841268073        0.79348991980081
H            1.92404064322576       -7.95357669322723       -0.09128533133073
H           -0.22634336568431       -6.85633797895787       -0.60922425578240
H           -0.49569073398244       -4.43897641933802       -0.25484341227310
H           -0.67617451300721       -2.85550339774471        1.45962949491890
H            1.29250032398908        2.14040349924564        1.23792550689820
H           -0.97421604308109        3.40745767935004        2.24405305231552
H           -3.29876597282999        2.93931174348832        2.92319800451964
H           -4.13969032294883       -1.12030617002629        4.23094634693237
H           -6.48652512105409       -1.53409989490940        4.83554566973426
H           -8.26789815725967       -0.06086650879534        3.96963261766541
H           -7.68415430771088        1.82610455312512        2.48848137732871
H           -5.34061323924328        2.23042810968254        1.87048493281667
H           -2.74495854077444       -1.25265585680001        2.26044814745413
H            1.86132465326197        3.84423616824213       -0.83544959284722
H            1.05019177962338        5.68230124668519       -2.08342269790971
H            0.36376982812290        8.00828574657903       -1.69732558029748
H           -1.70441889716503        8.49989544021554       -0.44209726731615
H           -3.07405759559268        6.64227703051390        0.43546328034279
H           -2.37442572358688        4.31415293988244        0.07105151752580
H           -2.18872967826006        2.70143993201214       -1.60161205230599
H           -3.50629358393477        0.34386849104409       -2.04827218398194
H           -4.25608068237417       -3.36592681129692       -4.22845023534972
H           -6.62182923683016       -4.02250027891466       -4.33805784472172

          :  Hamiltonian                  GFN2-xTB          :
         :: gradient norm              0.000044913143 Eh/a0 ::
         :: HOMO-LUMO gap              2.700819764428 eV    ::
         :: SCC energy              -160.330253479224 Eh    ::
         :: -> dispersion             -0.159413442798 Eh    ::
         :: -> Gsolv                  -0.059609463910 Eh    ::
         :: repulsion energy           3.023555121502 Eh    ::

    * Orbital Energies and Occupations

         #    Occupation            Energy/Eh            Energy/eV
      -------------------------------------------------------------
         1        2.0000           -0.6796687             -18.4947
       ...           ...                  ...                  ...
       135        2.0000           -0.4026393             -10.9564
       136        2.0000           -0.4021363             -10.9427
       137        2.0000           -0.4014889             -10.9251
       138        2.0000           -0.4003511             -10.8941
       139        2.0000           -0.3993536             -10.8670
       140        2.0000           -0.3910261             -10.6404
       141        2.0000           -0.3898831             -10.6093
       142        2.0000           -0.3791132             -10.3162
       143        2.0000           -0.3780494             -10.2872
       144        2.0000           -0.3757399             -10.2244
       145        2.0000           -0.3703952             -10.0790
       146        2.0000           -0.3603472              -9.8055
       147        2.0000           -0.3584966              -9.7552 (HOMO)
       148                         -0.2592432              -7.0544 (LUMO)
       149                         -0.2474243              -6.7328
       150                         -0.2466546              -6.7118
       151                         -0.2424839              -6.5983
       152                         -0.2392070              -6.5092
       153                         -0.2329602              -6.3392
       154                         -0.2313724              -6.2960
       155                         -0.2261043              -6.1526
       156                         -0.2225638              -6.0563
       157                         -0.2207405              -6.0067
       158                         -0.2196241              -5.9763
       ...                                ...                  ...
       291                          0.7488871              20.3783
      -------------------------------------------------------------
                  HL-Gap            0.0992533 Eh            2.7008 eV

     #   Z          covCN         q      C6AA      α(0)
     1   6 C        2.920    -0.034    28.841     8.807
     2   6 C        2.918    -0.031    28.775     8.796
     3   6 C        2.925    -0.035    28.872     8.812
     4   6 C        2.977     0.010    27.788     8.647
     5   6 C        2.976    -0.003    28.094     8.694
     6   6 C        2.929    -0.037    28.932     8.821
     7   6 C        2.908    -0.055    29.368     8.886
     8   6 C        3.076     0.055    26.695     8.471
     9   7 N        2.757    -0.125    23.710     7.232
    10   6 C        3.077     0.051    26.774     8.483
    11   6 C        2.966    -0.017    28.441     8.748
    12   6 C        2.980    -0.006    28.175     8.707
    13   6 C        2.924    -0.049    29.216     8.864
    14   6 C        2.910    -0.037    28.925     8.819
    15   6 C        3.071    -0.020    28.435     8.743
    16   6 C        3.074     0.048    26.855     8.497
    17   7 N        2.756    -0.121    23.638     7.221
    18   6 C        3.073     0.054    26.714     8.474
    19   6 C        2.909    -0.056    29.388     8.889
    20   6 C        2.924    -0.034    28.844     8.807
    21   6 C        2.920    -0.043    29.067     8.841
    22   6 C        2.912    -0.034    28.858     8.809
    23   6 C        3.072    -0.018    28.381     8.735
    24   6 C        2.969    -0.027    28.684     8.785
    25   6 C        2.964    -0.020    28.507     8.758
    26   6 C        2.935    -0.055    29.365     8.887
    27   6 C        2.975    -0.005    28.152     8.703
    28   6 C        2.977     0.008    27.828     8.653
    29   6 C        2.925    -0.037    28.914     8.818
    30   6 C        2.918    -0.032    28.791     8.799
    31   6 C        2.920    -0.033    28.827     8.805
    32   6 C        2.918    -0.031    28.763     8.795
    33   6 C        2.925    -0.036    28.894     8.815
    34   6 C        2.917    -0.040    29.004     8.831
    35   6 C        3.070    -0.018    28.378     8.735
    36   6 C        3.077     0.050    26.788     8.486
    37   7 N        2.756    -0.125    23.714     7.232
    38   6 C        3.078     0.055    26.684     8.469
    39   6 C        2.908    -0.055    29.354     8.884
    40   6 C        2.929    -0.037    28.921     8.819
    41   6 C        2.976    -0.003    28.085     8.693
    42   6 C        2.977     0.010    27.786     8.647
    43   6 C        2.925    -0.036    28.886     8.814
    44   6 C        2.918    -0.031    28.775     8.797
    45   6 C        2.920    -0.034    28.837     8.806
    46   6 C        2.918    -0.031    28.781     8.797
    47   6 C        2.925    -0.036    28.885     8.814
    48   6 C        2.918    -0.038    28.936     8.821
    49   6 C        3.070    -0.018    28.384     8.736
    50   6 C        2.935    -0.050    29.250     8.870
    51   6 C        2.975    -0.005    28.148     8.703
    52   6 C        2.977     0.009    27.821     8.652
    53   6 C        2.925    -0.036    28.907     8.817
    54   6 C        2.918    -0.032    28.788     8.798
    55   6 C        2.919    -0.034    28.839     8.806
    56   6 C        2.918    -0.031    28.779     8.797
    57   6 C        2.925    -0.036    28.906     8.817
    58   6 C        2.917    -0.041    29.013     8.833
    59   6 C        3.071    -0.018    28.394     8.737
    60   6 C        3.071    -0.018    28.383     8.735
    61   6 C        2.918    -0.038    28.940     8.822
    62   6 C        2.924    -0.036    28.901     8.816
    63   6 C        2.918    -0.032    28.790     8.799
    64   1 H        0.926     0.028     2.608     2.525
    65   1 H        0.926     0.028     2.609     2.526
    66   1 H        0.926     0.029     2.595     2.519
    67   1 H        0.926     0.034     2.526     2.486
    68   1 H        0.926     0.030     2.589     2.516
    69   1 H        0.860     0.165     1.306     1.790
    70   1 H        0.926     0.032     2.564     2.504
    71   1 H        0.926     0.033     2.541     2.493
    72   1 H        0.860     0.163     1.317     1.797
    73   1 H        0.926     0.029     2.604     2.524
    74   1 H        0.926     0.031     2.571     2.507
    75   1 H        0.926     0.028     2.609     2.526
    76   1 H        0.926     0.031     2.567     2.506
    77   1 H        0.925     0.029     2.604     2.523
    78   1 H        0.926     0.027     2.623     2.533
    79   1 H        0.926     0.030     2.591     2.517
    80   1 H        0.926     0.029     2.597     2.520
    81   1 H        0.926     0.030     2.590     2.517
    82   1 H        0.926     0.033     2.542     2.493
    83   1 H        0.926     0.034     2.530     2.487
    84   1 H        0.860     0.166     1.300     1.786
    85   1 H        0.926     0.031     2.578     2.511
    86   1 H        0.926     0.035     2.518     2.482
    87   1 H        0.926     0.030     2.584     2.514
    88   1 H        0.926     0.029     2.603     2.523
    89   1 H        0.926     0.028     2.609     2.526
    90   1 H        0.926     0.029     2.600     2.522
    91   1 H        0.926     0.030     2.588     2.516
    92   1 H        0.926     0.033     2.541     2.493
    93   1 H        0.925     0.032     2.561     2.503
    94   1 H        0.926     0.030     2.580     2.512
    95   1 H        0.926     0.029     2.601     2.522
    96   1 H        0.926     0.029     2.607     2.525
    97   1 H        0.926     0.029     2.599     2.521
    98   1 H        0.926     0.032     2.558     2.501
    99   1 H        0.926     0.033     2.544     2.494
   100   1 H        0.926     0.033     2.551     2.498
   101   1 H        0.926     0.031     2.576     2.510
   102   1 H        0.926     0.029     2.599     2.521

molecular dipole:
                 x           y           z       tot (Debye)
 q only:        0.615      -0.147       0.227
   full:        0.767      -0.220       0.309       2.174

 projected vibrational frequencies (cm⁻¹)
eigval :       -0.00    -0.00    -0.00    -0.00     0.00     0.00
eigval :       11.61    14.50    18.25    22.26    25.64    36.70
eigval :       40.04    41.07    42.88    45.61    50.17    55.62
eigval :       59.12    65.45    65.96    73.61    76.60    82.54
eigval :       91.17    99.68   114.85   132.90   135.39   137.19
eigval :      145.28   156.45   172.30   180.98   201.72   207.31
eigval :      231.57   240.68   247.35   251.06   253.34   256.48
eigval :      261.80   264.91   277.70   287.67   302.26   304.91
eigval :      313.32   326.33   340.35   361.85   369.33   373.78
eigval :      375.09   375.15   375.57   387.70   402.27   408.41
eigval :      410.50   418.24   422.93   425.93   456.25   461.42
eigval :      464.21   468.89   472.60   480.85   484.98   491.12
eigval :      496.39   507.77   509.09   522.66   534.91   542.05
eigval :      544.01   557.21   564.92   574.45   578.19   582.64
eigval :      585.16   586.16   588.08   592.90   600.11   604.54
eigval :      611.74   616.94   621.30   623.40   631.32   636.37
eigval :      646.42   652.12   671.21   671.39   673.77   675.53
eigval :      682.99   688.94   696.60   697.99   710.50   711.85
eigval :      714.05   724.16   728.69   747.42   758.83   759.42
eigval :      761.71   762.50   771.52   791.98   822.65   824.00
eigval :      828.07   830.44   846.07   852.91   853.20   858.64
eigval :      863.69   865.47   868.83   872.83   874.95   878.27
eigval :      878.56   880.41   881.39   884.31   885.56   891.88
eigval :      898.65   900.29   901.36   902.70   903.61   904.57
eigval :      905.20   908.96   912.02   913.23   921.03   930.54
eigval :      930.68   932.10   932.29   933.11   934.87   935.95
eigval :      936.64   948.78   972.10   982.48   982.89   988.68
eigval :     1014.81  1048.69  1066.03  1068.50  1070.04  1083.40
eigval :     1084.22  1084.63  1085.21  1089.15  1092.54  1096.17
eigval :     1119.70  1121.29  1121.33  1121.86  1136.28  1143.57
eigval :     1151.10  1155.58  1162.59  1167.28  1176.27  1179.17
eigval :     1179.79  1180.13  1181.07  1181.98  1188.46  1198.90
eigval :     1200.43  1201.64  1202.77  1213.63  1218.68  1219.74
eigval :     1228.39  1230.67  1231.55  1246.30  1259.32  1273.65
eigval :     1277.69  1279.97  1281.75  1282.81  1283.15  1289.73
eigval :     1292.42  1310.37  1312.24  1312.81  1313.43  1316.93
eigval :     1317.24  1317.72  1318.61  1331.61  1334.51  1344.71
eigval :     1353.11  1358.96  1368.20  1375.99  1376.25  1390.76
eigval :     1397.23  1408.35  1423.21  1423.88  1428.74  1429.10
eigval :     1429.84  1432.76  1433.08  1464.13  1465.55  1465.90
eigval :     1469.76  1485.96  1489.84  1494.93  1495.52  1497.07
eigval :     1500.92  1561.53  1569.48  1569.71  1575.33  1576.02
eigval :     1580.47  1580.77  1581.54  1582.23  1583.78  1589.85
eigval :     1590.50  1594.31  1596.83  1597.20  1601.18  1601.42
eigval :     1613.19  1615.42  1615.72  3063.57  3063.75  3064.36
eigval :     3064.55  3065.44  3065.70  3066.50  3066.56  3068.17
eigval :     3070.82  3071.48  3073.28  3073.91  3074.77  3074.85
eigval :     3075.14  3075.26  3075.98  3077.31  3077.73  3078.81
eigval :     3080.58  3081.26  3082.24  3084.10  3084.24  3085.84
eigval :     3086.21  3087.69  3088.03  3088.30  3088.80  3090.49
eigval :     3092.52  3094.81  3095.97  3477.68  3481.82  3487.28

   temp. (K)  partition function   enthalpy   heat capacity  entropy
                                   cal/mol     cal/K/mol   cal/K/mol   J/K/mol
 298.15  VIB  0.111E+23            28952.259    185.433    179.248
         ROT  0.144E+09              888.752      2.981     40.313
         INT  0.160E+31            29841.011    188.414    219.561
         TR   0.220E+29             1481.254      4.968     45.903
         TOT                       31322.2648   193.3824   265.4642  1110.7024

       T/K    H(0)-H(T)+PV         H(T)/Eh          T*S/Eh         G(T)/Eh
   ------------------------------------------------------------------------
    298.15    0.499152E-01    0.837232E+00    0.126131E+00    0.711101E+00
   ------------------------------------------------------------------------

         :::::::::::::::::::::::::::::::::::::::::::::::::::::
         ::                  THERMODYNAMIC                  ::
         :::::::::::::::::::::::::::::::::::::::::::::::::::::
         :: total free energy        -156.595597430295 Eh   ::
         ::.................................................::
         :: total energy             -157.306698359968 Eh   ::
         :: zero point energy           0.787316351065 Eh   ::
         :: G(RRHO) w/o ZPVE           -0.076215421392 Eh   ::
         :: G(RRHO) contrib.            0.711100929673 Eh   ::
         :::::::::::::::::::::::::::::::::::::::::::::::::::::

           -------------------------------------------------
          | TOTAL ENERGY             -157.306698359968 Eh   |
          | TOTAL ENTHALPY           -156.469466802734 Eh   |
          | TOTAL FREE ENERGY        -156.595597430295 Eh   |
          | GRADIENT NORM               0.000044908201 Eh/α |
          | HOMO-LUMO GAP               2.700819892977 eV   |
           -------------------------------------------------

 * finished run on 2025/07/16 at 23:25:52.847
