   * xtb version 6.7.1 (edcfbbe) compiled by 'albert@albert-system' on 2024-07-22

   ID    Z sym.   atoms
    1    6 C      1-6, 8-32, 34-54
    2    7 N      7, 33
    3    1 H      55-102

          program call               : xtb data2507/toluene/DMACN-B/DMACN-B_toluene_S0_finalOpt.xtbopt.xyz --gfn 2 --uhf 2 --gbsa toluene --ohess vtight --parallel 40 --molden --ceasefiles --namespace data2507/toluene/DMACN-B/DMACN-B_toluene_T1_preOpt
      * Solvation model:               GBSA
        Solvent                        toluene
        Solvent mass                       9.2140E+01 g/mol
          :  Hamiltonian                  GFN2-xTB          :
 * total energy  :  -141.7190795 Eh     change       -0.1442720E-07 Eh
 * total energy  :  -141.7223218 Eh     change       -0.3242267E-02 Eh
 * total energy  :  -141.7235268 Eh     change       -0.1205070E-02 Eh
 * total energy  :  -141.7236499 Eh     change       -0.1230852E-03 Eh
 * total energy  :  -141.7237453 Eh     change       -0.9534272E-04 Eh
 * total energy  :  -141.7237832 Eh     change       -0.3789545E-04 Eh
 * total energy  :  -141.7238626 Eh     change       -0.7948176E-04 Eh
 * total energy  :  -141.7239199 Eh     change       -0.5729285E-04 Eh
 * total energy  :  -141.7239607 Eh     change       -0.4079736E-04 Eh
 * total energy  :  -141.7239970 Eh     change       -0.3626795E-04 Eh
 * total energy  :  -141.7249734 Eh     change       -0.1361900E-06 Eh
 * total energy  :  -141.7249735 Eh     change       -0.1391243E-06 Eh
 * total energy  :  -141.7249737 Eh     change       -0.1584248E-06 Eh
 * total energy  :  -141.7249738 Eh     change       -0.1804208E-06 Eh
 * total energy  :  -141.7249740 Eh     change       -0.2033760E-06 Eh
 * total energy  :  -141.7249743 Eh     change       -0.2162147E-06 Eh
 * total energy  :  -141.7249744 Eh     change       -0.1927837E-06 Eh
 * total energy  :  -141.7249746 Eh     change       -0.1336228E-06 Eh
 * total energy  :  -141.7249747 Eh     change       -0.8066209E-07 Eh
   *** GEOMETRY OPTIMIZATION CONVERGED AFTER 116 ITERATIONS ***

 final structure:
================
102
 xtb: 6.7.1 (edcfbbe)
C           -5.89556552020312       -5.47251119280656        0.48994875506327
C           -5.12519236109152       -4.19934424532349        0.31970695488256
C           -4.03107020174440       -3.90893757050730        1.12747616990915
C           -3.29268261571954       -2.74821903513149        0.97725829785858
C           -2.16566605091523       -2.50263927102815        1.93957367271869
C           -3.65078850558845       -1.83105356213568       -0.03009899014177
N           -2.89790334507995       -0.66113150874276       -0.22379299199580
C           -1.52769005443427       -0.74346122473311       -0.28799697218634
C           -0.88275357811431       -1.90487670603246       -0.81208732204276
C            0.46920107628210       -1.95899997175333       -0.89711066045124
C            1.28117699602657       -0.86777067331984       -0.46458513000985
C            0.63941232611203        0.32348310245494        0.01332488330789
C           -0.71857270204593        0.35112801631834        0.11315879164385
C            1.48685761137023        1.48843738389963        0.47558819445321
C            1.74354610928089        1.41159314336073        1.97746615399525
C            2.16141163790646        2.53721975359733        2.68953642654908
C            2.45105244720163        2.45645348092732        4.03756737638095
C            2.34185378364000        1.24897803135502        4.70940378971448
C            1.93526152094275        0.12194528429344        4.01056709849003
C            1.64071855213783        0.20434450106567        2.66302224377571
C            0.75029019131040        2.74455426418104        0.04249882100790
C            0.85742016537852        3.17742686163714       -1.27624233795919
C            0.15461889965620        4.28070624727197       -1.72083561658481
C           -0.68211732606272        4.97079229987293       -0.85495714907962
C           -0.81484570259110        4.53452887122113        0.45164321690869
C           -0.11247564362109        3.42883536126496        0.89654847126622
C            2.87315119388140        1.43584852423856       -0.13250178682517
C            3.68232294948660        2.56401955750676       -0.16740575193887
C            4.96883141133184        2.49815567129404       -0.65893155605120
C            5.47206990309296        1.29812568034037       -1.15993798515696
C            4.69595884413878        0.15417657859234       -1.15116571525954
C            3.40729914779843        0.22200306302465       -0.60274721032705
N            2.64313776199653       -0.93906222324908       -0.52748907307691
C            3.33968141844148       -2.13362475282457       -0.35685975940432
C            2.81807356506287       -3.14580381619208        0.46350176863776
C            3.53429638297589       -4.30180186946831        0.67723516103780
C            4.78289952934008       -4.46239681870118        0.09454580921051
C            5.31578217746901       -3.44625448975347       -0.69444592827774
C            4.61491391742079       -2.27918450723118       -0.93032799292847
C            5.11022076786616       -1.14980028567689       -1.80829836081290
C            6.61399296330041       -1.22679273472735       -2.07436360670496
C            4.37697840203813       -1.24055919220451       -3.16602955046081
C           -3.51467906024889        0.59584080317195       -0.35301048898758
C           -4.48293852055757        1.01025521855533        0.58640251121293
C           -4.89389910748957        0.14539024796242        1.74131654285143
C           -5.04934153098174        2.26533340655785        0.45802217997871
C           -4.69694604353340        3.13630518842842       -0.56639829887955
C           -5.33147022277879        4.48944463650577       -0.66728358086734
C           -3.74830447341425        2.70819692038121       -1.48555965122559
C           -3.15222010865912        1.46157748485446       -1.40261483945305
C           -2.17325468484757        1.08126855285153       -2.47522224749749
C           -4.76235326861789       -2.10576217544634       -0.85521632031724
C           -5.18514195981640       -1.18304354243077       -1.95966331545575
C           -5.47091526483913       -3.27875919744332       -0.66050760961557
H           -6.93999341253793       -5.33308995452254        0.21901580316327
H           -5.48200916939887       -6.24930164114637       -0.15557507492994
H           -5.83961181391915       -5.82519477779860        1.51747983467274
H           -3.75542015765795       -4.60230338220390        1.90968058433046
H           -2.40827713110800       -2.93944233461278        2.90680084535756
H           -1.96346611088148       -1.44323163504218        2.07581295504208
H           -1.24966167184233       -2.97161661908668        1.58004202099870
H           -1.49244777587754       -2.71521232094149       -1.18363041745067
H            0.95614471332429       -2.81454757168920       -1.34139357756768
H           -1.21277224806939        1.21772997238643        0.52533904932862
H            2.25558377799406        3.48804946918974        2.18713418411323
H            2.76756529391855        3.34343648057585        4.56868208131247
H            2.57110064927832        1.18634788189247        5.76311814278344
H            1.84639288883681       -0.82762882676172        4.51937587507605
H            1.31989624755656       -0.68472492601025        2.14094651226110
H            1.50363649882909        2.64321183838332       -1.95959375133432
H            0.25599029605831        4.60229447145669       -2.74778192762040
H           -1.22871451650893        5.83642622909415       -1.19930036307103
H           -1.47430075259269        5.05490106074338        1.13190800401709
H           -0.23615958436006        3.09535840578366        1.91708370719471
H            3.29209080840300        3.50799267309778        0.18145243559814
H            5.58455984731262        3.38503412734127       -0.67982633227224
H            6.46812760431775        1.28646658903824       -1.56914735745834
H            1.86559108924464       -2.99648640262292        0.94835126041408
H            3.12649923829804       -5.07607703287485        1.31071585174118
H            5.34945668979287       -5.36622903543658        0.25947597491865
H            6.29550939766184       -3.58910039158078       -1.11999805162700
H            7.17680210125533       -1.16285198939234       -1.14561973084873
H            6.85915891145615       -2.15939952514672       -2.57571262620196
H            6.92097323217202       -0.41844419705471       -2.73256746381657
H            3.29877573808925       -1.19036986980502       -3.03400780609146
H            4.62113876153443       -2.18047991685376       -3.65691801891423
H            4.68272641558575       -0.41743998346695       -3.80861928616426
H           -5.54611750186199       -0.66429095336746        1.41425997406433
H           -4.02833176281103       -0.29903545170316        2.22673656714900
H           -5.43371860583949        0.73925799134371        2.47556805866805
H           -5.78549920575751        2.58226973169211        1.18398566111452
H           -4.95997005944619        5.02845302893316       -1.53510683471284
H           -6.41444828959428        4.39799156350975       -0.74987458432442
H           -5.11676263803629        5.07721241791832        0.22517044132021
H           -3.46690918772657        3.36141458205358       -2.29907716561872
H           -1.17692122167699        1.44387695039707       -2.22038409551364
H           -2.11042732771586        0.00524376745741       -2.61643846688922
H           -2.46594081597605        1.54202875369927       -3.41709988160613
H           -4.32865427503577       -0.83411596104879       -2.53116407040324
H           -5.70119835244282       -0.30779565995292       -1.56506660245425
H           -5.86357097100087       -1.70010197041269       -2.63476641403463
H           -6.31846346061695       -3.48619188883563       -1.29908922199167

          :  Hamiltonian                  GFN2-xTB          :
         :: gradient norm              0.000035794420 Eh/a0 ::
         :: HOMO-LUMO gap              0.165528508806 eV    ::
         :: SCC energy              -144.281530932458 Eh    ::
         :: -> dispersion             -0.157583422947 Eh    ::
         :: -> Gsolv                  -0.047927494504 Eh    ::
         :: repulsion energy           2.556556274787 Eh    ::

    * Orbital Energies and Occupations

         #    Occupation            Energy/Eh            Energy/eV
      -------------------------------------------------------------
         1        2.0000           -0.6708222             -18.2540
       ...           ...                  ...                  ...
       122        2.0000           -0.3967068             -10.7949
       123        2.0000           -0.3954740             -10.7614
       124        2.0000           -0.3943048             -10.7296
       125        2.0000           -0.3919533             -10.6656
       126        2.0000           -0.3894907             -10.5986
       127        2.0000           -0.3879096             -10.5556
       128        2.0000           -0.3860767             -10.5057
       129        2.0000           -0.3845602             -10.4644
       130        2.0000           -0.3832107             -10.4277
       131        2.0000           -0.3810129             -10.3679
       132        2.0000           -0.3594808              -9.7820
       133        1.0000           -0.3309467              -9.0055
       134        0.9603           -0.2321490              -6.3171 (HOMO)
       135        0.0385           -0.2260656              -6.1516 (LUMO)
       136        0.0008           -0.2223501              -6.0505
       137        0.0004           -0.2217332              -6.0337
       138        0.0000           -0.2177420              -5.9251
       139        0.0000           -0.2169126              -5.9025
       140        0.0000           -0.2163492              -5.8872
       141        0.0000           -0.2142452              -5.8299
       142                         -0.2133781              -5.8063
       143                         -0.2124591              -5.7813
       144                         -0.2112701              -5.7490
       145                         -0.2065124              -5.6195
       ...                                ...                  ...
       264                          0.6887333              18.7414
      -------------------------------------------------------------
                  HL-Gap            0.0060835 Eh            0.1655 eV

     #   Z          covCN         q      C6AA      α(0)
     1   6 C        3.757    -0.108    22.614     6.780
     2   6 C        2.960     0.006    27.877     8.660
     3   6 C        2.931    -0.058    29.450     8.900
     4   6 C        2.962     0.003    27.948     8.671
     5   6 C        3.758    -0.102    22.490     6.761
     6   6 C        2.927     0.035    27.206     8.554
     7   7 N        2.748    -0.020    21.645     6.910
     8   6 C        2.927     0.036    27.187     8.551
     9   6 C        2.910    -0.051    29.257     8.869
    10   6 C        2.910    -0.052    29.281     8.873
    11   6 C        2.928     0.023    27.494     8.599
    12   6 C        2.977    -0.008    28.204     8.711
    13   6 C        2.917    -0.054    29.337     8.882
    14   6 C        3.921     0.015    20.268     6.398
    15   6 C        2.986     0.006    27.873     8.660
    16   6 C        2.923    -0.039    28.977     8.828
    17   6 C        2.918    -0.034    28.850     8.808
    18   6 C        2.918    -0.042    29.040     8.837
    19   6 C        2.918    -0.036    28.897     8.815
    20   6 C        2.923    -0.040    28.997     8.831
    21   6 C        2.982     0.008    27.838     8.655
    22   6 C        2.924    -0.037    28.910     8.818
    23   6 C        2.918    -0.034    28.856     8.809
    24   6 C        2.919    -0.038    28.935     8.821
    25   6 C        2.919    -0.032    28.799     8.800
    26   6 C        2.922    -0.039    28.970     8.826
    27   6 C        2.990    -0.012    28.294     8.725
    28   6 C        2.921    -0.040    29.000     8.831
    29   6 C        2.916    -0.046    29.136     8.851
    30   6 C        2.921    -0.053    29.306     8.878
    31   6 C        2.982    -0.009    28.225     8.715
    32   6 C        2.953     0.037    27.181     8.551
    33   7 N        2.755    -0.009    21.440     6.877
    34   6 C        2.943     0.043    27.034     8.528
    35   6 C        2.919    -0.049    29.224     8.865
    36   6 C        2.916    -0.036    28.889     8.814
    37   6 C        2.917    -0.047    29.157     8.855
    38   6 C        2.921    -0.044    29.088     8.844
    39   6 C        2.982    -0.007    28.188     8.709
    40   6 C        3.911     0.022    20.146     6.380
    41   6 C        3.758    -0.106    22.584     6.775
    42   6 C        3.764    -0.098    22.412     6.748
    43   6 C        2.928     0.035    27.209     8.554
    44   6 C        2.962    -0.001    28.051     8.687
    45   6 C        3.758    -0.105    22.566     6.773
    46   6 C        2.931    -0.057    29.408     8.894
    47   6 C        2.961     0.007    27.867     8.659
    48   6 C        3.757    -0.107    22.592     6.777
    49   6 C        2.931    -0.056    29.399     8.892
    50   6 C        2.962     0.004    27.942     8.670
    51   6 C        3.759    -0.102    22.507     6.764
    52   6 C        2.962    -0.001    28.057     8.688
    53   6 C        3.758    -0.106    22.578     6.774
    54   6 C        2.930    -0.056    29.396     8.892
    55   1 H        0.925     0.043     2.405     2.425
    56   1 H        0.924     0.048     2.349     2.397
    57   1 H        0.925     0.043     2.407     2.426
    58   1 H        0.926     0.031     2.566     2.505
    59   1 H        0.925     0.045     2.387     2.416
    60   1 H        0.925     0.040     2.454     2.450
    61   1 H        0.925     0.045     2.381     2.413
    62   1 H        0.926     0.029     2.601     2.522
    63   1 H        0.926     0.031     2.571     2.507
    64   1 H        0.926     0.029     2.603     2.523
    65   1 H        0.926     0.025     2.652     2.547
    66   1 H        0.926     0.023     2.687     2.563
    67   1 H        0.926     0.022     2.702     2.571
    68   1 H        0.926     0.023     2.684     2.562
    69   1 H        0.926     0.022     2.702     2.570
    70   1 H        0.925     0.021     2.723     2.581
    71   1 H        0.926     0.025     2.663     2.552
    72   1 H        0.926     0.025     2.662     2.551
    73   1 H        0.926     0.024     2.678     2.559
    74   1 H        0.926     0.024     2.673     2.557
    75   1 H        0.926     0.025     2.656     2.548
    76   1 H        0.926     0.025     2.658     2.550
    77   1 H        0.926     0.035     2.514     2.479
    78   1 H        0.926     0.030     2.593     2.518
    79   1 H        0.926     0.028     2.610     2.526
    80   1 H        0.926     0.026     2.637     2.539
    81   1 H        0.926     0.037     2.487     2.466
    82   1 H        0.925     0.038     2.480     2.463
    83   1 H        0.925     0.043     2.406     2.425
    84   1 H        0.925     0.043     2.409     2.427
    85   1 H        0.925     0.033     2.538     2.491
    86   1 H        0.925     0.041     2.433     2.439
    87   1 H        0.925     0.040     2.447     2.446
    88   1 H        0.925     0.047     2.360     2.402
    89   1 H        0.925     0.046     2.375     2.410
    90   1 H        0.925     0.042     2.421     2.433
    91   1 H        0.925     0.032     2.565     2.504
    92   1 H        0.925     0.041     2.435     2.440
    93   1 H        0.925     0.047     2.364     2.404
    94   1 H        0.925     0.046     2.374     2.409
    95   1 H        0.926     0.030     2.588     2.516
    96   1 H        0.924     0.046     2.369     2.407
    97   1 H        0.925     0.040     2.447     2.446
    98   1 H        0.925     0.045     2.390     2.417
    99   1 H        0.925     0.046     2.368     2.406
   100   1 H        0.925     0.046     2.368     2.407
   101   1 H        0.925     0.043     2.415     2.430
   102   1 H        0.925     0.031     2.572     2.508

molecular dipole:
                 x           y           z       tot (Debye)
 q only:       -1.201      -0.755      -0.739
   full:       -1.154      -0.702      -0.659       3.820

 projected vibrational frequencies (cm⁻¹)
eigval :       -0.00    -0.00     0.00     0.00     0.00     0.00
eigval :       -9.64    18.36    20.91    26.52    31.17    35.78
eigval :       39.49    40.60    46.28    51.70    54.79    56.12
eigval :       63.90    69.49    82.08    85.79    90.20   102.54
eigval :      110.49   119.16   133.15   153.22   162.39   164.52
eigval :      167.31   176.43   177.05   180.34   183.01   187.19
eigval :      199.13   208.28   209.32   210.68   212.49   223.16
eigval :      226.19   240.56   250.11   263.49   267.54   276.78
eigval :      280.00   283.80   285.44   297.24   303.31   304.56
eigval :      323.74   326.34   338.99   345.28   350.51   361.27
eigval :      365.75   374.03   382.61   387.86   393.78   407.37
eigval :      425.05   434.37   438.27   446.33   455.65   465.85
eigval :      476.48   486.48   491.18   493.64   494.94   496.00
eigval :      498.06   506.42   519.46   525.65   528.82   542.13
eigval :      550.20   567.67   575.17   577.38   578.71   588.20
eigval :      589.23   591.94   593.42   600.25   611.16   618.54
eigval :      626.79   646.06   649.25   659.29   664.00   667.93
eigval :      673.30   677.43   693.59   726.48   730.88   749.86
eigval :      756.10   758.22   780.47   793.25   815.82   837.87
eigval :      839.39   848.14   857.12   863.28   866.23   874.05
eigval :      876.37   880.70   882.87   883.79   884.49   886.04
eigval :      887.59   889.46   896.99   900.09   904.76   909.92
eigval :      912.72   922.28   926.26   928.22   931.76   941.29
eigval :      952.82   964.39   965.98   969.78   973.26   974.00
eigval :      979.60   986.99  1005.96  1009.91  1016.97  1021.32
eigval :     1026.28  1028.22  1028.95  1030.69  1031.63  1032.48
eigval :     1033.87  1036.95  1041.08  1046.61  1051.21  1070.99
eigval :     1080.07  1083.07  1090.98  1108.58  1117.48  1125.32
eigval :     1129.34  1133.73  1141.89  1146.82  1168.81  1169.57
eigval :     1177.93  1178.32  1180.03  1180.40  1190.80  1193.43
eigval :     1198.52  1203.73  1209.05  1215.17  1223.15  1237.97
eigval :     1240.84  1242.22  1243.07  1258.53  1265.45  1266.52
eigval :     1272.92  1286.09  1289.95  1297.88  1304.37  1318.45
eigval :     1322.76  1323.70  1325.27  1328.47  1334.01  1337.38
eigval :     1344.39  1352.50  1361.75  1375.77  1393.86  1394.68
eigval :     1398.24  1401.76  1402.76  1404.69  1406.27  1409.14
eigval :     1410.61  1412.30  1416.33  1425.28  1431.23  1432.75
eigval :     1437.18  1437.58  1440.12  1452.78  1462.56  1469.17
eigval :     1473.77  1474.59  1475.81  1476.00  1477.73  1479.13
eigval :     1480.29  1481.24  1482.61  1483.85  1485.20  1485.40
eigval :     1488.13  1489.92  1489.99  1490.76  1492.78  1502.70
eigval :     1504.36  1506.36  1510.77  1512.86  1521.85  1533.89
eigval :     1538.24  1551.72  1557.05  1557.55  1572.39  1599.82
eigval :     2982.71  2994.33  2994.58  2996.66  2998.81  2999.04
eigval :     3008.83  3022.30  3022.59  3024.43  3025.37  3029.56
eigval :     3031.78  3032.05  3032.45  3032.60  3032.83  3037.75
eigval :     3038.12  3039.21  3041.78  3042.02  3042.36  3048.70
eigval :     3061.02  3061.74  3063.79  3064.56  3065.84  3066.03
eigval :     3070.21  3070.82  3072.48  3072.98  3073.90  3074.94
eigval :     3075.94  3079.10  3084.37  3085.23  3085.92  3086.31
eigval :     3089.25  3093.08  3093.37  3094.16  3111.32  3117.19

   temp. (K)  partition function   enthalpy   heat capacity  entropy
                                   cal/mol     cal/K/mol   cal/K/mol   J/K/mol
 298.15  VIB  0.747E+22            29408.847    183.085    181.796
         ROT  0.781E+08              888.752      2.981     39.097
         INT  0.584E+30            30297.599    186.065    220.893
         TR   0.180E+29             1481.254      4.968     45.502
         TOT                       31778.8534   191.0336   266.3944  1114.5941

       T/K    H(0)-H(T)+PV         H(T)/Eh          T*S/Eh         G(T)/Eh
   ------------------------------------------------------------------------
    298.15    0.506428E-01    0.877032E+00    0.126573E+00    0.750460E+00
   ------------------------------------------------------------------------

         :::::::::::::::::::::::::::::::::::::::::::::::::::::
         ::                  THERMODYNAMIC                  ::
         :::::::::::::::::::::::::::::::::::::::::::::::::::::
         :: total free energy        -140.974514871081 Eh   ::
         ::.................................................::
         :: total energy             -141.724974656561 Eh   ::
         :: zero point energy           0.826389529547 Eh   ::
         :: G(RRHO) w/o ZPVE           -0.075929744066 Eh   ::
         :: G(RRHO) contrib.            0.750459785480 Eh   ::
         :::::::::::::::::::::::::::::::::::::::::::::::::::::

           -------------------------------------------------
          | TOTAL ENERGY             -141.724974656561 Eh   |
          | TOTAL ENTHALPY           -140.847942300590 Eh   |
          | TOTAL FREE ENERGY        -140.974514871081 Eh   |
          | GRADIENT NORM               0.000033463181 Eh/α |
          | HOMO-LUMO GAP               0.165539924214 eV   |
           -------------------------------------------------

 * finished run on 2025/09/13 at 08:43:38.108
