   * xtb version 6.7.1 (edcfbbe) compiled by 'albert@albert-system' on 2024-07-22

   ID    Z sym.   atoms
    1    6 C      1-6, 8-32, 34-54
    2    7 N      7, 33
    3    1 H      55-102

          program call               : xtb data2507/toluene/DMACN-B/DMACN-B_toluene_S0_crest.xyz --gfn 2 --gbsa toluene --ohess vtight --parallel 40 --molden --ceasefiles --namespace data2507/toluene/DMACN-B/DMACN-B_toluene_S0_finalOpt
      * Solvation model:               GBSA
        Solvent                        toluene
        Solvent mass                       9.2140E+01 g/mol
          :  Hamiltonian                  GFN2-xTB          :
 * total energy  :  -141.8270000 Eh     change       -0.8036125E-08 Eh
 * total energy  :  -141.8271834 Eh     change       -0.1834781E-03 Eh
 * total energy  :  -141.8272797 Eh     change       -0.9624288E-04 Eh
 * total energy  :  -141.8273260 Eh     change       -0.4629120E-04 Eh
 * total energy  :  -141.8273708 Eh     change       -0.4480204E-04 Eh
 * total energy  :  -141.8274644 Eh     change       -0.9363569E-04 Eh
 * total energy  :  -141.8275062 Eh     change       -0.4177687E-04 Eh
 * total energy  :  -141.8276082 Eh     change       -0.1020226E-03 Eh
 * total energy  :  -141.8276363 Eh     change       -0.2806253E-04 Eh
 * total energy  :  -141.8276784 Eh     change       -0.4210057E-04 Eh
 * total energy  :  -141.8278349 Eh     change       -0.5197271E-06 Eh
 * total energy  :  -141.8278353 Eh     change       -0.4146225E-06 Eh
 * total energy  :  -141.8278356 Eh     change       -0.3244006E-06 Eh
 * total energy  :  -141.8278359 Eh     change       -0.3192214E-06 Eh
 * total energy  :  -141.8278364 Eh     change       -0.4473665E-06 Eh
 * total energy  :  -141.8278370 Eh     change       -0.6155294E-06 Eh
 * total energy  :  -141.8278377 Eh     change       -0.7111689E-06 Eh
 * total energy  :  -141.8278384 Eh     change       -0.6437336E-06 Eh
 * total energy  :  -141.8278384 Eh     change       -0.5635570E-08 Eh
   *** GEOMETRY OPTIMIZATION CONVERGED AFTER 68 ITERATIONS ***

 final structure:
================
102
 xtb: 6.7.1 (edcfbbe)
C           -6.00217846113829       -5.39774512880434        0.51648155513145
C           -5.19292066624421       -4.15238246641653        0.31110748737603
C           -4.12641263216774       -3.83646704325965        1.13561169614326
C           -3.37094701807673       -2.68647510077017        0.95428815797497
C           -2.26292263344949       -2.41306279005874        1.93011620159522
C           -3.67367624716177       -1.82505918173126       -0.11175334945058
N           -2.90943418983749       -0.65774966325974       -0.32475068394933
C           -1.52284389662379       -0.73416368840127       -0.35655026571160
C           -0.87068543901105       -1.89688212641583       -0.77522883977549
C            0.50593102601673       -1.95907750383252       -0.78874390467894
C            1.27303378611781       -0.87106015406868       -0.37677244300191
C            0.63418563909874        0.30640973824017        0.01962490049957
C           -0.74730217305117        0.35920865615417        0.03349091225058
C            1.48509600320231        1.46490493985581        0.50572900632052
C            1.89794876509108        1.22845428686747        1.96027440007672
C            2.89995251396473        2.00816907595645        2.52915037721440
C            3.30098147305551        1.80515280421945        3.83674715324503
C            2.70883232792053        0.81446407420042        4.60230050206596
C            1.70681287514675        0.03797275916816        4.04882161722935
C            1.30329269926017        0.24536743466585        2.74048382745071
C            0.70282382559713        2.75618148592769        0.34124169278707
C            0.44135682215668        3.21575984808517       -0.94680409894630
C           -0.30247236555050        4.36163461835145       -1.15285717006566
C           -0.80635879799430        5.06610894658158       -0.07164132011981
C           -0.56054264463705        4.61212886700088        1.21155725917520
C            0.18740401843322        3.46401663276833        1.41763358158261
C            2.76750121014078        1.49524338641406       -0.31086332535408
C            3.44543979798197        2.67293330926048       -0.58681384076662
C            4.68151297803005        2.63910375064911       -1.20554900582857
C            5.24786480274482        1.43012277939854       -1.57452306435628
C            4.57820308204611        0.23824070816413       -1.35368655339467
C            3.33827837262914        0.28482785993067       -0.70664813086701
N            2.66537675731655       -0.90479439564588       -0.44933414314824
C            3.43083784350838       -2.03778749828345       -0.19754036535920
C            2.99830502969779       -2.99792901722746        0.71413918877592
C            3.80010479671053       -4.07976195635449        1.01692477503280
C            5.04998353349196       -4.19478722845252        0.43359109242553
C            5.48731524711590       -3.23245636028965       -0.46200713278215
C            4.68987439866292       -2.15118930515718       -0.80203887136514
C            5.06378998661021       -1.11393272709503       -1.84542243678010
C            6.55813329258520       -1.11767767909249       -2.16986118580019
C            4.28636567420122       -1.44555945005147       -3.13859894887008
C           -3.53380155504937        0.59914693095298       -0.48956237950332
C           -4.49172883217358        1.04480234828898        0.43452912768544
C           -4.88299295208685        0.22940486604982        1.63163753603828
C           -5.08419625568731        2.28398515965248        0.25010937397854
C           -4.75097344568828        3.10953249543341       -0.81419070788089
C           -5.39715411514432        4.45387523803539       -0.96681736775563
C           -3.80562646791130        2.65305677745636       -1.71672955908132
C           -3.19726726267995        1.41381198700397       -1.58114124864332
C           -2.20180995723150        0.99795134640027       -2.62400143217595
C           -4.75035941397949       -2.13238278607991       -0.95980371338698
C           -5.11738664022423       -1.26527334067364       -2.12782614061864
C           -5.49076547646256       -3.28022018358719       -0.72637849015545
H           -7.06584697230185       -5.16447348743216        0.53535007257328
H           -5.82979087493836       -6.09801254659796       -0.30139971485510
H           -5.73378153384498       -5.88650984256818        1.44986359684834
H           -3.87849131311563       -4.49445039204648        1.95724186754525
H           -2.51934620008702       -2.82381254729477        2.90507904697126
H           -2.07178959063732       -1.34805474518004        2.03771449041725
H           -1.33681921727923       -2.88379765995022        1.59728977726138
H           -1.45162109835522       -2.74734575592126       -1.10129766582719
H            1.00009640750817       -2.85697752834472       -1.13041290991952
H           -1.24381941090023        1.25607076832793        0.37324508010296
H            3.37236872197966        2.78278133983011        1.94377835135057
H            4.08117219343842        2.42275918172429        4.25833464311388
H            3.02532702596005        0.65146082281979        5.62225182201545
H            1.23275416732074       -0.73550813120803        4.63623907155960
H            0.51506676463425       -0.36663483268761        2.32845617240711
H            0.83492259429712        2.66898811930742       -1.79288150199717
H           -0.49062657303700        4.70538123342726       -2.15964866906064
H           -1.38954058359663        5.96134460397735       -0.23030477850750
H           -0.95360714291488        5.15125273802878        2.06172930346826
H            0.36590321960680        3.11836733657869        2.42543606990671
H            3.01199885785242        3.62168078388319       -0.30492625860250
H            5.20937235408315        3.56092276934620       -1.40088795475514
H            6.21320257492440        1.43575076234089       -2.05352081930382
H            2.03739338063248       -2.87928074356947        1.19175833503686
H            3.45507173175981       -4.82339706936300        1.72054673608032
H            5.68661683881890       -5.03369042667709        0.67290166449616
H            6.46503070415898       -3.34618342550674       -0.90156510265412
H            7.14858215798732       -0.88330250727355       -1.28659696178102
H            6.85801312842505       -2.09041299184616       -2.55076487552843
H            6.77643520336201       -0.38962961360442       -2.94658999575752
H            3.21403873944987       -1.45027274849734       -2.95785729819923
H            4.57827560308522       -2.42682796548115       -3.50756002368560
H            4.50247093279115       -0.70255997811244       -3.90378174274866
H           -5.49873188789850       -0.62201273720690        1.34248140115236
H           -4.00432865349625       -0.15387933940508        2.14439930321949
H           -5.45140739150569        0.83996204188794        2.32965592215689
H           -5.82046968294888        2.62209210610037        0.96649221147836
H           -5.09401449744548        4.92718172862216       -1.89741251345231
H           -6.48246877494815        4.36009343240968       -0.95856163236660
H           -5.11327888708825        5.10394753531182       -0.13910915521436
H           -3.53482278207672        3.27259750130975       -2.56014391790470
H           -1.20263977492406        1.33180403506357       -2.34317865521735
H           -2.16533340287309       -0.08195414432575       -2.74543007161016
H           -2.45500257796115        1.45162354382421       -3.58039170248102
H           -4.23634353062579       -0.99960425021082       -2.70655040133021
H           -5.59030748217958       -0.34071978193801       -1.79755642832284
H           -5.81308815201692       -1.79077004335416       -2.77819995580953
H           -6.31893222242681       -3.50931194076261       -1.38294525402931

          :  Hamiltonian                  GFN2-xTB          :
         :: gradient norm              0.000054680885 Eh/a0 ::
         :: HOMO-LUMO gap              2.823042695756 eV    ::
         :: SCC energy              -144.403729870796 Eh    ::
         :: -> dispersion             -0.156915340129 Eh    ::
         :: -> Gsolv                  -0.047788694145 Eh    ::
         :: repulsion energy           2.575891504097 Eh    ::

    * Orbital Energies and Occupations

         #    Occupation            Energy/Eh            Energy/eV
      -------------------------------------------------------------
         1        2.0000           -0.6655956             -18.1118
       ...           ...                  ...                  ...
       121        2.0000           -0.4023017             -10.9472
       122        2.0000           -0.4007799             -10.9058
       123        2.0000           -0.3967873             -10.7971
       124        2.0000           -0.3956164             -10.7653
       125        2.0000           -0.3931720             -10.6988
       126        2.0000           -0.3902690             -10.6198
       127        2.0000           -0.3881832             -10.5630
       128        2.0000           -0.3864329             -10.5154
       129        2.0000           -0.3841784             -10.4540
       130        2.0000           -0.3831750             -10.4267
       131        2.0000           -0.3815295             -10.3819
       132        2.0000           -0.3543357              -9.6420
       133        2.0000           -0.3305149              -8.9938 (HOMO)
       134                         -0.2267699              -6.1707 (LUMO)
       135                         -0.2242429              -6.1020
       136                         -0.2230894              -6.0706
       137                         -0.2216126              -6.0304
       138                         -0.2203940              -5.9972
       139                         -0.2190718              -5.9612
       140                         -0.2182343              -5.9385
       141                         -0.2176264              -5.9219
       142                         -0.2160562              -5.8792
       143                         -0.2126167              -5.7856
       144                         -0.2114367              -5.7535
       ...                                ...                  ...
       264                          0.6912595              18.8101
      -------------------------------------------------------------
                  HL-Gap            0.1037449 Eh            2.8230 eV

     #   Z          covCN         q      C6AA      α(0)
     1   6 C        3.757    -0.107    22.602     6.778
     2   6 C        2.961     0.005    27.909     8.665
     3   6 C        2.932    -0.057    29.428     8.897
     4   6 C        2.964    -0.003    28.104     8.696
     5   6 C        3.758    -0.099    22.433     6.753
     6   6 C        2.922     0.045    27.001     8.521
     7   7 N        2.749    -0.079    22.784     7.089
     8   6 C        2.922     0.064    26.569     8.453
     9   6 C        2.921    -0.056    29.388     8.890
    10   6 C        2.920    -0.053    29.314     8.879
    11   6 C        2.931     0.046    26.974     8.517
    12   6 C        2.985    -0.008    28.213     8.713
    13   6 C        2.926    -0.059    29.471     8.903
    14   6 C        3.922     0.012    20.310     6.405
    15   6 C        2.979     0.012    27.733     8.638
    16   6 C        2.925    -0.036    28.900     8.816
    17   6 C        2.919    -0.032    28.791     8.799
    18   6 C        2.919    -0.034    28.840     8.807
    19   6 C        2.920    -0.032    28.791     8.799
    20   6 C        2.924    -0.036    28.905     8.817
    21   6 C        2.977     0.014    27.705     8.634
    22   6 C        2.926    -0.032    28.789     8.799
    23   6 C        2.919    -0.030    28.745     8.792
    24   6 C        2.920    -0.033    28.811     8.802
    25   6 C        2.920    -0.031    28.780     8.797
    26   6 C        2.923    -0.036    28.903     8.816
    27   6 C        2.987    -0.011    28.287     8.724
    28   6 C        2.922    -0.041    29.020     8.834
    29   6 C        2.917    -0.046    29.150     8.854
    30   6 C        2.923    -0.044    29.105     8.847
    31   6 C        2.983    -0.014    28.365     8.736
    32   6 C        2.955     0.051    26.854     8.500
    33   7 N        2.759    -0.068    22.560     7.054
    34   6 C        2.937     0.058    26.695     8.474
    35   6 C        2.921    -0.053    29.309     8.878
    36   6 C        2.919    -0.036    28.895     8.815
    37   6 C        2.918    -0.045    29.111     8.848
    38   6 C        2.923    -0.041    29.024     8.835
    39   6 C        2.983    -0.013    28.339     8.732
    40   6 C        3.910     0.022    20.145     6.380
    41   6 C        3.758    -0.106    22.581     6.775
    42   6 C        3.764    -0.099    22.426     6.750
    43   6 C        2.924     0.044    27.005     8.522
    44   6 C        2.964    -0.004    28.119     8.698
    45   6 C        3.758    -0.103    22.528     6.767
    46   6 C        2.933    -0.058    29.452     8.900
    47   6 C        2.961     0.005    27.901     8.664
    48   6 C        3.757    -0.107    22.591     6.776
    49   6 C        2.933    -0.057    29.410     8.894
    50   6 C        2.965    -0.002    28.077     8.691
    51   6 C        3.758    -0.101    22.482     6.760
    52   6 C        2.964    -0.004    28.116     8.697
    53   6 C        3.758    -0.104    22.545     6.769
    54   6 C        2.933    -0.058    29.445     8.899
    55   1 H        0.925     0.044     2.397     2.421
    56   1 H        0.924     0.045     2.382     2.413
    57   1 H        0.925     0.040     2.445     2.445
    58   1 H        0.925     0.028     2.611     2.527
    59   1 H        0.925     0.042     2.421     2.433
    60   1 H        0.925     0.036     2.498     2.471
    61   1 H        0.924     0.042     2.427     2.436
    62   1 H        0.926     0.028     2.619     2.531
    63   1 H        0.926     0.029     2.601     2.522
    64   1 H        0.926     0.026     2.647     2.544
    65   1 H        0.926     0.031     2.567     2.505
    66   1 H        0.926     0.030     2.591     2.517
    67   1 H        0.926     0.030     2.584     2.514
    68   1 H        0.926     0.030     2.580     2.512
    69   1 H        0.926     0.029     2.603     2.523
    70   1 H        0.925     0.025     2.654     2.548
    71   1 H        0.926     0.031     2.566     2.505
    72   1 H        0.926     0.031     2.574     2.509
    73   1 H        0.926     0.029     2.601     2.522
    74   1 H        0.926     0.027     2.626     2.534
    75   1 H        0.926     0.027     2.636     2.539
    76   1 H        0.926     0.027     2.628     2.535
    77   1 H        0.926     0.037     2.484     2.465
    78   1 H        0.926     0.028     2.622     2.532
    79   1 H        0.926     0.028     2.620     2.531
    80   1 H        0.926     0.027     2.632     2.537
    81   1 H        0.926     0.037     2.486     2.466
    82   1 H        0.925     0.036     2.496     2.471
    83   1 H        0.925     0.042     2.423     2.434
    84   1 H        0.925     0.042     2.423     2.434
    85   1 H        0.925     0.033     2.543     2.494
    86   1 H        0.925     0.039     2.464     2.455
    87   1 H        0.925     0.039     2.467     2.456
    88   1 H        0.925     0.044     2.401     2.423
    89   1 H        0.925     0.045     2.384     2.415
    90   1 H        0.925     0.040     2.453     2.449
    91   1 H        0.925     0.028     2.612     2.527
    92   1 H        0.925     0.040     2.443     2.444
    93   1 H        0.925     0.044     2.393     2.419
    94   1 H        0.925     0.045     2.386     2.415
    95   1 H        0.926     0.028     2.610     2.527
    96   1 H        0.924     0.045     2.390     2.417
    97   1 H        0.925     0.038     2.475     2.460
    98   1 H        0.925     0.042     2.420     2.432
    99   1 H        0.925     0.046     2.374     2.409
   100   1 H        0.925     0.044     2.402     2.424
   101   1 H        0.925     0.040     2.448     2.447
   102   1 H        0.925     0.028     2.610     2.526

molecular dipole:
                 x           y           z       tot (Debye)
 q only:       -0.435      -0.025      -0.318
   full:       -0.429      -0.018      -0.242       1.253

 projected vibrational frequencies (cm⁻¹)
eigval :       -0.00    -0.00    -0.00     0.00     0.00     0.00
eigval :        6.44    16.24    18.24    22.22    29.16    36.62
eigval :       40.72    45.44    46.27    53.43    60.70    65.35
eigval :       65.97    68.96    81.19    84.49    97.70   107.24
eigval :      113.04   119.62   137.13   154.80   160.69   165.84
eigval :      170.98   173.40   175.72   177.09   189.24   193.35
eigval :      199.28   207.00   211.60   214.55   217.39   223.91
eigval :      228.47   246.80   251.27   262.48   268.32   275.13
eigval :      279.44   282.58   284.87   295.56   300.56   308.79
eigval :      319.82   337.40   338.79   353.03   360.35   363.25
eigval :      368.35   372.65   374.13   386.42   394.28   403.90
eigval :      434.09   440.14   445.18   461.36   469.01   479.76
eigval :      488.18   493.31   493.84   497.06   498.27   502.37
eigval :      505.34   524.64   527.34   537.50   538.88   554.23
eigval :      555.75   566.95   578.58   582.47   588.63   589.73
eigval :      595.16   599.29   601.08   606.72   621.26   633.83
eigval :      649.09   654.23   669.71   670.87   674.84   680.35
eigval :      684.85   696.68   710.58   731.75   738.44   756.40
eigval :      761.84   773.85   798.77   819.12   830.04   842.79
eigval :      851.28   873.00   874.73   877.16   880.68   886.53
eigval :      888.29   892.74   895.99   897.41   899.45   902.94
eigval :      905.61   910.41   912.78   917.38   921.77   922.96
eigval :      925.25   926.81   929.83   930.85   935.74   937.06
eigval :      959.67   966.71   966.96   976.44   977.16   978.10
eigval :      996.21  1004.28  1007.77  1017.89  1022.82  1022.90
eigval :     1030.72  1031.06  1031.64  1032.45  1035.34  1035.44
eigval :     1039.48  1042.79  1048.83  1054.15  1074.05  1086.85
eigval :     1090.13  1101.90  1121.44  1124.85  1128.07  1133.77
eigval :     1135.76  1146.19  1149.64  1174.66  1177.65  1178.97
eigval :     1180.48  1184.12  1187.10  1198.67  1199.25  1202.42
eigval :     1207.99  1210.17  1222.76  1232.35  1237.18  1242.08
eigval :     1244.66  1249.65  1254.33  1268.18  1269.51  1280.73
eigval :     1286.28  1289.53  1295.29  1314.75  1315.92  1316.89
eigval :     1319.36  1322.87  1328.60  1333.04  1335.16  1343.62
eigval :     1356.51  1374.49  1393.75  1401.70  1402.06  1402.87
eigval :     1404.01  1406.15  1408.54  1410.77  1424.34  1430.43
eigval :     1433.40  1438.14  1440.10  1443.72  1446.31  1454.52
eigval :     1457.08  1459.95  1472.92  1473.61  1476.06  1478.64
eigval :     1479.14  1479.92  1480.19  1482.17  1483.07  1484.55
eigval :     1486.73  1487.90  1489.59  1490.47  1490.85  1491.94
eigval :     1494.54  1496.20  1502.86  1523.10  1554.43  1568.91
eigval :     1572.02  1576.03  1581.50  1584.74  1586.64  1588.37
eigval :     1596.00  1598.69  1600.68  1603.01  1603.68  1605.36
eigval :     2986.40  2994.91  2995.88  2998.46  3002.59  3004.47
eigval :     3014.16  3015.65  3021.68  3022.11  3023.64  3023.92
eigval :     3030.00  3030.87  3032.51  3032.93  3035.19  3036.92
eigval :     3037.98  3040.20  3041.06  3042.93  3043.13  3047.68
eigval :     3062.16  3062.97  3063.57  3066.29  3067.05  3068.28
eigval :     3069.16  3069.48  3069.80  3071.83  3074.78  3075.23
eigval :     3080.27  3082.01  3083.01  3083.33  3086.47  3090.30
eigval :     3090.67  3091.22  3091.61  3094.78  3108.34  3111.86

   temp. (K)  partition function   enthalpy   heat capacity  entropy
                                   cal/mol     cal/K/mol   cal/K/mol   J/K/mol
 298.15  VIB  0.794E+22            29088.425    181.189    180.553
         ROT  0.782E+08              888.752      2.981     39.098
         INT  0.621E+30            29977.178    184.170    219.651
         TR   0.180E+29             1481.254      4.968     45.502
         TOT                       31458.4315   189.1384   265.1532  1109.4009

       T/K    H(0)-H(T)+PV         H(T)/Eh          T*S/Eh         G(T)/Eh
   ------------------------------------------------------------------------
    298.15    0.501322E-01    0.882705E+00    0.125983E+00    0.756722E+00
   ------------------------------------------------------------------------

         :::::::::::::::::::::::::::::::::::::::::::::::::::::
         ::                  THERMODYNAMIC                  ::
         :::::::::::::::::::::::::::::::::::::::::::::::::::::
         :: total free energy        -141.071116339921 Eh   ::
         ::.................................................::
         :: total energy             -141.827838368893 Eh   ::
         :: zero point energy           0.832572660283 Eh   ::
         :: G(RRHO) w/o ZPVE           -0.075850631311 Eh   ::
         :: G(RRHO) contrib.            0.756722028972 Eh   ::
         :::::::::::::::::::::::::::::::::::::::::::::::::::::

           -------------------------------------------------
          | TOTAL ENERGY             -141.827838368893 Eh   |
          | TOTAL ENTHALPY           -140.945133507037 Eh   |
          | TOTAL FREE ENERGY        -141.071116339921 Eh   |
          | GRADIENT NORM               0.000054685638 Eh/α |
          | HOMO-LUMO GAP               2.823043066364 eV   |
           -------------------------------------------------

 * finished run on 2025/09/13 at 08:43:17.103
