   * xtb version 6.7.1 (edcfbbe) compiled by 'albert@albert-system' on 2024-07-22

   ID    Z sym.   atoms
    1    6 C      1-6, 8-32, 34-54
    2    7 N      7, 33
    3    1 H      55-102

          program call               : xtb data2507/toluene/DMACN-B/DMACN-B_toluene_T1_crest.xyz --gfn 2 --uhf 2 --gbsa toluene --ohess vtight --parallel 40 --molden --ceasefiles --namespace data2507/toluene/DMACN-B/DMACN-B_toluene_T1_finalOpt
      * Solvation model:               GBSA
        Solvent                        toluene
        Solvent mass                       9.2140E+01 g/mol
          :  Hamiltonian                  GFN2-xTB          :
 * total energy  :  -141.7242703 Eh     change       -0.5945822E-08 Eh
 * total energy  :  -141.7244731 Eh     change       -0.2027936E-03 Eh
 * total energy  :  -141.7245610 Eh     change       -0.8791334E-04 Eh
 * total energy  :  -141.7245899 Eh     change       -0.2889027E-04 Eh
 * total energy  :  -141.7246165 Eh     change       -0.2659925E-04 Eh
 * total energy  :  -141.7246415 Eh     change       -0.2500336E-04 Eh
 * total energy  :  -141.7246617 Eh     change       -0.2020073E-04 Eh
 * total energy  :  -141.7246781 Eh     change       -0.1636492E-04 Eh
 * total energy  :  -141.7246921 Eh     change       -0.1401934E-04 Eh
 * total energy  :  -141.7247032 Eh     change       -0.1103739E-04 Eh
 * total energy  :  -141.7249377 Eh     change       -0.2161364E-06 Eh
 * total energy  :  -141.7249379 Eh     change       -0.1849922E-06 Eh
 * total energy  :  -141.7249381 Eh     change       -0.2515578E-06 Eh
 * total energy  :  -141.7249383 Eh     change       -0.1805614E-06 Eh
 * total energy  :  -141.7249385 Eh     change       -0.1964985E-06 Eh
 * total energy  :  -141.7249387 Eh     change       -0.1529932E-06 Eh
 * total energy  :  -141.7249388 Eh     change       -0.1484651E-06 Eh
 * total energy  :  -141.7249390 Eh     change       -0.1404293E-06 Eh
 * total energy  :  -141.7249390 Eh     change       -0.8595950E-07 Eh
   *** GEOMETRY OPTIMIZATION CONVERGED AFTER 62 ITERATIONS ***

 final structure:
================
102
 xtb: 6.7.1 (edcfbbe)
C           -5.86644564684416       -5.44233123472884        0.47034020702648
C           -5.10079413468842       -4.17109504589522        0.26758813790432
C           -4.01805513256000       -3.86122879132174        1.08642799109748
C           -3.28734678019146       -2.69778876675180        0.93102111040942
C           -2.17133285174553       -2.43288135810334        1.90113491792876
C           -3.64191450806211       -1.79460730828125       -0.09119371815804
N           -2.89358783562441       -0.62226888084994       -0.29171188844171
C           -1.52308203062395       -0.70350151810281       -0.34477528696212
C           -0.87784114933685       -1.87454448491326       -0.84617344463915
C            0.47481559595544       -1.94576655432878       -0.89469956323915
C            1.28702712993124       -0.86226345863777       -0.44352845718762
C            0.64708843445955        0.34359836109112       -0.00159237241225
C           -0.71311731568316        0.39008720779182        0.05902198258940
C            1.49749218582385        1.50017857506508        0.47594402261748
C            1.69652847800726        1.43754889329076        1.98761308478895
C            2.11440635915863        2.56252894908216        2.70069289894120
C            2.35193781505234        2.49327273867290        4.05954023293077
C            2.18802172335153        1.29820616958946        4.74224914861675
C            1.78101667290220        0.17168032418319        4.04295938506792
C            1.53947620005463        0.24250956220688        2.68423687984834
C            0.80467353715934        2.76576685023319        0.00060794819542
C            0.97349282965501        3.18022582866581       -1.31775473109640
C            0.32766379652202        4.30325399480139       -1.79726953729683
C           -0.51359170817567        5.03181966683866       -0.96785096897529
C           -0.71406659502728        4.61038373794969        0.33505880689155
C           -0.06758452167866        3.48522762587756        0.81503192051431
C            2.90510178365133        1.41649127839225       -0.07811521910374
C            3.73451051573900        2.53040150376519       -0.09603804551042
C            5.03780632222331        2.43629503470540       -0.53591593371055
C            5.54003994618556        1.22102971279066       -0.99950732252721
C            4.74471232385642        0.09029110735197       -1.00596917286862
C            3.43641623652489        0.18793012659052       -0.51143729905306
N            2.64893487937059       -0.95812050504217       -0.45282783495832
C            3.31573505874080       -2.16246222843847       -0.23800639960155
C            2.74207688018429       -3.15370642243523        0.57318384118503
C            3.42795811426768       -4.31864331835718        0.83284391678613
C            4.69689932945167       -4.50901707386013        0.30578151667175
C            5.28034948115713       -3.51384281885849       -0.47402754745609
C            4.61101137182777       -2.33825526603500       -0.75528491495261
C            5.16353379220624       -1.23014128603385       -1.62637025794218
C            6.67587570334609       -1.33647006027578       -1.82516545522779
C            4.48881858140467       -1.32738295842981       -3.01359728774765
C           -3.52073053455582        0.62716016076964       -0.43914218403918
C           -4.50531951979586        1.03732281356356        0.48311296999509
C           -4.91171672808061        0.18566095080539        1.64930101386186
C           -5.09771286125012        2.27975433174486        0.32792789583729
C           -4.75586869922815        3.13704287676679       -0.70731854798030
C           -5.41719199001367        4.47087344121881       -0.87151544888510
C           -3.78559835454604        2.71321266087577       -1.61021494672894
C           -3.16118164368559        1.48471856072359       -1.49776912511057
C           -2.15555304170614        1.10777179229016       -2.54666827202693
C           -4.74166089651458       -2.08750381055791       -0.92478009070549
C           -5.16000177897130       -1.18151113895434       -2.04456295560929
C           -5.44309366764728       -3.26546543060558       -0.72527548013695
H           -6.67998515955948       -5.52587348010530       -0.24596229800490
H           -5.20976697145058       -6.30448750881512        0.35381459324243
H           -6.28325952331607       -5.47850151840697        1.47687206561554
H           -3.74759713820907       -4.54496940954002        1.87885741746599
H           -1.98032388620466       -1.37044332810467        2.02955938693057
H           -1.24769511450896       -2.89609134059162        1.55382161694592
H           -2.41841499099651       -2.86335840983549        2.87004131678682
H           -1.48733961753287       -2.68038724198158       -1.22776770719868
H            0.96381939841603       -2.80978285923268       -1.31994297420266
H           -1.20777370589520        1.26812772312118        0.44601432005900
H            2.24956782589250        3.50419865860286        2.19054429543403
H            2.66958744439828        3.37975649378622        4.59076685126294
H            2.37593288485666        1.24466558865743        5.80461269494435
H            1.65008527552462       -0.76849563515285        4.56005974501273
H            1.21744789992345       -0.64607755151601        2.16203387507893
H            1.62458947941287        2.61688923551591       -1.97232105985700
H            0.47812497239648        4.61186349589019       -2.82215018305209
H           -1.01178653132993        5.91548698136476       -1.33914921097311
H           -1.38229240419873        5.15797357520160        0.98495203318727
H           -0.24109068115547        3.16562732016532        1.83269221222222
H            3.34752745857531        3.48572408196366        0.22430627405599
H            5.66887377466831        3.31255418252169       -0.54472211088675
H            6.55123246856021        1.18689532451869       -1.36829131972580
H            1.77268020556703       -2.98132133387262        1.01491614723682
H            2.98007532016158       -5.07649815690973        1.45906711267510
H            5.24003268153441       -5.41986064858720        0.50687557204097
H            6.27433575210682       -3.67980765035172       -0.85581997761473
H            7.19874468197844       -1.26657133424210       -0.87379166192050
H            6.92657838129364       -2.28107601343712       -2.30062721870320
H            7.02520303357190       -0.54435352605997       -2.48197862790095
H            4.73838263162018       -2.27739087465637       -3.48180284051347
H            4.83584422424995       -0.51776538296173       -3.65239422888004
H            3.40690170743176       -1.25824098167897       -2.92934319879296
H           -4.04411130241093       -0.24543410432971        2.14282806853784
H           -5.45758590278895        0.78569210146083        2.37409452816129
H           -5.55764961868420       -0.63319989109080        1.33244528597455
H           -5.84676043963581        2.58989463616237        1.04357216236013
H           -6.02633837755532        4.71385136238421       -0.00426206414848
H           -4.67190088275127        5.25286997579414       -1.00862029255884
H           -6.05909902578479        4.46701690702027       -1.75336449581596
H           -3.51397908354503        3.36072614138344       -2.43164477683076
H           -1.16464662137012        1.46506405323193       -2.26442326666863
H           -2.09219097857079        0.03193850389175       -2.69061121685967
H           -2.42195413731638        1.57337332228070       -3.49379460350443
H           -5.69177744698398       -0.30855047316204       -1.66584548048959
H           -5.82320441804470       -1.71340840992902       -2.72328795849320
H           -4.30023664818602       -0.82805608816727       -2.60833734621978
H           -6.28009555057321       -3.48620170211089       -1.37327426005262

          :  Hamiltonian                  GFN2-xTB          :
         :: gradient norm              0.000047324125 Eh/a0 ::
         :: HOMO-LUMO gap              0.165380448592 eV    ::
         :: SCC energy              -144.281292976595 Eh    ::
         :: -> dispersion             -0.157057374273 Eh    ::
         :: -> Gsolv                  -0.048162957954 Eh    ::
         :: repulsion energy           2.556353917272 Eh    ::

    * Orbital Energies and Occupations

         #    Occupation            Energy/Eh            Energy/eV
      -------------------------------------------------------------
         1        2.0000           -0.6709799             -18.2583
       ...           ...                  ...                  ...
       122        2.0000           -0.3969056             -10.8004
       123        2.0000           -0.3955803             -10.7643
       124        2.0000           -0.3944490             -10.7335
       125        2.0000           -0.3920276             -10.6676
       126        2.0000           -0.3895077             -10.5990
       127        2.0000           -0.3878935             -10.5551
       128        2.0000           -0.3866909             -10.5224
       129        2.0000           -0.3845853             -10.4651
       130        2.0000           -0.3828746             -10.4185
       131        2.0000           -0.3811588             -10.3719
       132        2.0000           -0.3595849              -9.7848
       133        1.0000           -0.3310638              -9.0087
       134        0.9603           -0.2323083              -6.3214 (HOMO)
       135        0.0387           -0.2262307              -6.1561 (LUMO)
       136        0.0006           -0.2222829              -6.0486
       137        0.0004           -0.2217956              -6.0354
       138        0.0000           -0.2179171              -5.9298
       139        0.0000           -0.2170781              -5.9070
       140        0.0000           -0.2166299              -5.8948
       141        0.0000           -0.2141009              -5.8260
       142                         -0.2133260              -5.8049
       143                         -0.2126008              -5.7852
       144                         -0.2116970              -5.7606
       145                         -0.2065960              -5.6218
       ...                                ...                  ...
       264                          0.6885853              18.7374
      -------------------------------------------------------------
                  HL-Gap            0.0060776 Eh            0.1654 eV

     #   Z          covCN         q      C6AA      α(0)
     1   6 C        3.757    -0.108    22.613     6.780
     2   6 C        2.960     0.006    27.880     8.661
     3   6 C        2.932    -0.059    29.464     8.902
     4   6 C        2.962     0.003    27.945     8.671
     5   6 C        3.758    -0.101    22.486     6.760
     6   6 C        2.928     0.035    27.212     8.555
     7   7 N        2.748    -0.020    21.643     6.909
     8   6 C        2.927     0.037    27.182     8.550
     9   6 C        2.910    -0.050    29.251     8.869
    10   6 C        2.910    -0.052    29.283     8.873
    11   6 C        2.928     0.023    27.495     8.599
    12   6 C        2.977    -0.007    28.198     8.710
    13   6 C        2.916    -0.054    29.335     8.882
    14   6 C        3.921     0.015    20.269     6.399
    15   6 C        2.986     0.006    27.872     8.660
    16   6 C        2.923    -0.039    28.975     8.827
    17   6 C        2.918    -0.034    28.849     8.808
    18   6 C        2.918    -0.042    29.037     8.837
    19   6 C        2.918    -0.036    28.896     8.815
    20   6 C        2.923    -0.040    28.997     8.831
    21   6 C        2.981     0.008    27.836     8.655
    22   6 C        2.924    -0.037    28.909     8.817
    23   6 C        2.918    -0.035    28.862     8.810
    24   6 C        2.919    -0.038    28.947     8.823
    25   6 C        2.918    -0.032    28.806     8.801
    26   6 C        2.922    -0.039    28.968     8.826
    27   6 C        2.990    -0.012    28.293     8.725
    28   6 C        2.921    -0.040    28.999     8.831
    29   6 C        2.916    -0.046    29.133     8.851
    30   6 C        2.921    -0.053    29.304     8.877
    31   6 C        2.982    -0.009    28.225     8.715
    32   6 C        2.954     0.037    27.178     8.551
    33   7 N        2.755    -0.009    21.438     6.877
    34   6 C        2.944     0.043    27.032     8.527
    35   6 C        2.919    -0.049    29.222     8.865
    36   6 C        2.916    -0.036    28.888     8.814
    37   6 C        2.917    -0.047    29.155     8.854
    38   6 C        2.921    -0.044    29.087     8.844
    39   6 C        2.982    -0.007    28.188     8.709
    40   6 C        3.911     0.022    20.146     6.380
    41   6 C        3.758    -0.106    22.584     6.775
    42   6 C        3.764    -0.098    22.412     6.748
    43   6 C        2.927     0.036    27.204     8.554
    44   6 C        2.962    -0.001    28.061     8.689
    45   6 C        3.758    -0.105    22.562     6.772
    46   6 C        2.930    -0.056    29.391     8.891
    47   6 C        2.961     0.007    27.862     8.658
    48   6 C        3.757    -0.107    22.599     6.778
    49   6 C        2.932    -0.057    29.426     8.896
    50   6 C        2.962     0.004    27.934     8.669
    51   6 C        3.758    -0.103    22.510     6.764
    52   6 C        2.962    -0.002    28.066     8.690
    53   6 C        3.758    -0.106    22.573     6.774
    54   6 C        2.930    -0.056    29.387     8.890
    55   1 H        0.925     0.041     2.435     2.440
    56   1 H        0.925     0.046     2.367     2.406
    57   1 H        0.925     0.047     2.363     2.404
    58   1 H        0.926     0.032     2.558     2.501
    59   1 H        0.925     0.039     2.456     2.451
    60   1 H        0.925     0.045     2.387     2.416
    61   1 H        0.925     0.045     2.387     2.416
    62   1 H        0.926     0.029     2.599     2.521
    63   1 H        0.926     0.031     2.573     2.508
    64   1 H        0.926     0.029     2.604     2.524
    65   1 H        0.926     0.026     2.651     2.546
    66   1 H        0.926     0.023     2.685     2.563
    67   1 H        0.926     0.022     2.700     2.570
    68   1 H        0.926     0.023     2.681     2.561
    69   1 H        0.926     0.022     2.700     2.569
    70   1 H        0.925     0.021     2.719     2.579
    71   1 H        0.926     0.025     2.662     2.551
    72   1 H        0.926     0.024     2.679     2.560
    73   1 H        0.926     0.024     2.675     2.558
    74   1 H        0.926     0.024     2.669     2.555
    75   1 H        0.926     0.025     2.656     2.548
    76   1 H        0.926     0.025     2.656     2.549
    77   1 H        0.926     0.035     2.512     2.479
    78   1 H        0.926     0.029     2.594     2.519
    79   1 H        0.926     0.028     2.608     2.525
    80   1 H        0.926     0.027     2.636     2.539
    81   1 H        0.926     0.037     2.486     2.465
    82   1 H        0.925     0.038     2.480     2.463
    83   1 H        0.925     0.043     2.405     2.425
    84   1 H        0.925     0.043     2.408     2.427
    85   1 H        0.925     0.041     2.432     2.439
    86   1 H        0.925     0.040     2.446     2.446
    87   1 H        0.925     0.033     2.538     2.491
    88   1 H        0.925     0.046     2.377     2.411
    89   1 H        0.925     0.042     2.423     2.434
    90   1 H        0.925     0.047     2.361     2.403
    91   1 H        0.925     0.030     2.581     2.513
    92   1 H        0.925     0.041     2.431     2.438
    93   1 H        0.925     0.045     2.382     2.414
    94   1 H        0.924     0.048     2.351     2.398
    95   1 H        0.926     0.031     2.572     2.508
    96   1 H        0.924     0.046     2.369     2.407
    97   1 H        0.925     0.040     2.443     2.444
    98   1 H        0.925     0.045     2.389     2.417
    99   1 H        0.925     0.046     2.370     2.407
   100   1 H        0.925     0.042     2.417     2.431
   101   1 H        0.925     0.046     2.372     2.408
   102   1 H        0.925     0.030     2.583     2.514

molecular dipole:
                 x           y           z       tot (Debye)
 q only:       -1.136      -0.763      -0.747
   full:       -1.092      -0.704      -0.671       3.715

 projected vibrational frequencies (cm⁻¹)
eigval :       -0.00    -0.00    -0.00     0.00     0.00     0.00
eigval :      -18.23    14.39    17.38    20.81    29.51    34.30
eigval :       40.33    42.25    44.03    49.37    52.41    59.81
eigval :       64.30    69.03    81.85    85.32    89.14   101.32
eigval :      109.34   117.73   133.44   154.05   161.95   167.24
eigval :      168.82   175.61   178.37   181.70   182.93   186.99
eigval :      195.50   196.95   207.75   209.52   211.37   222.00
eigval :      225.54   239.98   249.48   262.93   267.07   274.69
eigval :      278.88   282.06   285.08   297.59   302.89   304.41
eigval :      323.56   326.12   338.87   345.08   349.98   360.56
eigval :      365.06   373.61   382.24   386.67   393.92   406.97
eigval :      424.96   433.62   438.02   446.06   456.07   464.88
eigval :      475.36   484.94   491.38   493.52   493.88   494.94
eigval :      498.22   506.05   519.13   526.38   528.17   543.93
eigval :      550.27   567.86   574.05   576.63   578.72   588.16
eigval :      589.22   591.91   594.33   598.46   611.09   618.86
eigval :      626.78   646.60   649.25   658.61   663.41   667.62
eigval :      673.16   677.43   693.53   726.70   730.83   749.39
eigval :      755.77   756.61   778.95   794.32   813.61   838.34
eigval :      841.44   847.29   857.28   863.77   864.93   872.86
eigval :      874.89   878.88   882.51   883.56   884.57   887.56
eigval :      887.99   889.94   896.71   900.03   904.46   908.76
eigval :      910.31   925.06   925.78   926.40   930.29   940.11
eigval :      952.11   964.38   966.35   969.93   973.30   974.20
eigval :      979.37   986.86  1005.11  1008.47  1016.27  1020.85
eigval :     1025.48  1026.69  1029.25  1029.70  1031.73  1032.45
eigval :     1033.55  1037.86  1040.70  1046.28  1051.17  1071.65
eigval :     1080.13  1083.00  1090.65  1108.61  1117.60  1125.41
eigval :     1129.56  1133.54  1142.13  1146.32  1168.03  1169.00
eigval :     1177.32  1178.83  1179.69  1181.24  1190.25  1193.15
eigval :     1197.81  1203.03  1209.17  1214.74  1222.85  1236.50
eigval :     1241.23  1241.95  1243.08  1257.41  1264.97  1266.14
eigval :     1272.41  1286.04  1289.55  1298.02  1304.96  1319.66
eigval :     1322.70  1323.93  1325.95  1328.29  1331.47  1337.16
eigval :     1344.38  1352.02  1362.33  1376.17  1392.92  1394.23
eigval :     1399.36  1401.82  1403.36  1404.90  1406.25  1408.39
eigval :     1410.47  1411.84  1416.86  1425.42  1431.45  1433.08
eigval :     1436.64  1437.20  1439.47  1451.83  1463.08  1469.15
eigval :     1474.96  1475.17  1475.58  1476.68  1477.72  1478.58
eigval :     1480.00  1481.45  1482.74  1483.56  1483.73  1485.36
eigval :     1489.27  1489.62  1489.83  1490.40  1491.36  1501.31
eigval :     1506.82  1509.87  1511.57  1513.30  1521.96  1532.91
eigval :     1537.64  1550.81  1556.82  1557.32  1571.39  1599.10
eigval :     2989.74  2992.96  2993.97  2996.24  2997.23  2997.76
eigval :     3008.10  3018.55  3022.49  3024.03  3024.20  3025.71
eigval :     3031.62  3031.69  3032.15  3032.47  3035.85  3038.06
eigval :     3040.33  3041.12  3041.26  3041.60  3043.42  3048.67
eigval :     3060.37  3062.02  3062.78  3064.00  3064.56  3065.03
eigval :     3070.19  3070.43  3071.39  3072.86  3075.22  3075.79
eigval :     3075.86  3079.26  3083.64  3085.47  3085.87  3086.24
eigval :     3089.51  3091.57  3092.48  3094.02  3111.25  3117.29

   temp. (K)  partition function   enthalpy   heat capacity  entropy
                                   cal/mol     cal/K/mol   cal/K/mol   J/K/mol
 298.15  VIB  0.938E+22            29456.824    183.043    182.064
         ROT  0.783E+08              888.752      2.981     39.102
         INT  0.735E+30            30345.576    186.024    221.166
         TR   0.180E+29             1481.254      4.968     45.502
         TOT                       31826.8303   190.9920   266.6682  1115.7398

       T/K    H(0)-H(T)+PV         H(T)/Eh          T*S/Eh         G(T)/Eh
   ------------------------------------------------------------------------
    298.15    0.507193E-01    0.876912E+00    0.126703E+00    0.750209E+00
   ------------------------------------------------------------------------

         :::::::::::::::::::::::::::::::::::::::::::::::::::::
         ::                  THERMODYNAMIC                  ::
         :::::::::::::::::::::::::::::::::::::::::::::::::::::
         :: total free energy        -140.974729980019 Eh   ::
         ::.................................................::
         :: total energy             -141.724939062399 Eh   ::
         :: zero point energy           0.826192469795 Eh   ::
         :: G(RRHO) w/o ZPVE           -0.075983387415 Eh   ::
         :: G(RRHO) contrib.            0.750209082380 Eh   ::
         :::::::::::::::::::::::::::::::::::::::::::::::::::::

           -------------------------------------------------
          | TOTAL ENERGY             -141.724939062399 Eh   |
          | TOTAL ENTHALPY           -140.848027310132 Eh   |
          | TOTAL FREE ENERGY        -140.974729980019 Eh   |
          | GRADIENT NORM               0.000045111830 Eh/α |
          | HOMO-LUMO GAP               0.165379270878 eV   |
           -------------------------------------------------

 * finished run on 2025/09/13 at 09:00:06.323
