   * xtb version 6.7.1 (edcfbbe) compiled by 'albert@albert-system' on 2024-07-22

   ID    Z sym.   atoms
    1    6 C      1-6, 8-32, 34-54
    2    7 N      7, 33
    3    1 H      55-102

          program call               : xtb data2507/toluene/DMACN-B/DMACN-B.xyz --gfn 2 --gbsa toluene --ohess vtight --parallel 40 --molden --ceasefiles --namespace data2507/toluene/DMACN-B/DMACN-B_toluene_S0_preOpt
      * Solvation model:               GBSA
        Solvent                        toluene
        Solvent mass                       9.2140E+01 g/mol
          :  Hamiltonian                  GFN2-xTB          :
 * total energy  :  -141.7867459 Eh     change       -0.3480153E-08 Eh
 * total energy  :  -141.8078190 Eh     change       -0.2107308E-01 Eh
 * total energy  :  -141.8176002 Eh     change       -0.9781226E-02 Eh
 * total energy  :  -141.8216341 Eh     change       -0.4033901E-02 Eh
 * total energy  :  -141.8238372 Eh     change       -0.2203109E-02 Eh
 * total energy  :  -141.8247551 Eh     change       -0.9179358E-03 Eh
 * total energy  :  -141.8251154 Eh     change       -0.3602899E-03 Eh
 * total energy  :  -141.8253940 Eh     change       -0.2785495E-03 Eh
 * total energy  :  -141.8256742 Eh     change       -0.2802683E-03 Eh
 * total energy  :  -141.8259528 Eh     change       -0.2785222E-03 Eh
 * total energy  :  -141.8278980 Eh     change       -0.1822875E-06 Eh
 * total energy  :  -141.8278982 Eh     change       -0.2303268E-06 Eh
 * total energy  :  -141.8278985 Eh     change       -0.2797561E-06 Eh
 * total energy  :  -141.8278987 Eh     change       -0.2099507E-06 Eh
 * total energy  :  -141.8278987 Eh     change        0.1471778E-07 Eh
 * total energy  :  -141.8278984 Eh     change        0.2777872E-06 Eh
 * total energy  :  -141.8278978 Eh     change        0.6035387E-06 Eh
 * total energy  :  -141.8278988 Eh     change       -0.9755056E-06 Eh
 * total energy  :  -141.8278989 Eh     change       -0.8167868E-07 Eh
   *** GEOMETRY OPTIMIZATION CONVERGED AFTER 83 ITERATIONS ***

 final structure:
================
102
 xtb: 6.7.1 (edcfbbe)
C           -5.81508751208586       -5.33695459271615        0.17479523668348
C           -4.97971855720821       -4.10338249832675        0.00628371412279
C           -3.95754504973728       -3.80244352350613        0.89183019857561
C           -3.19499759160219       -2.65000192550509        0.77224889730050
C           -2.14074970629752       -2.39331610005118        1.81004043743903
C           -3.44355921198028       -1.76761665957199       -0.29165156617019
N           -2.67045624607328       -0.59686864225187       -0.44185119520018
C           -1.28340240727475       -0.66998154283301       -0.39335911629335
C           -0.60361482739541       -1.81523001861925       -0.81452301214504
C            0.77228801714501       -1.86993452565574       -0.76044382572508
C            1.50899703592504       -0.79614391367116       -0.26460392985908
C            0.84234643628954        0.35756463344279        0.15472954202206
C           -0.53733651934739        0.40926226721618        0.08450216541784
C            1.66469354254150        1.47458197507901        0.77630028423843
C            1.95255338507496        1.06701023024775        2.22314146166444
C            3.20200571357372        1.25114559256195        2.80096720996480
C            3.44053698087157        0.86397985769852        4.10913941012898
C            2.43391959514796        0.28888799135708        4.86401043499303
C            1.18145307984997        0.10970696349471        4.30107111635798
C            0.94509620229517        0.49592713760559        2.99463829724168
C            0.90651191650541        2.78807448237707        0.69357962357426
C            0.59601315656455        3.28729429630361       -0.56899373179620
C           -0.10811859319403        4.46665403926577       -0.71259387220183
C           -0.51659154102344        5.17108243935362        0.40846622657164
C           -0.20328093380136        4.68981421745384        1.66660472414946
C            0.50459297016970        3.50675998022128        1.80978964360297
C            2.97359860860618        1.57728594506161        0.01448937757370
C            3.64948893440462        2.77695623761852       -0.14758517394680
C            4.89790490039547        2.79904375720990       -0.74214938218401
C            5.48014821742643        1.62628522369312       -1.19527328659688
C            4.81857314988898        0.41514616653287       -1.07674533389538
C            3.56522714994706        0.40377794310570       -0.45511989605609
N            2.90301527867025       -0.80776968506295       -0.28748763410070
C            3.68103853366517       -1.94302962236074       -0.09002878592582
C            3.24783416516061       -2.96014508797745        0.75711652528854
C            4.06154215501222       -4.04613765659313        1.00980073150512
C            5.32261964487986       -4.10850497249945        0.44255407462058
C            5.76056344587699       -3.08903228607358       -0.38713379593779
C            4.95222139058009       -2.00125838438979       -0.67687768792803
C            5.32792399435394       -0.89627832215036       -1.64805799803296
C            6.82637412187707       -0.86129779957525       -1.95044124017603
C            4.57204652966678       -1.15436419526160       -2.97028566058177
C           -3.28220354260744        0.66429922988841       -0.61902689782048
C           -4.28617358735920        1.10017146080324        0.25791895266518
C           -4.75251485480561        0.26315030276194        1.41246642338219
C           -4.85608916302271        2.35044001468965        0.06703779841046
C           -4.45480482806338        3.19327052887899       -0.95741446809151
C           -5.08613736127895        4.53968482277054       -1.14824824388972
C           -3.46703524872835        2.74269124185770       -1.81927902901896
C           -2.87990799028805        1.49560243381520       -1.67658955404455
C           -1.83737357690411        1.08304944976688       -2.67402415531487
C           -4.47461104497547       -2.05859769880547       -1.19928197211345
C           -4.78280021318533       -1.16944951710084       -2.36778460977029
C           -5.22500153932532       -3.21160905293116       -1.02696207537747
H           -6.13655132718697       -5.72149589355252       -0.79089955440183
H           -5.26071525924126       -6.11276393556372        0.69804831753841
H           -6.70764550512081       -5.10651262483193        0.75856850120715
H           -3.75315352117397       -4.47659931652628        1.71229203292186
H           -1.18968269365126       -2.83545563609468        1.51077770705074
H           -2.43806730120587       -2.83937033927066        2.75735724837768
H           -1.97391481405886       -1.32980177686348        1.96061709454709
H           -1.16186627869113       -2.65531271716276       -1.20151157378607
H            1.28970901784429       -2.74952937476613       -1.11498611812055
H           -1.05762934202883        1.29518514918866        0.41943483245606
H            4.00129479545159        1.70104049689766        2.23105631172887
H            4.42120593155031        1.01439412429830        4.53757166212799
H            2.62234991443364       -0.01593049091334        5.88313081382868
H            0.38389670548140       -0.33261947022766        4.88093029091091
H           -0.03662057076308        0.35531386608322        2.56761946112966
H            0.92135040837872        2.74305557183417       -1.44488229120045
H           -0.33939093595451        4.83735477244315       -1.70051491290820
H           -1.07115467229099        6.09174351414159        0.30060243948626
H           -0.51018922141901        5.23597732747410        2.54722849153855
H            0.74352881792203        3.14724806241462        2.79979782146082
H            3.20902274582599        3.69327801446291        0.21716526216464
H            5.42459392602789        3.73578940954686       -0.84932081808002
H            6.45450128041476        1.67542581113397       -1.65319727450797
H            2.27745115414418       -2.88256033225189        1.22451191934389
H            3.71694112612319       -4.83448718666637        1.66311944319463
H            5.96787955002573       -4.95086674888317        0.64357867099718
H            6.74741571872800       -3.16203433138053       -0.81483033628813
H            7.40201069279336       -0.67822424293336       -1.04552918737777
H            7.14359722757599       -1.80361440972855       -2.38938347208427
H            7.04548681666868       -0.08108478121720       -2.67464996297551
H            4.88192960103381       -2.10630193683306       -3.39682624097343
H            4.78816604025937       -0.36167166024776       -3.68376449971660
H            3.49756792192995       -1.18412529031232       -2.80561932587445
H           -5.35435378249775       -0.57792650621768        1.06866832169071
H           -3.90864495311438       -0.13774708990060        1.96858958899755
H           -5.35838611093581        0.86249343176739        2.08836633154328
H           -5.62776337071589        2.67984832137482        0.74941190585446
H           -5.89625163032500        4.47385873071262       -1.87617320109426
H           -5.50105717529844        4.90961909373761       -0.21342739587273
H           -4.35783945472308        5.25693744855755       -1.52078804807037
H           -3.14852089331493        3.37700426661669       -2.63461664160338
H           -0.84676424148348        1.38206414685460       -2.33169569161080
H           -1.82039400015386        0.00590063881238       -2.82168823445244
H           -2.02683940734212        1.56671706819729       -3.63042502560170
H           -5.44994332924274       -1.67974353135052       -3.05891430632918
H           -3.87451963257979       -0.89912140166424       -2.90043292175648
H           -5.26601375726539       -0.24797194256853       -2.04397563885415
H           -6.01803781564171       -3.42662693723913       -1.73009717389633

          :  Hamiltonian                  GFN2-xTB          :
         :: gradient norm              0.000047832165 Eh/a0 ::
         :: HOMO-LUMO gap              2.837527705056 eV    ::
         :: SCC energy              -144.403704722253 Eh    ::
         :: -> dispersion             -0.156684482720 Eh    ::
         :: -> Gsolv                  -0.048243709243 Eh    ::
         :: repulsion energy           2.575805822918 Eh    ::

    * Orbital Energies and Occupations

         #    Occupation            Energy/Eh            Energy/eV
      -------------------------------------------------------------
         1        2.0000           -0.6659512             -18.1215
       ...           ...                  ...                  ...
       121        2.0000           -0.4024259             -10.9506
       122        2.0000           -0.3996948             -10.8762
       123        2.0000           -0.3988336             -10.8528
       124        2.0000           -0.3948903             -10.7455
       125        2.0000           -0.3935078             -10.7079
       126        2.0000           -0.3911302             -10.6432
       127        2.0000           -0.3884086             -10.5691
       128        2.0000           -0.3863067             -10.5119
       129        2.0000           -0.3840859             -10.4515
       130        2.0000           -0.3836776             -10.4404
       131        2.0000           -0.3811017             -10.3703
       132        2.0000           -0.3545645              -9.6482
       133        2.0000           -0.3305698              -8.9953 (HOMO)
       134                         -0.2262927              -6.1577 (LUMO)
       135                         -0.2240747              -6.0974
       136                         -0.2236705              -6.0864
       137                         -0.2214663              -6.0264
       138                         -0.2208943              -6.0108
       139                         -0.2194648              -5.9719
       140                         -0.2183722              -5.9422
       141                         -0.2177134              -5.9243
       142                         -0.2152438              -5.8571
       143                         -0.2139546              -5.8220
       144                         -0.2112831              -5.7493
       ...                                ...                  ...
       264                          0.6907022              18.7950
      -------------------------------------------------------------
                  HL-Gap            0.1042772 Eh            2.8375 eV

     #   Z          covCN         q      C6AA      α(0)
     1   6 C        3.757    -0.107    22.600     6.778
     2   6 C        2.961     0.005    27.913     8.666
     3   6 C        2.933    -0.058    29.433     8.897
     4   6 C        2.964    -0.003    28.103     8.695
     5   6 C        3.758    -0.099    22.437     6.753
     6   6 C        2.922     0.044    27.002     8.521
     7   7 N        2.749    -0.080    22.796     7.091
     8   6 C        2.922     0.064    26.570     8.453
     9   6 C        2.921    -0.055    29.377     8.888
    10   6 C        2.920    -0.053    29.320     8.880
    11   6 C        2.931     0.045    26.990     8.520
    12   6 C        2.988    -0.008    28.213     8.713
    13   6 C        2.926    -0.058    29.448     8.899
    14   6 C        3.922     0.012    20.312     6.405
    15   6 C        2.979     0.012    27.730     8.638
    16   6 C        2.924    -0.036    28.907     8.817
    17   6 C        2.920    -0.031    28.783     8.798
    18   6 C        2.919    -0.033    28.834     8.806
    19   6 C        2.919    -0.032    28.794     8.800
    20   6 C        2.925    -0.035    28.882     8.813
    21   6 C        2.977     0.014    27.704     8.634
    22   6 C        2.926    -0.031    28.764     8.795
    23   6 C        2.919    -0.030    28.749     8.793
    24   6 C        2.920    -0.033    28.819     8.803
    25   6 C        2.920    -0.031    28.782     8.798
    26   6 C        2.922    -0.037    28.921     8.819
    27   6 C        2.985    -0.011    28.278     8.723
    28   6 C        2.922    -0.041    29.027     8.835
    29   6 C        2.917    -0.046    29.144     8.853
    30   6 C        2.923    -0.044    29.102     8.847
    31   6 C        2.983    -0.014    28.356     8.735
    32   6 C        2.956     0.052    26.835     8.497
    33   7 N        2.759    -0.068    22.562     7.055
    34   6 C        2.937     0.058    26.692     8.473
    35   6 C        2.921    -0.052    29.301     8.877
    36   6 C        2.919    -0.036    28.891     8.814
    37   6 C        2.918    -0.045    29.105     8.847
    38   6 C        2.923    -0.041    29.021     8.834
    39   6 C        2.984    -0.013    28.333     8.731
    40   6 C        3.910     0.022    20.143     6.379
    41   6 C        3.758    -0.106    22.582     6.775
    42   6 C        3.764    -0.099    22.428     6.750
    43   6 C        2.924     0.044    27.005     8.522
    44   6 C        2.964    -0.004    28.127     8.699
    45   6 C        3.758    -0.103    22.516     6.765
    46   6 C        2.932    -0.058    29.442     8.899
    47   6 C        2.961     0.005    27.900     8.664
    48   6 C        3.757    -0.107    22.591     6.777
    49   6 C        2.933    -0.057    29.416     8.895
    50   6 C        2.965    -0.002    28.071     8.690
    51   6 C        3.758    -0.101    22.478     6.759
    52   6 C        2.964    -0.004    28.125     8.699
    53   6 C        3.758    -0.104    22.541     6.769
    54   6 C        2.933    -0.058    29.442     8.899
    55   1 H        0.925     0.042     2.424     2.435
    56   1 H        0.925     0.041     2.431     2.438
    57   1 H        0.924     0.046     2.373     2.409
    58   1 H        0.925     0.028     2.608     2.525
    59   1 H        0.924     0.042     2.422     2.434
    60   1 H        0.925     0.042     2.422     2.434
    61   1 H        0.925     0.036     2.501     2.473
    62   1 H        0.926     0.028     2.618     2.530
    63   1 H        0.926     0.029     2.602     2.522
    64   1 H        0.926     0.026     2.648     2.545
    65   1 H        0.926     0.028     2.619     2.531
    66   1 H        0.926     0.029     2.598     2.521
    67   1 H        0.926     0.030     2.580     2.512
    68   1 H        0.926     0.031     2.571     2.507
    69   1 H        0.926     0.031     2.577     2.510
    70   1 H        0.925     0.025     2.664     2.553
    71   1 H        0.926     0.031     2.568     2.506
    72   1 H        0.926     0.031     2.578     2.511
    73   1 H        0.926     0.029     2.594     2.519
    74   1 H        0.926     0.028     2.611     2.527
    75   1 H        0.926     0.026     2.645     2.543
    76   1 H        0.926     0.027     2.628     2.535
    77   1 H        0.926     0.038     2.481     2.463
    78   1 H        0.926     0.027     2.635     2.538
    79   1 H        0.926     0.028     2.621     2.532
    80   1 H        0.926     0.027     2.626     2.534
    81   1 H        0.926     0.038     2.479     2.462
    82   1 H        0.925     0.037     2.493     2.469
    83   1 H        0.925     0.042     2.422     2.434
    84   1 H        0.925     0.042     2.422     2.434
    85   1 H        0.925     0.039     2.463     2.454
    86   1 H        0.925     0.039     2.466     2.456
    87   1 H        0.925     0.033     2.543     2.494
    88   1 H        0.925     0.043     2.403     2.424
    89   1 H        0.925     0.044     2.392     2.419
    90   1 H        0.925     0.039     2.456     2.451
    91   1 H        0.925     0.027     2.625     2.534
    92   1 H        0.924     0.046     2.369     2.407
    93   1 H        0.925     0.041     2.437     2.441
    94   1 H        0.925     0.043     2.415     2.430
    95   1 H        0.926     0.029     2.598     2.521
    96   1 H        0.925     0.044     2.398     2.422
    97   1 H        0.925     0.038     2.473     2.459
    98   1 H        0.925     0.042     2.420     2.433
    99   1 H        0.925     0.040     2.452     2.449
   100   1 H        0.925     0.046     2.376     2.411
   101   1 H        0.925     0.043     2.404     2.425
   102   1 H        0.925     0.028     2.620     2.531

molecular dipole:
                 x           y           z       tot (Debye)
 q only:       -0.399      -0.013      -0.350
   full:       -0.411      -0.015      -0.275       1.258

 projected vibrational frequencies (cm⁻¹)
eigval :       -0.00    -0.00    -0.00    -0.00     0.00     0.00
eigval :       15.38    19.21    24.60    29.39    29.95    31.73
eigval :       38.11    44.56    47.05    48.11    58.80    64.14
eigval :       68.50    71.35    76.99    81.82    93.09    99.92
eigval :      116.52   121.15   137.21   150.97   154.35   162.68
eigval :      169.39   172.29   174.79   177.24   190.99   193.99
eigval :      200.09   207.56   211.57   215.27   217.18   225.88
eigval :      233.69   242.37   249.37   261.98   270.60   278.46
eigval :      280.48   282.73   283.31   294.24   298.86   309.14
eigval :      320.40   336.94   338.09   352.56   359.79   364.52
eigval :      371.38   375.25   379.10   388.25   393.53   406.23
eigval :      433.16   440.35   441.96   460.73   473.45   484.12
eigval :      484.46   493.38   494.37   495.89   496.65   500.62
eigval :      504.91   524.45   526.99   537.10   540.67   553.72
eigval :      556.57   567.56   578.76   581.85   588.21   590.23
eigval :      596.23   599.17   600.77   605.82   624.26   635.06
eigval :      647.48   654.04   668.51   672.25   675.46   680.84
eigval :      685.38   696.83   711.30   732.70   738.85   759.53
eigval :      760.78   776.00   796.46   819.18   831.03   844.99
eigval :      845.68   874.92   876.36   878.33   878.94   890.54
eigval :      891.38   892.13   892.92   896.12   903.55   904.17
eigval :      906.16   911.45   913.11   916.89   919.40   923.70
eigval :      926.45   931.10   931.66   933.36   935.91   936.97
eigval :      960.68   966.30   966.64   976.09   977.10   977.88
eigval :      998.09  1004.68  1008.41  1017.46  1021.52  1023.12
eigval :     1030.00  1030.43  1031.09  1032.25  1033.06  1034.15
eigval :     1039.63  1041.98  1048.46  1054.23  1073.60  1087.34
eigval :     1091.04  1101.82  1121.46  1126.36  1128.49  1132.91
eigval :     1135.53  1146.17  1149.70  1174.92  1178.24  1179.85
eigval :     1181.58  1183.80  1186.94  1195.06  1202.63  1203.59
eigval :     1207.45  1211.77  1220.76  1233.64  1238.35  1242.17
eigval :     1244.45  1249.77  1253.76  1268.59  1269.57  1281.22
eigval :     1286.91  1292.46  1295.31  1315.44  1316.84  1316.87
eigval :     1319.58  1322.53  1328.36  1332.29  1335.23  1342.71
eigval :     1355.95  1374.22  1394.06  1400.97  1401.56  1401.93
eigval :     1403.72  1405.56  1408.55  1410.64  1423.38  1431.72
eigval :     1433.24  1437.83  1440.15  1443.73  1446.24  1454.21
eigval :     1456.78  1460.39  1472.97  1473.96  1476.36  1478.20
eigval :     1479.11  1480.90  1481.00  1481.74  1482.55  1483.12
eigval :     1484.86  1486.25  1489.06  1489.82  1490.84  1492.02
eigval :     1494.39  1496.13  1502.78  1522.61  1554.42  1568.84
eigval :     1571.74  1575.94  1581.11  1585.19  1586.46  1588.46
eigval :     1595.64  1598.27  1600.97  1603.15  1603.57  1605.15
eigval :     2987.00  2988.20  2988.95  3000.63  3001.69  3004.22
eigval :     3021.93  3022.92  3023.61  3024.33  3028.80  3029.49
eigval :     3029.79  3030.71  3031.89  3032.32  3033.98  3034.16
eigval :     3036.89  3038.42  3038.77  3041.06  3042.56  3047.32
eigval :     3062.18  3062.33  3064.32  3066.18  3066.30  3068.23
eigval :     3069.13  3069.41  3070.00  3074.61  3074.83  3075.77
eigval :     3080.25  3081.64  3082.54  3084.89  3086.64  3087.27
eigval :     3089.17  3090.33  3091.14  3093.34  3108.07  3109.90

   temp. (K)  partition function   enthalpy   heat capacity  entropy
                                   cal/mol     cal/K/mol   cal/K/mol   J/K/mol
 298.15  VIB  0.252E+22            29083.280    180.987    179.500
         ROT  0.779E+08              888.752      2.981     39.091
         INT  0.197E+30            29972.033    183.968    218.591
         TR   0.180E+29             1481.254      4.968     45.502
         TOT                       31453.2867   188.9358   264.0924  1104.9625

       T/K    H(0)-H(T)+PV         H(T)/Eh          T*S/Eh         G(T)/Eh
   ------------------------------------------------------------------------
    298.15    0.501240E-01    0.882744E+00    0.125479E+00    0.757266E+00
   ------------------------------------------------------------------------

         :::::::::::::::::::::::::::::::::::::::::::::::::::::
         ::                  THERMODYNAMIC                  ::
         :::::::::::::::::::::::::::::::::::::::::::::::::::::
         :: total free energy        -141.070633228908 Eh   ::
         ::.................................................::
         :: total energy             -141.827898905331 Eh   ::
         :: zero point energy           0.832620477798 Eh   ::
         :: G(RRHO) w/o ZPVE           -0.075354801374 Eh   ::
         :: G(RRHO) contrib.            0.757265676423 Eh   ::
         :::::::::::::::::::::::::::::::::::::::::::::::::::::

           -------------------------------------------------
          | TOTAL ENERGY             -141.827898905331 Eh   |
          | TOTAL ENTHALPY           -140.945154424682 Eh   |
          | TOTAL FREE ENERGY        -141.070633228908 Eh   |
          | GRADIENT NORM               0.000047805954 Eh/α |
          | HOMO-LUMO GAP               2.837526525341 eV   |
           -------------------------------------------------

 * finished run on 2025/09/13 at 08:31:31.938
