   * xtb version 6.7.1 (edcfbbe) compiled by 'albert@albert-system' on 2024-07-22

   ID    Z sym.   atoms
    1    8 O      1
    2    6 C      2-4, 6, 8-11, 13-27, 29-40
    3    7 N      5, 7, 12, 28
    4    1 H      41-62

          program call               : xtb data2507/toluene/25CzBPym/25CzBPym_toluene_T1_crest.xyz --gfn 2 --uhf 2 --gbsa toluene --ohess vtight --parallel 40 --molden --ceasefiles --namespace data2507/toluene/25CzBPym/25CzBPym_toluene_T1_finalOpt
      * Solvation model:               GBSA
        Solvent                        toluene
        Solvent mass                       9.2140E+01 g/mol
          :  Hamiltonian                  GFN2-xTB          :
 * total energy  :  -101.9517660 Eh     change       -0.6984962E-08 Eh
 * total energy  :  -101.9519572 Eh     change       -0.1911816E-03 Eh
 * total energy  :  -101.9520545 Eh     change       -0.9730327E-04 Eh
 * total energy  :  -101.9520815 Eh     change       -0.2705375E-04 Eh
 * total energy  :  -101.9521113 Eh     change       -0.2975994E-04 Eh
 * total energy  :  -101.9521421 Eh     change       -0.3081862E-04 Eh
 * total energy  :  -101.9521714 Eh     change       -0.2924985E-04 Eh
 * total energy  :  -101.9521983 Eh     change       -0.2695714E-04 Eh
 * total energy  :  -101.9522303 Eh     change       -0.3201163E-04 Eh
 * total energy  :  -101.9522506 Eh     change       -0.2027053E-04 Eh
 * total energy  :  -101.9523161 Eh     change       -0.1435898E-04 Eh
 * total energy  :  -101.9523266 Eh     change       -0.1042518E-04 Eh
 * total energy  :  -101.9523307 Eh     change       -0.4182336E-05 Eh
 * total energy  :  -101.9523329 Eh     change       -0.2192848E-05 Eh
 * total energy  :  -101.9523346 Eh     change       -0.1666324E-05 Eh
 * total energy  :  -101.9523359 Eh     change       -0.1248514E-05 Eh
 * total energy  :  -101.9523366 Eh     change       -0.7783317E-06 Eh
 * total energy  :  -101.9523372 Eh     change       -0.5782294E-06 Eh
 * total energy  :  -101.9523372 Eh     change       -0.7931931E-08 Eh
   *** GEOMETRY OPTIMIZATION CONVERGED AFTER 22 ITERATIONS ***

 final structure:
================
62
 xtb: 6.7.1 (edcfbbe)
O           -0.55150369578440        2.71682209575869        1.18088324930035
C           -0.95161522736616        1.52397028162652        1.07517020211131
C           -2.15638138496306        1.05508895084059        1.68309739338093
C           -2.46929696901926       -0.29757613018691        1.98027849723504
N           -3.58955086881146       -0.66283021185534        2.54451232608262
C           -4.47308529730877        0.27546925200837        2.86947498619354
N           -4.23868225312433        1.57943280015168        2.73190002250512
C           -3.12369105043246        1.96779139465171        2.18581508023175
C           -0.13514287489389        0.56726106080546        0.29716586594184
C            1.25111262320984        0.65003927381133        0.38673347474217
C            2.07877373375801       -0.23931409626870       -0.28721871652653
N            3.46177727760258       -0.14371618205168       -0.16220017077892
C            4.20342139750028        1.01885114006545       -0.26911060831415
C            3.78696171995416        2.30935502988959       -0.56870005359711
C            4.75443558130534        3.29533187922613       -0.65103036001196
C            6.10219904944912        3.00898868546914       -0.45342230837766
C            6.52553284063207        1.71854293320944       -0.18170823570351
C            5.57377640717176        0.71512708147406       -0.09332603195312
C            5.65188850197091       -0.70442025820259        0.14315141266245
C            6.70311308444278       -1.57044551751542        0.39916742279768
C            6.42047203990058       -2.90960683025059        0.61165392796483
C            5.11007511935968       -3.37818692189644        0.58917936854666
C            4.04521852848576       -2.53137368065388        0.33654267969559
C            4.32579010712826       -1.19359224095142        0.09116546978030
C            1.50795318950914       -1.23821024455182       -1.08740915621402
C            0.13744295699096       -1.30009604259069       -1.22629343613726
C           -0.69951912213313       -0.39963933717247       -0.57142081786420
N           -2.07028362450411       -0.44243403346925       -0.82576995783394
C           -2.86094220901419        0.63190475512969       -1.18963855162160
C           -2.49188829608729        1.93601932368608       -1.48767031461962
C           -3.49348558601299        2.82171898229485       -1.84381176315127
C           -4.82393633381444        2.42038915241463       -1.91795111967245
C           -5.19081396109333        1.11031816274669       -1.65891693842399
C           -4.20403414111006        0.20595527242669       -1.30083890605740
C           -4.21418600751615       -1.20191200023317       -0.99319248656275
C           -5.21760034883456       -2.15369735419736       -0.91721922878657
C           -4.87556700686622       -3.44921122835909       -0.56500081674817
C           -3.55769960124181       -3.79114840821562       -0.27788363385722
C           -2.54022722424633       -2.85635985122770       -0.34334181664552
C           -2.87528505014833       -1.56044343135840       -0.71420367066753
H           -1.75257890985361       -1.08840413038099        1.79066706130502
H           -5.41260600761168       -0.03203351802553        3.29784237654528
H           -2.93116219081291        3.03069550984765        2.11061019316442
H            1.67237216513533        1.39084072042413        1.04984280326612
H            2.74669198018965        2.54159725617324       -0.73697192443174
H            4.45455966680343        4.30775561586767       -0.87644297485141
H            6.82689757143902        3.80612333474233       -0.52396677001199
H            7.57278496266254        1.49632274370670       -0.04676885524537
H            7.71787737597716       -1.20569279915514        0.43736759794022
H            7.22587189530518       -3.60045646652880        0.81064610483153
H            4.91823152422120       -4.42361036388408        0.77869525229325
H            3.03158440725543       -2.90021244702335        0.34688591687132
H            2.14251178406303       -1.90847414541220       -1.64443503743674
H           -0.30151445335341       -2.01389446082774       -1.90702821073702
H           -1.46294270004936        2.25653576729904       -1.43962947968700
H           -3.23362948945948        3.84529206979739       -2.06823706312463
H           -5.57830481043452        3.14202591729926       -2.19268818196191
H           -6.22067543086841        0.79783145164678       -1.73626472120264
H           -6.24284534834984       -1.88709286699881       -1.12197931868373
H           -5.64366433117682       -4.20492554349160       -0.50140950538888
H           -3.32381571439115       -4.80551700004381        0.00753896192880
H           -1.52415501603854       -3.12644806320754       -0.10059630773117

          :  Hamiltonian                  GFN2-xTB          :
         :: gradient norm              0.000062718553 Eh/a0 ::
         :: HOMO-LUMO gap              0.895078385073 eV    ::
         :: SCC energy              -103.751509133398 Eh    ::
         :: -> dispersion             -0.094438449524 Eh    ::
         :: -> Gsolv                  -0.050910984754 Eh    ::
         :: repulsion energy           1.799171912684 Eh    ::

    * Orbital Energies and Occupations

         #    Occupation            Energy/Eh            Energy/eV
      -------------------------------------------------------------
         1        2.0000           -0.6952361             -18.9183
       ...           ...                  ...                  ...
        83        2.0000           -0.4287692             -11.6674
        84        2.0000           -0.4259865             -11.5917
        85        2.0000           -0.4247889             -11.5591
        86        2.0000           -0.4201218             -11.4321
        87        2.0000           -0.4197096             -11.4209
        88        2.0000           -0.4188808             -11.3983
        89        2.0000           -0.3939157             -10.7190
        90        2.0000           -0.3938180             -10.7163
        91        2.0000           -0.3853369             -10.4855
        92        1.9998           -0.3819786             -10.3942
        93        1.9209           -0.3759839             -10.2310
        94        1.0792           -0.3713210             -10.1042
        95        1.0000           -0.2977189              -8.1013 (HOMO)
        96                         -0.2648262              -7.2063 (LUMO)
        97                         -0.2638492              -7.1797
        98                         -0.2586701              -7.0388
        99                         -0.2548470              -6.9347
       100                         -0.2505164              -6.8169
       101                         -0.2374907              -6.4625
       102                         -0.2373507              -6.4586
       103                         -0.2132043              -5.8016
       104                         -0.2061142              -5.6087
       105                         -0.2007702              -5.4632
       106                         -0.2004232              -5.4538
       ...                                ...                  ...
       182                          0.7305407              19.8790
      -------------------------------------------------------------
                  HL-Gap            0.0328927 Eh            0.8951 eV

     #   Z          covCN         q      C6AA      α(0)
     1   8 O        0.857    -0.529    24.428     6.627
     2   6 C        2.829     0.172    24.299     8.078
     3   6 C        2.958    -0.042    29.043     8.839
     4   6 C        2.921     0.064    26.558     8.451
     5   7 N        1.833    -0.227    26.804     7.672
     6   6 C        2.899     0.117    25.428     8.268
     7   7 N        1.834    -0.214    26.493     7.628
     8   6 C        2.921     0.076    26.295     8.409
     9   6 C        2.969    -0.018    28.455     8.750
    10   6 C        2.926    -0.037    28.925     8.820
    11   6 C        2.910     0.062    26.607     8.458
    12   7 N        2.802    -0.009    21.435     6.876
    13   6 C        3.068     0.047    26.885     8.502
    14   6 C        2.909    -0.040    29.000     8.830
    15   6 C        2.923    -0.029    28.727     8.789
    16   6 C        2.920    -0.032    28.788     8.799
    17   6 C        2.912    -0.028    28.707     8.786
    18   6 C        3.064    -0.010    28.193     8.707
    19   6 C        3.064    -0.009    28.179     8.705
    20   6 C        2.912    -0.028    28.696     8.784
    21   6 C        2.920    -0.032    28.790     8.799
    22   6 C        2.923    -0.030    28.740     8.791
    23   6 C        2.909    -0.043    29.063     8.840
    24   6 C        3.068     0.046    26.903     8.505
    25   6 C        2.919    -0.049    29.228     8.866
    26   6 C        2.920    -0.039    28.978     8.828
    27   6 C        2.911     0.050    26.886     8.502
    28   7 N        2.802    -0.023    21.686     6.916
    29   6 C        3.071     0.048    26.858     8.497
    30   6 C        2.910    -0.039    28.974     8.826
    31   6 C        2.923    -0.030    28.750     8.793
    32   6 C        2.920    -0.033    28.816     8.803
    33   6 C        2.912    -0.030    28.751     8.792
    34   6 C        3.066    -0.013    28.273     8.719
    35   6 C        3.065    -0.010    28.209     8.709
    36   6 C        2.912    -0.027    28.688     8.783
    37   6 C        2.920    -0.030    28.758     8.794
    38   6 C        2.923    -0.028    28.704     8.786
    39   6 C        2.910    -0.042    29.054     8.839
    40   6 C        3.071     0.048    26.853     8.497
    41   1 H        0.925     0.036     2.509     2.477
    42   1 H        0.926     0.043     2.407     2.426
    43   1 H        0.925     0.048     2.349     2.397
    44   1 H        0.926     0.056     2.250     2.346
    45   1 H        0.926     0.040     2.449     2.447
    46   1 H        0.926     0.042     2.425     2.435
    47   1 H        0.926     0.044     2.397     2.421
    48   1 H        0.926     0.047     2.353     2.399
    49   1 H        0.926     0.046     2.367     2.406
    50   1 H        0.926     0.044     2.394     2.420
    51   1 H        0.926     0.045     2.382     2.413
    52   1 H        0.926     0.045     2.389     2.417
    53   1 H        0.926     0.064     2.149     2.292
    54   1 H        0.926     0.063     2.162     2.299
    55   1 H        0.926     0.035     2.522     2.484
    56   1 H        0.926     0.042     2.419     2.432
    57   1 H        0.926     0.046     2.369     2.407
    58   1 H        0.926     0.048     2.342     2.393
    59   1 H        0.926     0.047     2.358     2.401
    60   1 H        0.926     0.048     2.346     2.395
    61   1 H        0.926     0.049     2.329     2.387
    62   1 H        0.926     0.044     2.398     2.421

molecular dipole:
                 x           y           z       tot (Debye)
 q only:        1.846      -2.707      -1.922
   full:        2.038      -2.527      -1.956       9.634

 projected vibrational frequencies (cm⁻¹)
eigval :       -0.00    -0.00    -0.00     0.00     0.00     0.00
eigval :       18.42    20.13    26.40    30.28    34.96    54.28
eigval :       67.24    71.77    94.16   102.94   106.85   121.77
eigval :      126.52   134.93   146.88   154.55   180.42   186.22
eigval :      199.02   212.75   256.41   262.33   272.20   273.16
eigval :      282.20   321.23   345.70   366.21   381.62   395.06
eigval :      398.82   409.57   413.19   420.15   424.13   430.07
eigval :      434.80   449.79   451.85   487.90   513.81   514.72
eigval :      534.36   536.72   537.63   543.39   555.01   582.05
eigval :      585.44   591.24   600.54   602.34   616.69   624.21
eigval :      635.28   664.56   673.07   674.20   681.32   686.10
eigval :      701.88   710.07   710.72   752.08   753.75   759.41
eigval :      767.07   768.82   776.61   777.12   778.31   818.94
eigval :      829.95   865.19   866.26   867.08   872.93   878.93
eigval :      884.09   889.21   894.50   897.97   899.50   902.49
eigval :      904.90   907.60   909.95   921.26   921.91   922.66
eigval :      924.83   929.92   960.79  1005.46  1010.76  1013.20
eigval :     1067.18  1067.52  1070.50  1070.99  1085.79  1109.49
eigval :     1112.51  1130.01  1140.53  1141.11  1147.30  1160.23
eigval :     1170.93  1174.32  1175.24  1177.17  1182.79  1197.54
eigval :     1216.82  1221.86  1225.65  1226.63  1229.25  1235.95
eigval :     1238.39  1261.03  1275.77  1279.76  1287.13  1287.19
eigval :     1289.13  1320.56  1328.60  1337.29  1339.10  1350.07
eigval :     1359.02  1360.88  1369.46  1390.24  1409.62  1410.79
eigval :     1412.95  1418.32  1444.47  1448.97  1458.14  1458.82
eigval :     1469.96  1477.57  1477.73  1485.19  1520.51  1555.22
eigval :     1566.50  1567.44  1576.61  1577.36  1579.10  1581.89
eigval :     1597.78  1602.41  3020.74  3042.93  3082.87  3083.33
eigval :     3084.06  3084.85  3088.58  3089.16  3089.58  3090.24
eigval :     3091.17  3094.82  3096.10  3096.32  3097.38  3098.10
eigval :     3100.05  3100.94  3101.85  3102.29  3103.56  3109.89

   temp. (K)  partition function   enthalpy   heat capacity  entropy
                                   cal/mol     cal/K/mol   cal/K/mol   J/K/mol
 298.15  VIB  0.464E+13            17520.435    114.275    106.708
         ROT  0.384E+08              888.752      2.981     37.688
         INT  0.178E+21            18409.187    117.256    144.395
         TR   0.113E+29             1481.254      4.968     44.581
         TOT                       19890.4414   122.2240   188.9761   790.6758

       T/K    H(0)-H(T)+PV         H(T)/Eh          T*S/Eh         G(T)/Eh
   ------------------------------------------------------------------------
    298.15    0.316974E-01    0.492645E+00    0.897886E-01    0.402857E+00
   ------------------------------------------------------------------------

         :::::::::::::::::::::::::::::::::::::::::::::::::::::
         ::                  THERMODYNAMIC                  ::
         :::::::::::::::::::::::::::::::::::::::::::::::::::::
         :: total free energy        -101.549480547840 Eh   ::
         ::.................................................::
         :: total energy             -101.952337219557 Eh   ::
         :: zero point energy           0.460947857934 Eh   ::
         :: G(RRHO) w/o ZPVE           -0.058091186218 Eh   ::
         :: G(RRHO) contrib.            0.402856671716 Eh   ::
         :::::::::::::::::::::::::::::::::::::::::::::::::::::

           -------------------------------------------------
          | TOTAL ENERGY             -101.952337219557 Eh   |
          | TOTAL ENTHALPY           -101.459691925590 Eh   |
          | TOTAL FREE ENERGY        -101.549480547840 Eh   |
          | GRADIENT NORM               0.000062026322 Eh/α |
          | HOMO-LUMO GAP               0.895056056759 eV   |
           -------------------------------------------------

 * finished run on 2025/09/04 at 03:40:03.233
