   * xtb version 6.7.1 (edcfbbe) compiled by 'albert@albert-system' on 2024-07-22

   ID    Z sym.   atoms
    1    8 O      1
    2    6 C      2-4, 6, 8-11, 13-27, 29-40
    3    7 N      5, 7, 12, 28
    4    1 H      41-62

          program call               : xtb data2507/toluene/25CzBPym/25CzBPym.xyz --gfn 2 --gbsa toluene --ohess vtight --parallel 40 --molden --ceasefiles --namespace data2507/toluene/25CzBPym/25CzBPym_toluene_S0_preOpt
      * Solvation model:               GBSA
        Solvent                        toluene
        Solvent mass                       9.2140E+01 g/mol
          :  Hamiltonian                  GFN2-xTB          :
 * total energy  :  -101.9932965 Eh     change       -0.3066162E-08 Eh
 * total energy  :  -102.0077058 Eh     change       -0.1440924E-01 Eh
 * total energy  :  -102.0107655 Eh     change       -0.3059736E-02 Eh
 * total energy  :  -102.0113969 Eh     change       -0.6313836E-03 Eh
 * total energy  :  -102.0119447 Eh     change       -0.5478507E-03 Eh
 * total energy  :  -102.0121431 Eh     change       -0.1983498E-03 Eh
 * total energy  :  -102.0122899 Eh     change       -0.1468033E-03 Eh
 * total energy  :  -102.0124048 Eh     change       -0.1148768E-03 Eh
 * total energy  :  -102.0125006 Eh     change       -0.9579401E-04 Eh
 * total energy  :  -102.0125923 Eh     change       -0.9173144E-04 Eh
 * total energy  :  -102.0132607 Eh     change       -0.1951711E-05 Eh
 * total energy  :  -102.0132623 Eh     change       -0.1635682E-05 Eh
 * total energy  :  -102.0132643 Eh     change       -0.2001469E-05 Eh
 * total energy  :  -102.0132666 Eh     change       -0.2249092E-05 Eh
 * total energy  :  -102.0132682 Eh     change       -0.1598972E-05 Eh
 * total energy  :  -102.0132692 Eh     change       -0.1010791E-05 Eh
 * total energy  :  -102.0132698 Eh     change       -0.6445968E-06 Eh
 * total energy  :  -102.0132702 Eh     change       -0.3897643E-06 Eh
 * total energy  :  -102.0132703 Eh     change       -0.5750050E-07 Eh
   *** GEOMETRY OPTIMIZATION CONVERGED AFTER 57 ITERATIONS ***

 final structure:
================
62
 xtb: 6.7.1 (edcfbbe)
O           -2.42141918823070       -1.27764618680859        1.56824729226694
C           -1.45301873358075       -1.45311534343419        0.85443923358696
C           -0.99754884643162       -2.82997616544993        0.52480023620980
C           -0.32668057364112       -3.18218718640334       -0.64771153002453
N            0.03681563776814       -4.42722321507373       -0.89944796273234
C           -0.28568667593677       -5.34217181456618       -0.00260256376977
N           -0.94233065157432       -5.13406960198534        1.12623917610396
C           -1.29008037674899       -3.88881268486020        1.39006054872774
C           -0.63873808432686       -0.33857997743893        0.31019782091532
C            0.74910078880936       -0.44941178866762        0.30294202247234
C            1.55113350945884        0.62345936410273       -0.07140432028949
N            2.94223856192520        0.50122566551697       -0.04382075133020
C            3.69149866007832        0.02140909006673        1.01659836861501
C            3.28184482056229       -0.37861086851072        2.28039962926202
C            4.25332385983549       -0.78847661128235        3.17473133720032
C            5.60299240390168       -0.79398541723752        2.83009218827789
C            6.01873512459502       -0.37274095782592        1.58224516220652
C            5.06071159534836        0.04376990920123        0.66690215512011
C            5.13359144132956        0.55622251780921       -0.67421564929491
C            6.18582050569736        0.78869870566278       -1.55070640628667
C            5.90202482766654        1.28067973238963       -2.80954204639188
C            4.58842618181850        1.52631115189262       -3.20298304512914
C            3.52497305815509        1.30202492791296       -2.34840789175043
C            3.80649670842004        0.83103876651694       -1.07421010590964
C            0.94878522058120        1.81839454166211       -0.46867169659525
C           -0.42590510865290        1.92793359929001       -0.49351081244413
C           -1.23708546857998        0.86590508205948       -0.09757533281050
N           -2.62601197323507        1.00630222505617       -0.14181636409888
C           -3.35288814202122        1.99440931904614        0.49878551405344
C           -2.90950965214326        3.03773970873582        1.29752589361084
C           -3.86042051543639        3.88133000094044        1.84127127803884
C           -5.22030571908459        3.69160134909473        1.60591188429753
C           -5.66724837220406        2.64081723877761        0.82894826405180
C           -4.73061390158777        1.78015175115539        0.27104790557528
C           -4.83270330002371        0.60570583801685       -0.55132831336629
C           -5.90188667105186       -0.08281782621008       -1.10937276906928
C           -5.64200987240592       -1.19386174148322       -1.88777733590062
C           -4.33467319000768       -1.61013866652160       -2.12837085801669
C           -3.25532670370267       -0.93938738395256       -1.58468340546269
C           -3.51196667342343        0.15790970627707       -0.77715844339729
H           -0.08084285280954       -2.45432901925980       -1.41124943467781
H            0.01219786986166       -6.36100051476358       -0.21439389429224
H           -1.81336373858454       -3.70869728411532        2.32074318037781
H            1.21592172255543       -1.37056215514871        0.61825073114196
H            2.24113368389101       -0.35988753471315        2.56815255101589
H            3.95812369394059       -1.10640786093324        4.16405131108729
H            6.33150219607369       -1.12323146140462        3.55617356711371
H            7.06626593010069       -0.36044864706616        1.32173032633116
H            7.20246183455752        0.58281238064740       -1.25155555673210
H            6.70612085149348        1.47060428545844       -3.50503779257022
H            4.39567988583118        1.89665138062137       -4.19916282731864
H            2.51039200947685        1.47892546528036       -2.67151311025686
H            1.56485640659989        2.65846049503603       -0.74946020372666
H           -0.89097429664153        2.84642854038976       -0.81763760783395
H           -1.85902711759258        3.18271876856158        1.50012118354871
H           -3.54158819804997        4.70265855675027        2.46617646465994
H           -5.93267944145202        4.37283884520944        2.04743091653943
H           -6.72203884280330        2.48450249071105        0.66001473488127
H           -6.91491964234085        0.24821171211485       -0.93729707330709
H           -6.45997125241344       -1.74670509719264       -2.32544808592702
H           -4.15863934067338       -2.47274644036807       -2.75460222950849
H           -2.24506487292186       -1.26062565928996       -1.79155145706234

          :  Hamiltonian                  GFN2-xTB          :
         :: gradient norm              0.000161815432 Eh/a0 ::
         :: HOMO-LUMO gap              1.250803173917 eV    ::
         :: SCC energy              -103.822645095096 Eh    ::
         :: -> dispersion             -0.088759504402 Eh    ::
         :: -> Gsolv                  -0.042826326755 Eh    ::
         :: repulsion energy           1.809374814422 Eh    ::

    * Orbital Energies and Occupations

         #    Occupation            Energy/Eh            Energy/eV
      -------------------------------------------------------------
         1        2.0000           -0.7363398             -20.0368
       ...           ...                  ...                  ...
        82        2.0000           -0.4269417             -11.6177
        83        2.0000           -0.4246552             -11.5555
        84        2.0000           -0.4235217             -11.5246
        85        2.0000           -0.4233519             -11.5200
        86        2.0000           -0.4225229             -11.4974
        87        2.0000           -0.4140449             -11.2667
        88        2.0000           -0.4109315             -11.1820
        89        2.0000           -0.4100177             -11.1572
        90        2.0000           -0.3943117             -10.7298
        91        2.0000           -0.3843845             -10.4596
        92        2.0000           -0.3834225             -10.4335
        93        2.0000           -0.3744615             -10.1896
        94        2.0000           -0.3672553              -9.9935 (HOMO)
        95                         -0.3212892              -8.7427 (LUMO)
        96                         -0.2955156              -8.0414
        97                         -0.2734733              -7.4416
        98                         -0.2604008              -7.0859
        99                         -0.2501536              -6.8070
       100                         -0.2482906              -6.7563
       101                         -0.2278020              -6.1988
       102                         -0.2276608              -6.1950
       103                         -0.2258632              -6.1460
       104                         -0.2021209              -5.5000
       105                         -0.1945128              -5.2930
       ...                                ...                  ...
       182                          0.7406291              20.1535
      -------------------------------------------------------------
                  HL-Gap            0.0459661 Eh            1.2508 eV

     #   Z          covCN         q      C6AA      α(0)
     1   8 O        0.858    -0.384    21.364     6.197
     2   6 C        2.825     0.235    23.078     7.872
     3   6 C        2.959    -0.029    28.722     8.790
     4   6 C        2.931     0.083    26.161     8.388
     5   7 N        1.834    -0.222    26.684     7.655
     6   6 C        2.924     0.155    24.652     8.142
     7   7 N        1.833    -0.222    26.693     7.656
     8   6 C        2.938     0.091    25.972     8.358
     9   6 C        2.971    -0.028    28.693     8.786
    10   6 C        2.925    -0.042    29.052     8.839
    11   6 C        2.909     0.067    26.498     8.441
    12   7 N        2.802    -0.040    22.016     6.969
    13   6 C        3.069     0.044    26.941     8.511
    14   6 C        2.910    -0.052    29.292     8.875
    15   6 C        2.924    -0.034    28.842     8.807
    16   6 C        2.920    -0.040    29.006     8.832
    17   6 C        2.912    -0.033    28.823     8.803
    18   6 C        3.066    -0.016    28.332     8.728
    19   6 C        3.066    -0.016    28.331     8.728
    20   6 C        2.912    -0.033    28.818     8.803
    21   6 C        2.920    -0.040    28.998     8.831
    22   6 C        2.924    -0.033    28.821     8.804
    23   6 C        2.910    -0.052    29.284     8.874
    24   6 C        3.069     0.045    26.927     8.509
    25   6 C        2.920    -0.035    28.862     8.810
    26   6 C        2.921    -0.039    28.967     8.826
    27   6 C        2.912     0.073    26.374     8.421
    28   7 N        2.802    -0.041    22.027     6.971
    29   6 C        3.074     0.051    26.791     8.487
    30   6 C        2.910    -0.051    29.270     8.871
    31   6 C        2.924    -0.033    28.829     8.805
    32   6 C        2.920    -0.041    29.010     8.832
    33   6 C        2.913    -0.033    28.825     8.804
    34   6 C        3.068    -0.015    28.311     8.725
    35   6 C        3.067    -0.015    28.305     8.724
    36   6 C        2.913    -0.033    28.827     8.804
    37   6 C        2.920    -0.041    29.026     8.835
    38   6 C        2.924    -0.035    28.873     8.812
    39   6 C        2.910    -0.054    29.348     8.883
    40   6 C        3.074     0.051    26.770     8.483
    41   1 H        0.925     0.060     2.195     2.317
    42   1 H        0.925     0.064     2.155     2.295
    43   1 H        0.925     0.067     2.121     2.278
    44   1 H        0.926     0.050     2.323     2.384
    45   1 H        0.926     0.025     2.657     2.549
    46   1 H        0.926     0.032     2.558     2.501
    47   1 H        0.926     0.032     2.555     2.500
    48   1 H        0.926     0.036     2.506     2.475
    49   1 H        0.926     0.035     2.520     2.482
    50   1 H        0.926     0.032     2.553     2.499
    51   1 H        0.926     0.035     2.519     2.482
    52   1 H        0.926     0.033     2.541     2.493
    53   1 H        0.926     0.069     2.099     2.265
    54   1 H        0.926     0.067     2.123     2.279
    55   1 H        0.926     0.032     2.562     2.503
    56   1 H        0.926     0.035     2.511     2.478
    57   1 H        0.926     0.033     2.541     2.493
    58   1 H        0.926     0.035     2.517     2.481
    59   1 H        0.926     0.037     2.490     2.467
    60   1 H        0.926     0.034     2.536     2.490
    61   1 H        0.926     0.031     2.574     2.509
    62   1 H        0.926     0.014     2.826     2.629

molecular dipole:
                 x           y           z       tot (Debye)
 q only:        1.069       0.811      -0.744
   full:        1.041       0.997      -0.667       4.036

 projected vibrational frequencies (cm⁻¹)
eigval :       -0.00    -0.00     0.00     0.00     0.00     0.00
eigval :       15.86    19.82    22.74    26.95    27.68    49.51
eigval :       56.69    68.62    73.83   101.65   103.53   119.98
eigval :      125.12   138.61   143.06   149.28   155.26   179.25
eigval :      205.98   215.31   254.34   261.26   271.61   272.84
eigval :      295.37   313.91   333.90   347.54   352.96   385.84
eigval :      394.64   401.46   411.56   422.71   423.68   431.34
eigval :      435.71   437.80   458.09   495.87   517.52   518.90
eigval :      530.70   536.43   540.97   541.33   560.82   580.17
eigval :      585.96   595.16   608.81   616.89   621.88   654.54
eigval :      673.26   673.76   678.25   696.88   702.46   707.78
eigval :      709.17   720.10   727.37   754.12   755.52   767.02
eigval :      768.03   779.89   780.55   791.89   838.95   840.75
eigval :      864.64   869.19   871.07   875.24   893.65   897.89
eigval :      899.50   899.71   901.93   903.78   904.23   906.60
eigval :      918.73   919.00   923.60   926.03   928.03   932.19
eigval :      933.85   937.03  1000.74  1011.53  1012.09  1027.35
eigval :     1068.93  1069.34  1071.68  1072.71  1095.68  1116.66
eigval :     1133.02  1138.02  1150.53  1150.79  1164.97  1174.10
eigval :     1175.51  1178.06  1180.12  1180.22  1186.59  1200.49
eigval :     1224.48  1230.45  1233.96  1234.54  1239.24  1241.11
eigval :     1247.82  1254.35  1294.46  1296.39  1298.77  1299.52
eigval :     1308.61  1335.64  1354.55  1356.29  1358.75  1360.57
eigval :     1382.22  1388.85  1394.59  1402.15  1420.14  1426.16
eigval :     1426.96  1439.90  1468.57  1472.35  1474.15  1485.24
eigval :     1485.89  1535.12  1541.66  1543.79  1573.84  1574.40
eigval :     1580.13  1587.72  1589.69  1597.31  1597.95  1611.07
eigval :     1612.52  1675.74  3046.96  3057.16  3063.29  3071.90
eigval :     3072.43  3074.78  3075.43  3078.06  3078.32  3080.07
eigval :     3081.36  3084.44  3084.94  3087.25  3089.12  3093.11
eigval :     3093.20  3093.86  3095.54  3095.94  3096.49  3106.38

   temp. (K)  partition function   enthalpy   heat capacity  entropy
                                   cal/mol     cal/K/mol   cal/K/mol   J/K/mol
 298.15  VIB  0.161E+14            17538.729    112.519    107.785
         ROT  0.419E+08              888.752      2.981     37.859
         INT  0.676E+21            18427.481    115.500    145.644
         TR   0.113E+29             1481.254      4.968     44.581
         TOT                       19908.7350   120.4680   190.2251   795.9020

       T/K    H(0)-H(T)+PV         H(T)/Eh          T*S/Eh         G(T)/Eh
   ------------------------------------------------------------------------
    298.15    0.317266E-01    0.495788E+00    0.903821E-01    0.405406E+00
   ------------------------------------------------------------------------

         :::::::::::::::::::::::::::::::::::::::::::::::::::::
         ::                  THERMODYNAMIC                  ::
         :::::::::::::::::::::::::::::::::::::::::::::::::::::
         :: total free energy        -101.607863997644 Eh   ::
         ::.................................................::
         :: total energy             -102.013270277077 Eh   ::
         :: zero point energy           0.464061789278 Eh   ::
         :: G(RRHO) w/o ZPVE           -0.058655509845 Eh   ::
         :: G(RRHO) contrib.            0.405406279433 Eh   ::
         :::::::::::::::::::::::::::::::::::::::::::::::::::::

           -------------------------------------------------
          | TOTAL ENERGY             -102.013270277077 Eh   |
          | TOTAL ENTHALPY           -101.517481899134 Eh   |
          | TOTAL FREE ENERGY        -101.607863997644 Eh   |
          | GRADIENT NORM               0.000161752779 Eh/α |
          | HOMO-LUMO GAP               1.250800893378 eV   |
           -------------------------------------------------

 * finished run on 2025/09/04 at 03:34:12.155
