   * xtb version 6.7.1 (edcfbbe) compiled by 'albert@albert-system' on 2024-07-22

   ID    Z sym.   atoms
    1    8 O      1
    2    6 C      2-4, 6, 8-11, 13-27, 29-40
    3    7 N      5, 7, 12, 28
    4    1 H      41-62

          program call               : xtb data2507/toluene/25CzBPym/25CzBPym_toluene_S0_finalOpt.xtbopt.xyz --gfn 2 --uhf 2 --gbsa toluene --ohess vtight --parallel 40 --molden --ceasefiles --namespace data2507/toluene/25CzBPym/25CzBPym_toluene_T1_preOpt
      * Solvation model:               GBSA
        Solvent                        toluene
        Solvent mass                       9.2140E+01 g/mol
          :  Hamiltonian                  GFN2-xTB          :
 * total energy  :  -101.9433282 Eh     change       -0.7903225E-09 Eh
 * total energy  :  -101.9476053 Eh     change       -0.4277044E-02 Eh
 * total energy  :  -101.9491708 Eh     change       -0.1565481E-02 Eh
 * total energy  :  -101.9497770 Eh     change       -0.6061802E-03 Eh
 * total energy  :  -101.9504373 Eh     change       -0.6603053E-03 Eh
 * total energy  :  -101.9509582 Eh     change       -0.5209247E-03 Eh
 * total energy  :  -101.9514137 Eh     change       -0.4555076E-03 Eh
 * total energy  :  -101.9516419 Eh     change       -0.2282069E-03 Eh
 * total energy  :  -101.9517961 Eh     change       -0.1541801E-03 Eh
 * total energy  :  -101.9519104 Eh     change       -0.1143636E-03 Eh
 * total energy  :  -101.9523559 Eh     change       -0.1073761E-05 Eh
 * total energy  :  -101.9523572 Eh     change       -0.1257268E-05 Eh
 * total energy  :  -101.9523587 Eh     change       -0.1516827E-05 Eh
 * total energy  :  -101.9523600 Eh     change       -0.1353051E-05 Eh
 * total energy  :  -101.9523611 Eh     change       -0.1012456E-05 Eh
 * total energy  :  -101.9523618 Eh     change       -0.7210681E-06 Eh
 * total energy  :  -101.9523622 Eh     change       -0.4654146E-06 Eh
 * total energy  :  -101.9523625 Eh     change       -0.2205401E-06 Eh
 * total energy  :  -101.9523625 Eh     change       -0.1231388E-07 Eh
   *** GEOMETRY OPTIMIZATION CONVERGED AFTER 36 ITERATIONS ***

 final structure:
================
62
 xtb: 6.7.1 (edcfbbe)
O           -0.51731998999456        2.53650543195245        1.55998727640505
C           -0.93233711800191        1.37367329110270        1.29512755222806
C           -2.13942188422524        0.84049936570150        1.84142803238752
C           -2.46994453656256       -0.53595654962519        1.95069269949681
N           -3.58998906525506       -0.96097773780224        2.47161316021966
C           -4.45588870441394       -0.06539096016592        2.93524577345253
N           -4.20370883841664        1.24184858920043        2.97678201432071
C           -3.08885164144670        1.68746793444896        2.47631613944961
C           -0.12933850570651        0.52407390378057        0.38888492974092
C            1.25784124419656        0.57930411881136        0.48468156478006
C            2.07608294253302       -0.20987777553270       -0.31401228421707
N            3.46001440069998       -0.14277441358478       -0.18403454260039
C            4.20990124820369        1.01810467625076       -0.11931603756949
C            3.80122284775773        2.34266604136411       -0.20490231199706
C            4.77586118803713        3.32304290948467       -0.14268343935918
C            6.12385562456606        3.00053876818368       -0.01441623300574
C            6.53922666206785        1.68063852332068        0.04353532002039
C            5.57984114180111        0.68219425542840       -0.01205029144300
C            5.64925295135458       -0.75720298042823        0.00394694601230
C            6.69644212125949       -1.65824768994346        0.11466963282310
C            6.40537426778844       -3.01228112245719        0.12862311719629
C            5.09099531090631       -3.46388092685655        0.05340314674435
C            4.03031004716786       -2.58205168908296       -0.05699150207308
C            4.31862986135584       -1.22437629630526       -0.10388537622202
C            1.49357024402511       -1.07929081534308       -1.24615572875994
C            0.12202731923643       -1.11132294601652       -1.38403670455221
C           -0.70510938381870       -0.30633024293247       -0.60401363750782
N           -2.07679622131344       -0.30238316876757       -0.85719704637385
C           -2.85798581244734        0.81767653357087       -1.07299632933484
C           -2.47846655053107        2.14786271095013       -1.18396531715071
C           -3.47209948186594        3.08204826695087       -1.41735613215574
C           -4.80486362546788        2.70483650913570       -1.55236447733671
C           -5.18182827824375        1.37407881684156       -1.48150869641011
C           -4.20326167852919        0.42121624165403       -1.24851599956409
C           -4.22490715642441       -1.01549774337051       -1.13680694714150
C           -5.23519939713796       -1.96133971147810       -1.19475888926596
C           -4.90439529820637       -3.29493792467008       -1.01740403565779
C           -3.59044198437265       -3.68267773312103       -0.77365720890743
C           -2.56595120079339       -2.75548040858479       -0.70950485254277
C           -2.89003291749591       -1.41887300080022       -0.90340861860236
H           -1.76721047970756       -1.30232520994881        1.64455370261326
H           -5.39498499233600       -0.41716548074870        3.32906439915616
H           -2.88172158473156        2.74803269257944        2.54629837147442
H            1.68719260703402        1.21243719952108        1.24661231400896
H            2.76127245478988        2.60657329606246       -0.31955616095749
H            4.48128722030134        4.36029110887317       -0.19874404391507
H            6.85449401963346        3.79403042304818        0.03158554708268
H            7.58614738418994        1.43256148718241        0.12576811518838
H            7.71441673549287       -1.30957631850699        0.19449365874399
H            7.20726019193138       -3.73026931968767        0.21237921971012
H            4.89257908551930       -4.52453935655188        0.08800709576506
H            3.01393475453817       -2.94203917555190       -0.08801548415984
H            2.11967156403666       -1.66656183537811       -1.89815044277681
H           -0.32586568904999       -1.71845979336704       -2.15634592051015
H           -1.44761054912578        2.45073728458554       -1.08700266981214
H           -3.20406722369551        4.12496103483944       -1.49505411259025
H           -5.55282310681589        3.46356192476408       -1.72636078193888
H           -6.21330478549185        1.08315502333552       -1.60664875947573
H           -6.25737117593194       -1.66174405191594       -1.36659956349548
H           -5.67825949371788       -4.04630483877641       -1.05933040660952
H           -3.36519383424326       -4.72799992371098       -0.62627414201570
H           -1.55269087105917       -3.06360247845626       -0.50295722999375

          :  Hamiltonian                  GFN2-xTB          :
         :: gradient norm              0.000136214922 Eh/a0 ::
         :: HOMO-LUMO gap              0.896879686552 eV    ::
         :: SCC energy              -103.751580282128 Eh    ::
         :: -> dispersion             -0.094258265633 Eh    ::
         :: -> Gsolv                  -0.051006655543 Eh    ::
         :: repulsion energy           1.799217801529 Eh    ::

    * Orbital Energies and Occupations

         #    Occupation            Energy/Eh            Energy/eV
      -------------------------------------------------------------
         1        2.0000           -0.6952358             -18.9183
       ...           ...                  ...                  ...
        83        2.0000           -0.4287146             -11.6659
        84        2.0000           -0.4259563             -11.5909
        85        2.0000           -0.4248513             -11.5608
        86        2.0000           -0.4200905             -11.4312
        87        2.0000           -0.4197023             -11.4207
        88        2.0000           -0.4188679             -11.3980
        89        2.0000           -0.3939247             -10.7192
        90        2.0000           -0.3938065             -10.7160
        91        2.0000           -0.3853640             -10.4863
        92        1.9998           -0.3819390             -10.3931
        93        1.9201           -0.3759243             -10.2294
        94        1.0801           -0.3712843             -10.1032
        95        1.0000           -0.2977373              -8.1018 (HOMO)
        96                         -0.2647782              -7.2050 (LUMO)
        97                         -0.2638433              -7.1795
        98                         -0.2586686              -7.0387
        99                         -0.2547534              -6.9322
       100                         -0.2504986              -6.8164
       101                         -0.2374859              -6.4623
       102                         -0.2373720              -6.4592
       103                         -0.2132111              -5.8018
       104                         -0.2060981              -5.6082
       105                         -0.2007610              -5.4630
       106                         -0.2004132              -5.4535
       ...                                ...                  ...
       182                          0.7304950              19.8778
      -------------------------------------------------------------
                  HL-Gap            0.0329591 Eh            0.8969 eV

     #   Z          covCN         q      C6AA      α(0)
     1   8 O        0.857    -0.529    24.435     6.628
     2   6 C        2.829     0.172    24.300     8.078
     3   6 C        2.958    -0.042    29.047     8.840
     4   6 C        2.920     0.064    26.561     8.451
     5   7 N        1.833    -0.227    26.801     7.672
     6   6 C        2.899     0.117    25.431     8.268
     7   7 N        1.834    -0.214    26.490     7.627
     8   6 C        2.921     0.076    26.295     8.409
     9   6 C        2.969    -0.018    28.453     8.750
    10   6 C        2.927    -0.037    28.928     8.820
    11   6 C        2.909     0.062    26.605     8.458
    12   7 N        2.802    -0.009    21.433     6.876
    13   6 C        3.067     0.047    26.886     8.502
    14   6 C        2.909    -0.040    29.002     8.831
    15   6 C        2.923    -0.029    28.727     8.789
    16   6 C        2.920    -0.032    28.788     8.799
    17   6 C        2.912    -0.028    28.707     8.786
    18   6 C        3.064    -0.010    28.192     8.707
    19   6 C        3.064    -0.009    28.179     8.705
    20   6 C        2.912    -0.028    28.697     8.784
    21   6 C        2.920    -0.032    28.789     8.799
    22   6 C        2.923    -0.030    28.740     8.792
    23   6 C        2.910    -0.043    29.063     8.840
    24   6 C        3.068     0.046    26.905     8.505
    25   6 C        2.919    -0.049    29.228     8.866
    26   6 C        2.920    -0.039    28.977     8.827
    27   6 C        2.911     0.050    26.885     8.502
    28   7 N        2.802    -0.023    21.683     6.916
    29   6 C        3.071     0.048    26.858     8.498
    30   6 C        2.910    -0.039    28.976     8.827
    31   6 C        2.923    -0.030    28.750     8.793
    32   6 C        2.920    -0.033    28.817     8.803
    33   6 C        2.912    -0.030    28.750     8.792
    34   6 C        3.066    -0.013    28.272     8.719
    35   6 C        3.065    -0.010    28.209     8.709
    36   6 C        2.912    -0.027    28.687     8.783
    37   6 C        2.920    -0.030    28.758     8.794
    38   6 C        2.923    -0.028    28.705     8.786
    39   6 C        2.910    -0.042    29.053     8.838
    40   6 C        3.071     0.048    26.853     8.497
    41   1 H        0.925     0.036     2.507     2.476
    42   1 H        0.926     0.043     2.407     2.426
    43   1 H        0.925     0.048     2.347     2.396
    44   1 H        0.926     0.056     2.249     2.345
    45   1 H        0.926     0.040     2.445     2.445
    46   1 H        0.926     0.042     2.426     2.435
    47   1 H        0.926     0.044     2.397     2.421
    48   1 H        0.926     0.047     2.353     2.399
    49   1 H        0.926     0.046     2.367     2.406
    50   1 H        0.926     0.044     2.394     2.420
    51   1 H        0.926     0.045     2.381     2.413
    52   1 H        0.926     0.045     2.388     2.416
    53   1 H        0.926     0.064     2.148     2.292
    54   1 H        0.926     0.063     2.163     2.300
    55   1 H        0.926     0.035     2.523     2.484
    56   1 H        0.926     0.042     2.419     2.432
    57   1 H        0.926     0.046     2.369     2.407
    58   1 H        0.926     0.048     2.342     2.393
    59   1 H        0.926     0.047     2.358     2.401
    60   1 H        0.926     0.048     2.346     2.395
    61   1 H        0.926     0.049     2.330     2.387
    62   1 H        0.926     0.044     2.400     2.422

molecular dipole:
                 x           y           z       tot (Debye)
 q only:        1.815      -2.434      -2.295
   full:        2.009      -2.254      -2.306       9.656

 projected vibrational frequencies (cm⁻¹)
eigval :       -0.00    -0.00     0.00     0.00     0.00     0.00
eigval :       18.53    22.66    26.85    32.42    37.63    56.25
eigval :       68.26    71.97    94.23   104.01   106.53   122.44
eigval :      128.68   132.97   145.99   154.16   181.07   187.03
eigval :      200.29   213.59   256.92   262.45   272.31   273.68
eigval :      282.08   321.94   344.93   365.89   383.03   396.45
eigval :      400.33   410.19   414.03   420.91   425.01   431.03
eigval :      435.32   449.15   452.00   487.98   513.81   514.76
eigval :      534.16   535.88   536.23   543.24   555.32   582.24
eigval :      585.41   591.85   601.33   602.44   616.63   624.49
eigval :      636.01   664.11   672.44   677.60   681.60   686.88
eigval :      701.80   710.44   713.51   752.11   753.79   762.26
eigval :      766.28   769.30   776.05   777.30   778.61   820.18
eigval :      832.56   863.83   867.61   867.77   873.24   882.49
eigval :      884.23   889.30   894.49   897.89   899.42   902.76
eigval :      905.46   907.35   910.01   918.89   920.87   923.34
eigval :      924.48   930.28   961.11  1005.52  1010.80  1013.26
eigval :     1067.37  1067.69  1070.47  1070.89  1085.87  1110.05
eigval :     1112.56  1129.92  1140.76  1141.09  1148.56  1160.07
eigval :     1171.00  1174.29  1174.69  1176.60  1182.96  1197.51
eigval :     1217.88  1223.77  1225.72  1227.05  1229.55  1235.77
eigval :     1238.71  1261.00  1275.77  1279.93  1287.05  1287.69
eigval :     1289.09  1320.77  1328.71  1337.49  1339.04  1350.44
eigval :     1358.94  1360.74  1369.70  1390.16  1409.79  1410.99
eigval :     1413.21  1418.35  1445.21  1449.31  1458.24  1458.86
eigval :     1470.02  1477.64  1477.78  1485.25  1520.86  1555.42
eigval :     1566.60  1567.32  1576.74  1577.63  1579.12  1581.82
eigval :     1597.90  1602.49  3021.55  3042.49  3082.15  3083.50
eigval :     3083.59  3084.60  3088.46  3089.07  3089.78  3090.12
eigval :     3091.27  3095.76  3096.17  3096.85  3097.69  3098.26
eigval :     3101.01  3101.87  3101.99  3102.31  3103.71  3112.41

   temp. (K)  partition function   enthalpy   heat capacity  entropy
                                   cal/mol     cal/K/mol   cal/K/mol   J/K/mol
 298.15  VIB  0.331E+13            17492.056    114.365    106.438
         ROT  0.385E+08              888.752      2.981     37.692
         INT  0.127E+21            18380.809    117.346    144.130
         TR   0.113E+29             1481.254      4.968     44.581
         TOT                       19862.0627   122.3142   188.7113   789.5680

       T/K    H(0)-H(T)+PV         H(T)/Eh          T*S/Eh         G(T)/Eh
   ------------------------------------------------------------------------
    298.15    0.316522E-01    0.492728E+00    0.896628E-01    0.403065E+00
   ------------------------------------------------------------------------

         :::::::::::::::::::::::::::::::::::::::::::::::::::::
         ::                  THERMODYNAMIC                  ::
         :::::::::::::::::::::::::::::::::::::::::::::::::::::
         :: total free energy        -101.549297614016 Eh   ::
         ::.................................................::
         :: total energy             -101.952362480776 Eh   ::
         :: zero point energy           0.461075473557 Eh   ::
         :: G(RRHO) w/o ZPVE           -0.058010606797 Eh   ::
         :: G(RRHO) contrib.            0.403064866760 Eh   ::
         :::::::::::::::::::::::::::::::::::::::::::::::::::::

           -------------------------------------------------
          | TOTAL ENERGY             -101.952362480776 Eh   |
          | TOTAL ENTHALPY           -101.459634795499 Eh   |
          | TOTAL FREE ENERGY        -101.549297614016 Eh   |
          | GRADIENT NORM               0.000138614182 Eh/α |
          | HOMO-LUMO GAP               0.896862020977 eV   |
           -------------------------------------------------

 * finished run on 2025/09/04 at 03:36:40.262
