   * xtb version 6.7.1 (edcfbbe) compiled by 'albert@albert-system' on 2024-07-22

   ID    Z sym.   atoms
    1    8 O      1
    2    6 C      2-4, 6, 8-11, 13-27, 29-40
    3    7 N      5, 7, 12, 28
    4    1 H      41-62

          program call               : xtb data2507/toluene/25CzBPym/25CzBPym_toluene_S0_crest.xyz --gfn 2 --gbsa toluene --ohess vtight --parallel 40 --molden --ceasefiles --namespace data2507/toluene/25CzBPym/25CzBPym_toluene_S0_finalOpt
      * Solvation model:               GBSA
        Solvent                        toluene
        Solvent mass                       9.2140E+01 g/mol
          :  Hamiltonian                  GFN2-xTB          :
 * total energy  :  -102.0192006 Eh     change       -0.5432241E-09 Eh
 * total energy  :  -102.0192770 Eh     change       -0.7635984E-04 Eh
 * total energy  :  -102.0193399 Eh     change       -0.6291981E-04 Eh
 * total energy  :  -102.0193659 Eh     change       -0.2602452E-04 Eh
 * total energy  :  -102.0193954 Eh     change       -0.2943672E-04 Eh
 * total energy  :  -102.0194196 Eh     change       -0.2418247E-04 Eh
 * total energy  :  -102.0194397 Eh     change       -0.2017881E-04 Eh
 * total energy  :  -102.0194526 Eh     change       -0.1289761E-04 Eh
 * total energy  :  -102.0194663 Eh     change       -0.1364030E-04 Eh
 * total energy  :  -102.0194739 Eh     change       -0.7624568E-05 Eh
 * total energy  :  -102.0195548 Eh     change       -0.3157704E-06 Eh
 * total energy  :  -102.0195551 Eh     change       -0.3451359E-06 Eh
 * total energy  :  -102.0195554 Eh     change       -0.3406804E-06 Eh
 * total energy  :  -102.0195557 Eh     change       -0.3003365E-06 Eh
 * total energy  :  -102.0195560 Eh     change       -0.2800143E-06 Eh
 * total energy  :  -102.0195563 Eh     change       -0.2875661E-06 Eh
 * total energy  :  -102.0195566 Eh     change       -0.3064759E-06 Eh
 * total energy  :  -102.0195570 Eh     change       -0.3629190E-06 Eh
 * total energy  :  -102.0195570 Eh     change       -0.1366843E-08 Eh
   *** GEOMETRY OPTIMIZATION CONVERGED AFTER 44 ITERATIONS ***

 final structure:
================
62
 xtb: 6.7.1 (edcfbbe)
O           -0.58499599815988        2.43983681357447        1.69159220651651
C           -0.93647093957003        1.35048606098228        1.27849446104604
C           -2.19132331856446        0.71809177308986        1.75807092015280
C           -2.28050980433586       -0.63192744030012        2.10158262232774
N           -3.39799469574947       -1.16629659687167        2.55891181371908
C           -4.43570119419689       -0.36195229092268        2.69775013480859
N           -4.46018677463593        0.93436254109667        2.43946711354740
C           -3.34952355591222        1.47006918850318        1.97109704618015
C           -0.11764370126532        0.54845685768470        0.33889770410582
C            1.26606643324503        0.60076243246765        0.47226448603678
C            2.08945154721042       -0.18485371537841       -0.32695724491623
N            3.47575156732301       -0.12574707030626       -0.18628093042124
C            4.23492061833210        1.03150186332744       -0.12030752766769
C            3.83874475618627        2.35827777320019       -0.20712787834963
C            4.81906868529795        3.33101839682880       -0.14067827545790
C            6.16505761364980        2.99983833755953       -0.00266084367684
C            6.56777043435897        1.68032885470765        0.05804761662593
C            5.60023655366747        0.68583081870201       -0.00508849648348
C            5.66132865418682       -0.75024158049354        0.01107558888985
C            6.70633311802795       -1.65775292102669        0.12805763489061
C            6.41274582029076       -3.00718701746127        0.13967293702650
C            5.09596767916543       -3.45324491268558        0.05445107936708
C            4.04011479417754       -2.56841472855800       -0.06399694938202
C            4.33112244324945       -1.21246452353500       -0.10516814891958
C            1.50769954958435       -1.02869006438983       -1.27639712420201
C            0.13735050169264       -1.06434349731329       -1.43475943747720
C           -0.69156492148627       -0.27390889435970       -0.64332005953603
N           -2.07284515412902       -0.26189103301152       -0.86480330728853
C           -2.84249574589943        0.86671517039449       -1.08814250097761
C           -2.44355570572688        2.18376877930374       -1.26242659781772
C           -3.42638721371804        3.12734095128489       -1.49567717620561
C           -4.77225480643288        2.77295007873819       -1.56306357098146
C           -5.17078872007238        1.45912391593909       -1.41605603020624
C           -4.20133682558244        0.49237084118205       -1.18174594789007
C           -4.24712245221841       -0.93308587297924       -1.00067307958173
C           -5.28178208354710       -1.85881507176621       -0.96192206863909
C           -4.97335351667313       -3.18586361380412       -0.73624507706666
C           -3.65573242511283       -3.59418208321638       -0.54272461658668
C           -2.60942417747740       -2.69203167033296       -0.57706670042745
C           -2.91348170359048       -1.36037696258719       -0.81615771564520
H           -1.42783222751002       -1.29571898449665        2.02859054125437
H           -5.35134450523205       -0.80482792849860        3.06673022637506
H           -3.37296912530961        2.52743833687357        1.74159568380665
H            1.68731899720595        1.23716736690589        1.23583595268699
H            2.80166175644211        2.63153708535986       -0.33005339249683
H            4.53317203655850        4.37103506935526       -0.19992321371995
H            6.90041362076673        3.78916198742738        0.04871043362845
H            7.61210330441440        1.42220217753633        0.14854648755170
H            7.72482636535463       -1.31040590827652        0.21403247919497
H            7.21091105701778       -3.72943654043382        0.22739612946107
H            4.89388191310077       -4.51385366600080        0.08533113427710
H            3.02350711032017       -2.92819925906354       -0.10803139435520
H            2.13937949072096       -1.62498452506680       -1.91615672122232
H           -0.30441310583148       -1.68607007140534       -2.19835520128558
H           -1.40224549396173        2.46748376175466       -1.22053665985257
H           -3.14237193090970        4.16062967492975       -1.62966773291559
H           -5.51032408939736        3.54030881440023       -1.74179504425573
H           -6.21204950984993        1.18382170607943       -1.48300365602222
H           -6.30396723085963       -1.54058158594666       -1.09906697678477
H           -5.76399979665461       -3.92026178608926       -0.70154183638828
H           -3.44708972405072       -4.63710912754022       -0.35733492163052
H           -1.59232374981657       -3.01427988247233       -0.41455847094974

          :  Hamiltonian                  GFN2-xTB          :
         :: gradient norm              0.000031930243 Eh/a0 ::
         :: HOMO-LUMO gap              1.395738149704 eV    ::
         :: SCC energy              -103.830578960654 Eh    ::
         :: -> dispersion             -0.096260303334 Eh    ::
         :: -> Gsolv                  -0.041036490184 Eh    ::
         :: repulsion energy           1.811021985510 Eh    ::

    * Orbital Energies and Occupations

         #    Occupation            Energy/Eh            Energy/eV
      -------------------------------------------------------------
         1        2.0000           -0.7364879             -20.0409
       ...           ...                  ...                  ...
        82        2.0000           -0.4282481             -11.6532
        83        2.0000           -0.4274572             -11.6317
        84        2.0000           -0.4263670             -11.6020
        85        2.0000           -0.4232770             -11.5180
        86        2.0000           -0.4225344             -11.4977
        87        2.0000           -0.4152432             -11.2993
        88        2.0000           -0.4139469             -11.2641
        89        2.0000           -0.4102343             -11.1630
        90        2.0000           -0.3929321             -10.6922
        91        2.0000           -0.3886353             -10.5753
        92        2.0000           -0.3836974             -10.4409
        93        2.0000           -0.3790221             -10.3137
        94        2.0000           -0.3681801             -10.0187 (HOMO)
        95                         -0.3168877              -8.6230 (LUMO)
        96                         -0.2925155              -7.9598
        97                         -0.2753480              -7.4926
        98                         -0.2613252              -7.1110
        99                         -0.2535978              -6.9007
       100                         -0.2483224              -6.7572
       101                         -0.2319613              -6.3120
       102                         -0.2272056              -6.1826
       103                         -0.2267868              -6.1712
       104                         -0.2055899              -5.5944
       105                         -0.1958165              -5.3284
       ...                                ...                  ...
       182                          0.7388280              20.1045
      -------------------------------------------------------------
                  HL-Gap            0.0512924 Eh            1.3957 eV

     #   Z          covCN         q      C6AA      α(0)
     1   8 O        0.858    -0.393    21.532     6.221
     2   6 C        2.826     0.234    23.107     7.877
     3   6 C        2.960    -0.024    28.603     8.772
     4   6 C        2.934     0.083    26.158     8.388
     5   7 N        1.834    -0.225    26.749     7.664
     6   6 C        2.925     0.155    24.639     8.140
     7   7 N        1.833    -0.225    26.764     7.666
     8   6 C        2.936     0.092    25.957     8.356
     9   6 C        2.973    -0.029    28.711     8.789
    10   6 C        2.927    -0.033    28.827     8.805
    11   6 C        2.908     0.068    26.485     8.439
    12   7 N        2.801    -0.039    21.984     6.964
    13   6 C        3.068     0.045    26.927     8.509
    14   6 C        2.910    -0.051    29.255     8.869
    15   6 C        2.924    -0.033    28.823     8.804
    16   6 C        2.920    -0.040    29.000     8.831
    17   6 C        2.912    -0.033    28.829     8.805
    18   6 C        3.066    -0.016    28.332     8.728
    19   6 C        3.066    -0.015    28.325     8.727
    20   6 C        2.912    -0.033    28.821     8.803
    21   6 C        2.920    -0.040    28.999     8.831
    22   6 C        2.924    -0.033    28.830     8.805
    23   6 C        2.910    -0.052    29.289     8.874
    24   6 C        3.068     0.044    26.934     8.510
    25   6 C        2.921    -0.035    28.876     8.812
    26   6 C        2.920    -0.038    28.938     8.821
    27   6 C        2.911     0.061    26.628     8.462
    28   7 N        2.802    -0.057    22.332     7.019
    29   6 C        3.071     0.041    27.003     8.520
    30   6 C        2.909    -0.053    29.324     8.880
    31   6 C        2.924    -0.033    28.834     8.806
    32   6 C        2.920    -0.040    28.991     8.830
    33   6 C        2.913    -0.033    28.831     8.805
    34   6 C        3.066    -0.020    28.430     8.743
    35   6 C        3.067    -0.019    28.415     8.741
    36   6 C        2.913    -0.034    28.842     8.806
    37   6 C        2.920    -0.039    28.960     8.825
    38   6 C        2.924    -0.031    28.768     8.796
    39   6 C        2.910    -0.052    29.281     8.873
    40   6 C        3.070     0.043    26.957     8.513
    41   1 H        0.925     0.054     2.266     2.354
    42   1 H        0.925     0.062     2.172     2.305
    43   1 H        0.925     0.059     2.210     2.325
    44   1 H        0.926     0.063     2.166     2.302
    45   1 H        0.926     0.030     2.590     2.517
    46   1 H        0.926     0.033     2.548     2.496
    47   1 H        0.926     0.032     2.557     2.501
    48   1 H        0.926     0.035     2.511     2.478
    49   1 H        0.926     0.035     2.521     2.483
    50   1 H        0.926     0.032     2.555     2.500
    51   1 H        0.926     0.035     2.518     2.482
    52   1 H        0.926     0.033     2.541     2.493
    53   1 H        0.926     0.070     2.087     2.259
    54   1 H        0.926     0.067     2.114     2.274
    55   1 H        0.926     0.022     2.700     2.569
    56   1 H        0.926     0.036     2.500     2.473
    57   1 H        0.926     0.038     2.472     2.459
    58   1 H        0.926     0.040     2.449     2.447
    59   1 H        0.926     0.038     2.480     2.463
    60   1 H        0.926     0.038     2.471     2.458
    61   1 H        0.926     0.042     2.428     2.437
    62   1 H        0.926     0.035     2.517     2.481

molecular dipole:
                 x           y           z       tot (Debye)
 q only:        0.310      -1.445      -0.951
   full:        0.553      -1.282      -1.046       4.435

 projected vibrational frequencies (cm⁻¹)
eigval :       -0.00    -0.00     0.00     0.00     0.00     0.00
eigval :       -6.37    19.36    20.35    30.49    33.38    49.06
eigval :       61.24    67.90    78.89   100.41   102.03   116.95
eigval :      126.56   133.05   144.22   150.62   166.48   184.34
eigval :      197.32   212.74   240.98   260.46   270.33   271.62
eigval :      278.62   309.86   341.81   356.41   362.14   385.73
eigval :      394.37   398.38   414.06   418.92   422.18   430.32
eigval :      437.51   453.11   462.76   495.68   517.24   518.78
eigval :      529.66   535.19   539.85   540.08   558.65   584.09
eigval :      588.01   606.35   609.60   617.31   630.99   640.34
eigval :      670.40   676.06   676.26   684.44   702.24   705.69
eigval :      710.80   721.33   726.98   753.94   754.99   765.41
eigval :      768.79   777.37   780.35   785.44   831.10   837.08
eigval :      866.86   867.49   869.71   873.92   892.83   896.01
eigval :      897.16   899.71   900.89   901.57   903.07   907.05
eigval :      917.97   918.64   920.18   920.94   921.88   923.03
eigval :      931.07   942.38  1002.86  1010.75  1012.32  1031.99
eigval :     1068.54  1070.35  1071.92  1073.60  1092.10  1114.40
eigval :     1134.01  1137.98  1149.57  1150.78  1164.75  1172.69
eigval :     1176.38  1177.74  1178.04  1180.15  1185.74  1202.76
eigval :     1224.84  1225.55  1233.35  1233.59  1238.62  1241.29
eigval :     1248.72  1252.94  1293.98  1295.43  1297.74  1298.70
eigval :     1313.33  1335.12  1354.33  1354.79  1358.33  1359.55
eigval :     1381.80  1389.95  1394.20  1401.98  1418.79  1425.58
eigval :     1426.21  1438.39  1470.86  1472.47  1473.77  1485.04
eigval :     1485.15  1538.01  1539.38  1541.29  1573.98  1574.24
eigval :     1578.83  1587.47  1588.60  1597.37  1598.24  1610.88
eigval :     1611.80  1669.14  3048.18  3061.72  3065.72  3073.91
eigval :     3075.40  3076.22  3079.91  3080.11  3080.95  3082.49
eigval :     3084.57  3087.42  3088.39  3089.61  3091.31  3093.80
eigval :     3096.14  3097.80  3098.09  3099.45  3099.99  3109.69

   temp. (K)  partition function   enthalpy   heat capacity  entropy
                                   cal/mol     cal/K/mol   cal/K/mol   J/K/mol
 298.15  VIB  0.317E+14            17551.058    112.777    108.681
         ROT  0.377E+08              888.752      2.981     37.647
         INT  0.119E+22            18439.810    115.757    146.328
         TR   0.113E+29             1481.254      4.968     44.581
         TOT                       19921.0639   120.7256   190.9085   798.7610

       T/K    H(0)-H(T)+PV         H(T)/Eh          T*S/Eh         G(T)/Eh
   ------------------------------------------------------------------------
    298.15    0.317462E-01    0.495759E+00    0.907068E-01    0.405052E+00
   ------------------------------------------------------------------------

         :::::::::::::::::::::::::::::::::::::::::::::::::::::
         ::                  THERMODYNAMIC                  ::
         :::::::::::::::::::::::::::::::::::::::::::::::::::::
         :: total free energy        -101.614504797567 Eh   ::
         ::.................................................::
         :: total energy             -102.019556977589 Eh   ::
         :: zero point energy           0.464012717660 Eh   ::
         :: G(RRHO) w/o ZPVE           -0.058960537638 Eh   ::
         :: G(RRHO) contrib.            0.405052180022 Eh   ::
         :::::::::::::::::::::::::::::::::::::::::::::::::::::

           -------------------------------------------------
          | TOTAL ENERGY             -102.019556977589 Eh   |
          | TOTAL ENTHALPY           -101.523798023934 Eh   |
          | TOTAL FREE ENERGY        -101.614504797567 Eh   |
          | GRADIENT NORM               0.000031924292 Eh/α |
          | HOMO-LUMO GAP               1.395737721996 eV   |
           -------------------------------------------------

 * finished run on 2025/09/04 at 03:36:35.342
