   * xtb version 6.7.1 (edcfbbe) compiled by 'albert@albert-system' on 2024-07-22

   ID    Z sym.   atoms
    1    6 C      1-20
    2    1 H      21-32

          program call               : xtb data2507/toluene/Perylene/Perylene_toluene_S0_finalOpt.xtbopt.xyz --gfn 2 --uhf 2 --gbsa toluene --ohess vtight --parallel 40 --molden --ceasefiles --namespace data2507/toluene/Perylene/Perylene_toluene_T1_preOpt
      * Solvation model:               GBSA
        Solvent                        toluene
        Solvent mass                       9.2140E+01 g/mol
          :  Hamiltonian                  GFN2-xTB          :
 * total energy  :   -48.9171160 Eh     change       -0.7860450E-09 Eh
 * total energy  :   -48.9228927 Eh     change       -0.5776685E-02 Eh
 * total energy  :   -48.9242045 Eh     change       -0.1311799E-02 Eh
 * total energy  :   -48.9242485 Eh     change       -0.4404228E-04 Eh
 * total energy  :   -48.9242592 Eh     change       -0.1065873E-04 Eh
 * total energy  :   -48.9242616 Eh     change       -0.2440650E-05 Eh
 * total energy  :   -48.9242625 Eh     change       -0.9154588E-06 Eh
 * total energy  :   -48.9242632 Eh     change       -0.7100225E-06 Eh
 * total energy  :   -48.9242639 Eh     change       -0.6400667E-06 Eh
 * total energy  :   -48.9242645 Eh     change       -0.6281373E-06 Eh
 * total energy  :   -48.9242668 Eh     change       -0.5118104E-06 Eh
 * total energy  :   -48.9242672 Eh     change       -0.4561405E-06 Eh
 * total energy  :   -48.9242677 Eh     change       -0.4073174E-06 Eh
 * total energy  :   -48.9242680 Eh     change       -0.3705946E-06 Eh
 * total energy  :   -48.9242684 Eh     change       -0.3452723E-06 Eh
 * total energy  :   -48.9242687 Eh     change       -0.3228059E-06 Eh
 * total energy  :   -48.9242690 Eh     change       -0.3026514E-06 Eh
 * total energy  :   -48.9242693 Eh     change       -0.2802372E-06 Eh
 * total energy  :   -48.9242693 Eh     change       -0.2674078E-08 Eh
   *** GEOMETRY OPTIMIZATION CONVERGED AFTER 22 ITERATIONS ***

 final structure:
================
32
 xtb: 6.7.1 (edcfbbe)
C            2.84151669904516        2.42247537483353       -0.09845336001304
C            3.53309586837291        1.22005936384474       -0.04853244615652
C            2.83702322961487       -0.00020197982294        0.00031733106239
C            3.53294859709767       -1.22054481017135        0.04922792049432
C            2.84122333414901       -2.42288174229753        0.09902216594053
C            1.46882092882354       -2.43829160206380        0.08334252393899
C            0.71180999912575       -1.23545110767477        0.02082542036828
C           -0.71197132691815       -1.23536616957009       -0.02041061701068
C           -1.46912674903062       -2.43811797539177       -0.08288279850372
C           -2.84152686918873       -2.42254214186848       -0.09860159583554
C           -3.53310756738486       -1.22011872156623       -0.04888940595576
C           -2.83703545941610        0.00014184700205       -0.00001317898297
C           -3.53296130766559        1.22048981578323        0.04876228589583
C           -2.84123774274442        2.42282353355123        0.09866376322224
C           -1.46883343840168        2.43822502577304        0.08316731962371
C           -0.71182340853603        1.23538102269896        0.02071113521515
C            0.71196014962482        1.23529425097128       -0.02040196475487
C            1.46911477721175        2.43804429458437       -0.08291552560958
C            1.41123660137692       -0.00012007816821        0.00024908393669
C           -1.41124884903743        0.00005025806504        0.00009894942667
H            3.38897736520075        3.35302028493068       -0.14878393678412
H            4.61297507647117        1.20863290227198       -0.05412183536634
H            4.61282845148718       -1.20924449814326        0.05494176542300
H            3.38857056818370       -3.35349314972943        0.14935579759612
H            0.96382850288260       -3.38845428454427        0.13025143879160
H           -0.96424860536296       -3.38834447828793       -0.12972908192380
H           -3.38898550287279       -3.35308981779397       -0.14890293263574
H           -4.61298586078288       -1.20868737844416       -0.05463912264748
H           -4.61284209780108        1.20919486424749        0.05431329264715
H           -3.38858717157889        3.35343651977730        0.14894482960972
H           -0.96383703551838        3.38838031134704        0.13018917490747
H            0.96423258100599        3.38825941357535       -0.12995462431788

          :  Hamiltonian                  GFN2-xTB          :
         :: gradient norm              0.000042217975 Eh/a0 ::
         :: HOMO-LUMO gap              1.751302860816 eV    ::
         :: SCC energy               -49.878034441472 Eh    ::
         :: -> dispersion             -0.041667383248 Eh    ::
         :: -> Gsolv                  -0.018910687839 Eh    ::
         :: repulsion energy           0.953765162832 Eh    ::

    * Orbital Energies and Occupations

         #    Occupation            Energy/Eh            Energy/eV
      -------------------------------------------------------------
         1        2.0000           -0.6534242             -17.7806
       ...           ...                  ...                  ...
        35        2.0000           -0.4456444             -12.1266
        36        2.0000           -0.4452546             -12.1160
        37        2.0000           -0.4438278             -12.0772
        38        2.0000           -0.4332994             -11.7907
        39        2.0000           -0.4264612             -11.6046
        40        2.0000           -0.4057396             -11.0407
        41        2.0000           -0.4042979             -11.0015
        42        2.0000           -0.4027671             -10.9599
        43        2.0000           -0.4022907             -10.9469
        44        2.0000           -0.4000557             -10.8861
        45        2.0000           -0.3997943             -10.8790
        46        1.0000           -0.3498383              -9.5196
        47        1.0000           -0.2938348              -7.9957 (HOMO)
        48                         -0.2294756              -6.2443 (LUMO)
        49                         -0.2259597              -6.1487
        50                         -0.2257002              -6.1416
        51                         -0.2223139              -6.0495
        52                         -0.1572467              -4.2789
        53                         -0.1570504              -4.2736
        54                         -0.1185171              -3.2250
        55                         -0.0768553              -2.0913
        56                         -0.0228041              -0.6205
        57                          0.0862729               2.3476
        58                          0.0965413               2.6270
       ...                                ...                  ...
        92                          0.7267398              19.7756
      -------------------------------------------------------------
                  HL-Gap            0.0643592 Eh            1.7513 eV

     #   Z          covCN         q      C6AA      α(0)
     1   6 C        2.908    -0.031    28.771     8.795
     2   6 C        2.921    -0.040    28.988     8.829
     3   6 C        2.979     0.012    27.736     8.639
     4   6 C        2.921    -0.040    28.988     8.829
     5   6 C        2.908    -0.031    28.771     8.795
     6   6 C        2.917    -0.038    28.956     8.824
     7   6 C        2.975     0.003    27.943     8.671
     8   6 C        2.975     0.003    27.943     8.671
     9   6 C        2.917    -0.038    28.956     8.824
    10   6 C        2.908    -0.031    28.771     8.795
    11   6 C        2.921    -0.040    28.988     8.829
    12   6 C        2.979     0.012    27.736     8.639
    13   6 C        2.921    -0.040    28.988     8.829
    14   6 C        2.908    -0.031    28.771     8.795
    15   6 C        2.917    -0.038    28.956     8.824
    16   6 C        2.975     0.003    27.943     8.671
    17   6 C        2.975     0.003    27.943     8.671
    18   6 C        2.917    -0.038    28.956     8.824
    19   6 C        2.991     0.001    27.985     8.678
    20   6 C        2.991     0.001    27.985     8.678
    21   1 H        0.926     0.031     2.569     2.507
    22   1 H        0.926     0.032     2.556     2.500
    23   1 H        0.926     0.032     2.556     2.500
    24   1 H        0.926     0.031     2.569     2.507
    25   1 H        0.926     0.035     2.510     2.477
    26   1 H        0.926     0.035     2.510     2.477
    27   1 H        0.926     0.031     2.569     2.507
    28   1 H        0.926     0.032     2.556     2.500
    29   1 H        0.926     0.032     2.556     2.500
    30   1 H        0.926     0.031     2.569     2.507
    31   1 H        0.926     0.035     2.510     2.477
    32   1 H        0.926     0.035     2.510     2.477

molecular dipole:
                 x           y           z       tot (Debye)
 q only:        0.000       0.000      -0.000
   full:       -0.000       0.000      -0.000       0.000

 projected vibrational frequencies (cm⁻¹)
eigval :       -0.00    -0.00    -0.00     0.00     0.00     0.00
eigval :       34.08    68.50   124.67   161.91   165.48   190.90
eigval :      249.37   262.92   351.37   352.65   354.64   417.73
eigval :      430.74   439.29   441.90   450.34   487.01   495.34
eigval :      503.79   553.84   563.13   566.72   578.95   604.07
eigval :      611.05   706.37   726.47   728.89   737.00   738.11
eigval :      748.04   765.36   771.01   774.85   822.73   830.85
eigval :      837.41   837.87   840.32   897.03   903.22   906.10
eigval :      906.43   909.30  1008.37  1014.53  1105.53  1112.93
eigval :     1139.25  1143.61  1145.83  1158.76  1175.94  1198.22
eigval :     1210.57  1220.43  1224.13  1227.16  1291.84  1301.33
eigval :     1307.52  1343.09  1348.41  1365.58  1381.50  1382.54
eigval :     1393.13  1402.58  1406.38  1449.50  1469.09  1472.49
eigval :     1499.31  1501.73  1514.68  1532.57  1532.78  1571.00
eigval :     3066.82  3067.16  3067.69  3068.24  3080.21  3080.27
eigval :     3083.72  3085.12  3106.67  3107.26  3118.17  3120.25

   temp. (K)  partition function   enthalpy   heat capacity  entropy
                                   cal/mol     cal/K/mol   cal/K/mol   J/K/mol
 298.15  VIB  0.640E+04             7037.529     53.490     39.436
         ROT  0.101E+07              888.752      2.981     30.453
         INT  0.645E+10             7926.281     56.471     69.890
         TR   0.388E+28             1481.254      4.968     42.457
         TOT                        9407.5351    61.4392   112.3469   470.0596

       T/K    H(0)-H(T)+PV         H(T)/Eh          T*S/Eh         G(T)/Eh
   ------------------------------------------------------------------------
    298.15    0.149919E-01    0.257506E+00    0.533797E-01    0.204127E+00
   ------------------------------------------------------------------------

         :::::::::::::::::::::::::::::::::::::::::::::::::::::
         ::                  THERMODYNAMIC                  ::
         :::::::::::::::::::::::::::::::::::::::::::::::::::::
         :: total free energy         -48.720142478880 Eh   ::
         ::.................................................::
         :: total energy              -48.924269278629 Eh   ::
         :: zero point energy           0.242514596336 Eh   ::
         :: G(RRHO) w/o ZPVE           -0.038387796587 Eh   ::
         :: G(RRHO) contrib.            0.204126799749 Eh   ::
         :::::::::::::::::::::::::::::::::::::::::::::::::::::

           -------------------------------------------------
          | TOTAL ENERGY              -48.924269278629 Eh   |
          | TOTAL ENTHALPY            -48.666762820776 Eh   |
          | TOTAL FREE ENERGY         -48.720142478880 Eh   |
          | GRADIENT NORM               0.000042218442 Eh/α |
          | HOMO-LUMO GAP               1.751302928095 eV   |
           -------------------------------------------------

 * finished run on 2025/09/04 at 12:42:38.382
