   * xtb version 6.7.1 (edcfbbe) compiled by 'albert@albert-system' on 2024-07-22

   ID    Z sym.   atoms
    1    6 C      1-20
    2    1 H      21-32

          program call               : xtb data2507/toluene/Perylene/Perylene_toluene_T1_crest.xyz --gfn 2 --uhf 2 --gbsa toluene --ohess vtight --parallel 40 --molden --ceasefiles --namespace data2507/toluene/Perylene/Perylene_toluene_T1_finalOpt
      * Solvation model:               GBSA
        Solvent                        toluene
        Solvent mass                       9.2140E+01 g/mol
          :  Hamiltonian                  GFN2-xTB          :
 * total energy  :   -48.9242661 Eh     change       -0.2162793E-08 Eh
 * total energy  :   -48.9242724 Eh     change       -0.6223633E-05 Eh
 * total energy  :   -48.9242735 Eh     change       -0.1145794E-05 Eh
 * total energy  :   -48.9242744 Eh     change       -0.9024361E-06 Eh
 * total energy  :   -48.9242752 Eh     change       -0.7615734E-06 Eh
 * total energy  :   -48.9242757 Eh     change       -0.5154909E-06 Eh
 * total energy  :   -48.9242759 Eh     change       -0.2467656E-06 Eh
 * total energy  :   -48.9242761 Eh     change       -0.1229213E-06 Eh
 * total energy  :   -48.9242762 Eh     change       -0.8623137E-07 Eh
   *** GEOMETRY OPTIMIZATION CONVERGED AFTER 9 ITERATIONS ***

 final structure:
================
32
 xtb: 6.7.1 (edcfbbe)
C            2.84312064263212        2.42433458804777        0.01179894951634
C            3.53413092233395        1.22074921339714        0.00382707633386
C            2.83742534620017       -0.00006328624328       -0.00137442350162
C            3.53404420311820       -1.22091485072213       -0.00870948878642
C            2.84294623548000       -2.42446573715007       -0.01413126537467
C            1.47051823811160       -2.43957078276904       -0.01029098790963
C            0.71219966028640       -1.23578119818951       -0.00142250440914
C           -0.71227944281470       -1.23573557891381        0.00426505865093
C           -1.47068464064790       -2.43946946670503        0.01323600527132
C           -2.84311749493531       -2.42429487923792        0.01237400519077
C           -3.53412999665706       -1.22071993342323        0.00297235231135
C           -2.83742766024513        0.00009516479983       -0.00226765515105
C           -3.53405123137616        1.22094107483745       -0.01008538287140
C           -2.84295864760960        2.42449723488351       -0.01475401160164
C           -1.47053285870612        2.43960943949687       -0.01031969269078
C           -0.71220488934356        1.23582361821821       -0.00175824821398
C            0.71227717137348        1.23577923188527        0.00389029294242
C            1.47068904236968        2.43951644838531        0.01189915730882
C            1.41148704924752       -0.00002200407015        0.00049553537969
C           -1.41149090924682        0.00006291946883        0.00020824026057
H            3.39083159014227        3.35606892645326        0.01776575644392
H            4.61401720156327        1.20896368395807        0.00265517212058
H            4.61392946110868       -1.20918515143633       -0.01112845770185
H            3.39058798017625       -3.35623174694746       -0.02141998531816
H            0.96724763035628       -3.39166381004098       -0.01592853650348
H           -0.96748570401066       -3.39157606272150        0.02220859142338
H           -3.39082717833102       -3.35602601677509        0.01896776744667
H           -4.61401601050280       -1.20893856725263        0.00099576510614
H           -4.61393476099552        1.20920231058373       -0.01317250659419
H           -3.39060021844452        3.35626493004180       -0.02184989208642
H           -0.96727566091551        3.39171386753510       -0.01506150716679
H            0.96749640198251        3.39163691330599        0.01933794347444

          :  Hamiltonian                  GFN2-xTB          :
         :: gradient norm              0.000022960491 Eh/a0 ::
         :: HOMO-LUMO gap              1.749664263382 eV    ::
         :: SCC energy               -49.878023928051 Eh    ::
         :: -> dispersion             -0.041663376387 Eh    ::
         :: -> Gsolv                  -0.018874265705 Eh    ::
         :: repulsion energy           0.953747776279 Eh    ::

    * Orbital Energies and Occupations

         #    Occupation            Energy/Eh            Energy/eV
      -------------------------------------------------------------
         1        2.0000           -0.6533727             -17.7792
       ...           ...                  ...                  ...
        35        2.0000           -0.4456373             -12.1264
        36        2.0000           -0.4446225             -12.0988
        37        2.0000           -0.4444257             -12.0934
        38        2.0000           -0.4332531             -11.7894
        39        2.0000           -0.4264876             -11.6053
        40        2.0000           -0.4057771             -11.0418
        41        2.0000           -0.4040011             -10.9934
        42        2.0000           -0.4028685             -10.9626
        43        2.0000           -0.4023038             -10.9472
        44        2.0000           -0.4002755             -10.8921
        45        2.0000           -0.3998386             -10.8802
        46        1.0000           -0.3498182              -9.5190
        47        1.0000           -0.2938427              -7.9959 (HOMO)
        48                         -0.2295437              -6.2462 (LUMO)
        49                         -0.2258488              -6.1457
        50                         -0.2257240              -6.1423
        51                         -0.2222848              -6.0487
        52                         -0.1571654              -4.2767
        53                         -0.1570096              -4.2724
        54                         -0.1183504              -3.2205
        55                         -0.0768187              -2.0903
        56                         -0.0224080              -0.6098
        57                          0.0854894               2.3263
        58                          0.0963302               2.6213
       ...                                ...                  ...
        92                          0.7268590              19.7788
      -------------------------------------------------------------
                  HL-Gap            0.0642990 Eh            1.7497 eV

     #   Z          covCN         q      C6AA      α(0)
     1   6 C        2.908    -0.031    28.771     8.795
     2   6 C        2.921    -0.040    28.988     8.829
     3   6 C        2.979     0.012    27.736     8.639
     4   6 C        2.921    -0.040    28.988     8.829
     5   6 C        2.908    -0.031    28.771     8.795
     6   6 C        2.918    -0.038    28.957     8.824
     7   6 C        2.974     0.003    27.942     8.671
     8   6 C        2.974     0.003    27.942     8.671
     9   6 C        2.918    -0.038    28.957     8.824
    10   6 C        2.908    -0.031    28.771     8.795
    11   6 C        2.921    -0.040    28.988     8.829
    12   6 C        2.979     0.012    27.736     8.639
    13   6 C        2.921    -0.040    28.988     8.829
    14   6 C        2.908    -0.031    28.771     8.795
    15   6 C        2.918    -0.038    28.957     8.824
    16   6 C        2.974     0.003    27.942     8.671
    17   6 C        2.974     0.003    27.942     8.671
    18   6 C        2.918    -0.038    28.957     8.824
    19   6 C        2.991     0.002    27.984     8.678
    20   6 C        2.991     0.002    27.984     8.678
    21   1 H        0.926     0.031     2.569     2.507
    22   1 H        0.926     0.032     2.556     2.500
    23   1 H        0.926     0.032     2.556     2.500
    24   1 H        0.926     0.031     2.569     2.507
    25   1 H        0.926     0.035     2.509     2.477
    26   1 H        0.926     0.035     2.509     2.477
    27   1 H        0.926     0.031     2.569     2.507
    28   1 H        0.926     0.032     2.556     2.500
    29   1 H        0.926     0.032     2.556     2.500
    30   1 H        0.926     0.031     2.569     2.507
    31   1 H        0.926     0.035     2.509     2.477
    32   1 H        0.926     0.035     2.509     2.477

molecular dipole:
                 x           y           z       tot (Debye)
 q only:       -0.000      -0.000      -0.000
   full:       -0.000      -0.000      -0.001       0.001

 projected vibrational frequencies (cm⁻¹)
eigval :       -0.00    -0.00    -0.00     0.00     0.00     0.00
eigval :        6.32    68.14   113.10   161.95   163.50   184.96
eigval :      252.39   260.72   351.48   351.92   354.14   418.04
eigval :      429.02   438.20   438.31   450.44   488.16   495.59
eigval :      502.27   554.95   559.84   566.62   579.07   604.34
eigval :      608.10   706.74   726.56   729.01   736.20   738.24
eigval :      749.05   764.36   770.87   774.74   821.41   831.28
eigval :      836.79   837.37   841.04   897.04   904.31   907.47
eigval :      907.52   910.78  1008.38  1013.92  1105.53  1112.88
eigval :     1139.44  1143.08  1146.03  1158.98  1175.86  1197.95
eigval :     1211.08  1221.19  1224.40  1228.34  1291.17  1301.73
eigval :     1307.34  1343.03  1348.48  1365.72  1381.40  1382.34
eigval :     1393.05  1402.48  1406.53  1449.93  1469.10  1472.21
eigval :     1499.36  1502.09  1514.93  1532.70  1532.82  1571.01
eigval :     3066.72  3067.05  3067.60  3068.15  3080.12  3080.18
eigval :     3083.68  3085.08  3107.46  3108.03  3119.51  3121.58

   temp. (K)  partition function   enthalpy   heat capacity  entropy
                                   cal/mol     cal/K/mol   cal/K/mol   J/K/mol
 298.15  VIB  0.360E+05             7102.488     53.340     41.108
         ROT  0.101E+07              888.752      2.981     30.454
         INT  0.363E+11             7991.241     56.320     71.562
         TR   0.388E+28             1481.254      4.968     42.457
         TOT                        9472.4946    61.2886   114.0197   477.0584

       T/K    H(0)-H(T)+PV         H(T)/Eh          T*S/Eh         G(T)/Eh
   ------------------------------------------------------------------------
    298.15    0.150954E-01    0.257497E+00    0.541744E-01    0.203323E+00
   ------------------------------------------------------------------------

         :::::::::::::::::::::::::::::::::::::::::::::::::::::
         ::                  THERMODYNAMIC                  ::
         :::::::::::::::::::::::::::::::::::::::::::::::::::::
         :: total free energy         -48.720953608585 Eh   ::
         ::.................................................::
         :: total energy              -48.924276151753 Eh   ::
         :: zero point energy           0.242401601415 Eh   ::
         :: G(RRHO) w/o ZPVE           -0.039079058247 Eh   ::
         :: G(RRHO) contrib.            0.203322543169 Eh   ::
         :::::::::::::::::::::::::::::::::::::::::::::::::::::

           -------------------------------------------------
          | TOTAL ENERGY              -48.924276151753 Eh   |
          | TOTAL ENTHALPY            -48.666779169254 Eh   |
          | TOTAL FREE ENERGY         -48.720953608585 Eh   |
          | GRADIENT NORM               0.000022961685 Eh/α |
          | HOMO-LUMO GAP               1.749664259717 eV   |
           -------------------------------------------------

 * finished run on 2025/09/04 at 12:43:20.473
