   * xtb version 6.7.1 (edcfbbe) compiled by 'albert@albert-system' on 2024-07-22

   ID    Z sym.   atoms
    1    6 C      1-20
    2    1 H      21-32

          program call               : xtb data2507/toluene/Perylene/Perylene.xyz --gfn 2 --gbsa toluene --ohess vtight --parallel 40 --molden --ceasefiles --namespace data2507/toluene/Perylene/Perylene_toluene_S0_preOpt
      * Solvation model:               GBSA
        Solvent                        toluene
        Solvent mass                       9.2140E+01 g/mol
          :  Hamiltonian                  GFN2-xTB          :
 * total energy  :   -48.9796497 Eh     change       -0.5170051E-09 Eh
 * total energy  :   -48.9853835 Eh     change       -0.5733811E-02 Eh
 * total energy  :   -48.9866447 Eh     change       -0.1261225E-02 Eh
 * total energy  :   -48.9866795 Eh     change       -0.3478588E-04 Eh
 * total energy  :   -48.9866883 Eh     change       -0.8754421E-05 Eh
 * total energy  :   -48.9866887 Eh     change       -0.3870339E-06 Eh
 * total energy  :   -48.9866887 Eh     change       -0.2407928E-07 Eh
   *** GEOMETRY OPTIMIZATION CONVERGED AFTER 7 ITERATIONS ***

 final structure:
================
32
 xtb: 6.7.1 (edcfbbe)
C            2.86167472383500        2.40739265078048       -0.00000053448715
C            3.54471404025624        1.22308677711804       -0.00000003479177
C            2.84515566284681        0.00001640821903        0.00000028718244
C            3.54472814289621       -1.22304586818122        0.00000054399135
C            2.86170247541961       -2.40735963639551        0.00000046517030
C            1.46688984087251       -2.41382175780541        0.00000012859515
C            0.72966229628070       -1.24140118557126        0.00000012810959
C           -0.72964803374391       -1.24140964694710       -0.00000016400216
C           -1.46686196649802       -2.41383865072121       -0.00000038800252
C           -2.86167467597593       -2.40739273594409       -0.00000047821941
C           -3.54471410711383       -1.22308669758084       -0.00000023636074
C           -2.84515577272092       -0.00001640988736        0.00000003485131
C           -3.54472821695958        1.22304579052434        0.00000039936433
C           -2.86170243890057        2.40735971946776        0.00000080220584
C           -1.46688981948957        2.41382171872887        0.00000063700649
C           -0.72966235183064        1.24140122461822        0.00000015451955
C            0.72964797963302        1.24140961535938       -0.00000009530844
C            1.46686199347272        2.41383868761011       -0.00000061473577
C            1.42317226428442        0.00000820840811        0.00000020283115
C           -1.42317231936382       -0.00000820986932       -0.00000003827158
H            3.39429034870222        3.34766417431783       -0.00000103527536
H            4.62513857034623        1.20506425950201       -0.00000007945914
H            4.62515246297680       -1.20501091853719        0.00000069277532
H            3.39432894274826       -3.34762501962320        0.00000065448995
H            0.97295286702038       -3.37197083621083        0.00000004392005
H           -0.97291386935435       -3.37198206907757       -0.00000024070338
H           -3.39429027491065       -3.34766418861224       -0.00000054935440
H           -4.62513862142732       -1.20506422085613       -0.00000005977697
H           -4.62515251920531        1.20501085351887        0.00000033691159
H           -3.39432884808317        3.34762504850156        0.00000099678703
H           -0.97295276935259        3.37197083456013        0.00000099648423
H            0.97291399333906        3.37198208058573       -0.00000095644686

          :  Hamiltonian                  GFN2-xTB          :
         :: gradient norm              0.000045271249 Eh/a0 ::
         :: HOMO-LUMO gap              1.887848761230 eV    ::
         :: SCC energy               -49.955395621623 Eh    ::
         :: -> dispersion             -0.041687958619 Eh    ::
         :: -> Gsolv                  -0.018833664750 Eh    ::
         :: repulsion energy           0.968706920000 Eh    ::

    * Orbital Energies and Occupations

         #    Occupation            Energy/Eh            Energy/eV
      -------------------------------------------------------------
         1        2.0000           -0.6533152             -17.7776
       ...           ...                  ...                  ...
        34        2.0000           -0.4463676             -12.1463
        35        2.0000           -0.4445510             -12.0968
        36        2.0000           -0.4438721             -12.0784
        37        2.0000           -0.4437047             -12.0738
        38        2.0000           -0.4335676             -11.7980
        39        2.0000           -0.4260875             -11.5944
        40        2.0000           -0.4035612             -10.9815
        41        2.0000           -0.4035144             -10.9802
        42        2.0000           -0.4034878             -10.9795
        43        2.0000           -0.4019229             -10.9369
        44        2.0000           -0.4015716             -10.9273
        45        2.0000           -0.3998263             -10.8798
        46        2.0000           -0.3557455              -9.6803 (HOMO)
        47                         -0.2863684              -7.7925 (LUMO)
        48                         -0.2286235              -6.2212
        49                         -0.2252006              -6.1280
        50                         -0.2246517              -6.1131
        51                         -0.2236419              -6.0856
        52                         -0.1565173              -4.2591
        53                         -0.1550129              -4.2181
        54                         -0.1160481              -3.1578
        55                         -0.0736183              -2.0033
        56                         -0.0215792              -0.5872
        57                          0.0845488               2.3007
       ...                                ...                  ...
        92                          0.7355326              20.0149
      -------------------------------------------------------------
                  HL-Gap            0.0693772 Eh            1.8878 eV

     #   Z          covCN         q      C6AA      α(0)
     1   6 C        2.912    -0.032    28.798     8.800
     2   6 C        2.921    -0.038    28.948     8.823
     3   6 C        2.986     0.010    27.781     8.646
     4   6 C        2.921    -0.038    28.948     8.823
     5   6 C        2.912    -0.032    28.798     8.800
     6   6 C        2.922    -0.038    28.947     8.823
     7   6 C        2.973     0.004    27.927     8.668
     8   6 C        2.973     0.004    27.927     8.668
     9   6 C        2.922    -0.038    28.947     8.823
    10   6 C        2.912    -0.032    28.798     8.800
    11   6 C        2.921    -0.038    28.948     8.823
    12   6 C        2.986     0.010    27.781     8.646
    13   6 C        2.921    -0.038    28.948     8.823
    14   6 C        2.912    -0.032    28.798     8.800
    15   6 C        2.922    -0.038    28.947     8.823
    16   6 C        2.973     0.004    27.927     8.668
    17   6 C        2.973     0.004    27.927     8.668
    18   6 C        2.922    -0.038    28.947     8.823
    19   6 C        2.994     0.002    27.971     8.676
    20   6 C        2.994     0.002    27.971     8.676
    21   1 H        0.926     0.031     2.569     2.506
    22   1 H        0.926     0.032     2.552     2.498
    23   1 H        0.926     0.032     2.552     2.498
    24   1 H        0.926     0.031     2.569     2.506
    25   1 H        0.926     0.034     2.526     2.486
    26   1 H        0.926     0.034     2.526     2.486
    27   1 H        0.926     0.031     2.569     2.506
    28   1 H        0.926     0.032     2.552     2.498
    29   1 H        0.926     0.032     2.552     2.498
    30   1 H        0.926     0.031     2.569     2.506
    31   1 H        0.926     0.034     2.526     2.486
    32   1 H        0.926     0.034     2.526     2.486

molecular dipole:
                 x           y           z       tot (Debye)
 q only:       -0.000      -0.000       0.000
   full:       -0.000      -0.000       0.000       0.000

 projected vibrational frequencies (cm⁻¹)
eigval :       -0.00    -0.00    -0.00     0.00     0.00     0.00
eigval :      -17.68    79.44   105.00   164.49   177.53   204.03
eigval :      253.85   282.68   351.16   352.95   379.73   415.40
eigval :      418.26   426.71   457.01   495.05   502.78   504.32
eigval :      511.06   565.79   567.82   584.72   589.25   622.56
eigval :      627.85   726.76   747.40   751.46   758.28   772.66
eigval :      777.15   778.03   800.78   804.92   849.31   864.60
eigval :      875.46   877.64   886.20   904.95   918.43   920.72
eigval :      923.72   926.02  1006.29  1052.95  1106.29  1120.07
eigval :     1148.95  1153.60  1160.19  1174.04  1188.86  1200.31
eigval :     1215.20  1217.50  1229.57  1237.32  1294.01  1300.27
eigval :     1341.95  1345.83  1347.24  1361.28  1382.84  1385.94
eigval :     1416.35  1423.28  1441.10  1460.36  1494.32  1516.90
eigval :     1534.04  1567.71  1587.67  1591.07  1591.32  1591.80
eigval :     3065.80  3066.03  3067.21  3067.52  3077.11  3077.75
eigval :     3079.44  3081.12  3098.59  3099.31  3109.77  3111.44

   temp. (K)  partition function   enthalpy   heat capacity  entropy
                                   cal/mol     cal/K/mol   cal/K/mol   J/K/mol
 298.15  VIB  0.910E+04             6848.751     51.963     38.681
         ROT  0.101E+07              888.752      2.981     30.451
         INT  0.917E+10             7737.504     54.944     69.132
         TR   0.388E+28             1481.254      4.968     42.457
         TOT                        9218.7577    59.9119   111.5890   466.8885

       T/K    H(0)-H(T)+PV         H(T)/Eh          T*S/Eh         G(T)/Eh
   ------------------------------------------------------------------------
    298.15    0.146910E-01    0.260070E+00    0.530195E-01    0.207051E+00
   ------------------------------------------------------------------------

         :::::::::::::::::::::::::::::::::::::::::::::::::::::
         ::                  THERMODYNAMIC                  ::
         :::::::::::::::::::::::::::::::::::::::::::::::::::::
         :: total free energy         -48.779637824478 Eh   ::
         ::.................................................::
         :: total energy              -48.986688701623 Eh   ::
         :: zero point energy           0.245379401439 Eh   ::
         :: G(RRHO) w/o ZPVE           -0.038328524294 Eh   ::
         :: G(RRHO) contrib.            0.207050877145 Eh   ::
         :::::::::::::::::::::::::::::::::::::::::::::::::::::

           -------------------------------------------------
          | TOTAL ENERGY              -48.986688701623 Eh   |
          | TOTAL ENTHALPY            -48.726618274696 Eh   |
          | TOTAL FREE ENERGY         -48.779637824478 Eh   |
          | GRADIENT NORM               0.000045255719 Eh/α |
          | HOMO-LUMO GAP               1.887848775325 eV   |
           -------------------------------------------------

 * finished run on 2025/09/04 at 12:41:56.416
