   * xtb version 6.7.1 (edcfbbe) compiled by 'albert@albert-system' on 2024-07-22

   ID    Z sym.   atoms
    1    6 C      1-20
    2    1 H      21-32

          program call               : xtb data2507/toluene/Perylene/Perylene_toluene_S0_crest.xyz --gfn 2 --gbsa toluene --ohess vtight --parallel 40 --molden --ceasefiles --namespace data2507/toluene/Perylene/Perylene_toluene_S0_finalOpt
      * Solvation model:               GBSA
        Solvent                        toluene
        Solvent mass                       9.2140E+01 g/mol
          :  Hamiltonian                  GFN2-xTB          :
 * total energy  :   -48.9867066 Eh     change       -0.3987424E-09 Eh
 * total energy  :   -48.9867123 Eh     change       -0.5698120E-05 Eh
 * total energy  :   -48.9867128 Eh     change       -0.5173383E-06 Eh
 * total energy  :   -48.9867130 Eh     change       -0.2049912E-06 Eh
 * total energy  :   -48.9867133 Eh     change       -0.2385911E-06 Eh
 * total energy  :   -48.9867134 Eh     change       -0.1126456E-06 Eh
 * total energy  :   -48.9867134 Eh     change       -0.2446389E-07 Eh
   *** GEOMETRY OPTIMIZATION CONVERGED AFTER 7 ITERATIONS ***

 final structure:
================
32
 xtb: 6.7.1 (edcfbbe)
C            2.85937014481297        2.40438690378506       -0.12255710412506
C            3.54329033743353        1.22195653167598       -0.06166202610090
C            2.84466934500172       -0.00016651349897        0.00051194093944
C            3.54316751759825       -1.22235005177968        0.06291873434877
C            2.85912128108052       -2.40474715394058        0.12303577157808
C            1.46436309635574       -2.41186636864413        0.10045144955697
C            0.72898307602690       -1.24075708796547        0.02636705618534
C           -0.72913630373913       -1.24067487493143       -0.02634473693312
C           -1.46465206357487       -2.41170745800760       -0.10029066772919
C           -2.85941502747067       -2.40445099393024       -0.12251324921009
C           -3.54332317381271       -1.22197845164517       -0.06229332547341
C           -2.84468172162625        0.00013427305585       -0.00016156825400
C           -3.54315990001477        1.22233598696115        0.06212062160985
C           -2.85910262226724        2.40469544603725        0.12283961325498
C           -1.46433695372143        2.41177217683411        0.10069836798794
C           -0.72899265950241        1.24066239412259        0.02626921405892
C            0.72912157713343        1.24057868400900       -0.02631666648523
C            1.46460104095066        2.41160694102824       -0.10069209143730
C            1.42294890111116       -0.00012185220929        0.00022307039385
C           -1.42296102605000        0.00003964789538       -0.00013483507453
H            3.39157148631811        3.34304093975935       -0.18169699701758
H            4.62373146140825        1.20471372181588       -0.06452965634161
H            4.62360734129817       -1.20518404249829        0.06643240280707
H            3.39122352513082       -3.34346289191918        0.18210070532131
H            0.96837025100393       -3.36798816168744        0.14610979394604
H           -0.96876667963720       -3.36788141443643       -0.14603141811957
H           -3.39163065427827       -3.34311218229059       -0.18140221924402
H           -4.62376241209233       -1.20469473196907       -0.06553919381863
H           -4.62360272238026        1.20521146194331        0.06524144848578
H           -3.39118851628621        3.34340816321553        0.18208348793382
H           -0.96829017270287        3.36783566274709        0.14702013254065
H            0.96866595139247        3.36772443416778       -0.14710628648458

          :  Hamiltonian                  GFN2-xTB          :
         :: gradient norm              0.000016875502 Eh/a0 ::
         :: HOMO-LUMO gap              1.889151482114 eV    ::
         :: SCC energy               -49.955401019337 Eh    ::
         :: -> dispersion             -0.041693114105 Eh    ::
         :: -> Gsolv                  -0.018876384031 Eh    ::
         :: repulsion energy           0.968687597029 Eh    ::

    * Orbital Energies and Occupations

         #    Occupation            Energy/Eh            Energy/eV
      -------------------------------------------------------------
         1        2.0000           -0.6533820             -17.7794
       ...           ...                  ...                  ...
        34        2.0000           -0.4463720             -12.1464
        35        2.0000           -0.4449017             -12.1064
        36        2.0000           -0.4436655             -12.0728
        37        2.0000           -0.4435598             -12.0699
        38        2.0000           -0.4336275             -11.7996
        39        2.0000           -0.4260528             -11.5935
        40        2.0000           -0.4035027             -10.9799
        41        2.0000           -0.4034482             -10.9784
        42        2.0000           -0.4033840             -10.9766
        43        2.0000           -0.4030013             -10.9662
        44        2.0000           -0.4005867             -10.9005
        45        2.0000           -0.3997936             -10.8789
        46        2.0000           -0.3557723              -9.6811 (HOMO)
        47                         -0.2863473              -7.7919 (LUMO)
        48                         -0.2285931              -6.2203
        49                         -0.2252480              -6.1293
        50                         -0.2247906              -6.1169
        51                         -0.2235568              -6.0833
        52                         -0.1566239              -4.2620
        53                         -0.1550695              -4.2197
        54                         -0.1162811              -3.1642
        55                         -0.0736855              -2.0051
        56                         -0.0220879              -0.6010
        57                          0.0855164               2.3270
       ...                                ...                  ...
        92                          0.7355255              20.0147
      -------------------------------------------------------------
                  HL-Gap            0.0694250 Eh            1.8892 eV

     #   Z          covCN         q      C6AA      α(0)
     1   6 C        2.912    -0.032    28.798     8.800
     2   6 C        2.921    -0.038    28.948     8.823
     3   6 C        2.986     0.010    27.781     8.646
     4   6 C        2.921    -0.038    28.948     8.823
     5   6 C        2.912    -0.032    28.798     8.800
     6   6 C        2.922    -0.038    28.947     8.823
     7   6 C        2.973     0.004    27.927     8.668
     8   6 C        2.973     0.004    27.927     8.668
     9   6 C        2.922    -0.038    28.947     8.823
    10   6 C        2.912    -0.032    28.798     8.800
    11   6 C        2.921    -0.038    28.948     8.823
    12   6 C        2.986     0.010    27.781     8.646
    13   6 C        2.921    -0.038    28.948     8.823
    14   6 C        2.912    -0.032    28.798     8.800
    15   6 C        2.922    -0.038    28.947     8.823
    16   6 C        2.973     0.004    27.927     8.668
    17   6 C        2.973     0.004    27.927     8.668
    18   6 C        2.922    -0.038    28.947     8.823
    19   6 C        2.994     0.002    27.972     8.676
    20   6 C        2.994     0.002    27.972     8.676
    21   1 H        0.926     0.031     2.568     2.506
    22   1 H        0.926     0.032     2.551     2.498
    23   1 H        0.926     0.032     2.551     2.498
    24   1 H        0.926     0.031     2.568     2.506
    25   1 H        0.926     0.034     2.527     2.486
    26   1 H        0.926     0.034     2.527     2.486
    27   1 H        0.926     0.031     2.568     2.506
    28   1 H        0.926     0.032     2.551     2.498
    29   1 H        0.926     0.032     2.551     2.498
    30   1 H        0.926     0.031     2.568     2.506
    31   1 H        0.926     0.034     2.527     2.486
    32   1 H        0.926     0.034     2.527     2.486

molecular dipole:
                 x           y           z       tot (Debye)
 q only:       -0.000       0.000       0.000
   full:        0.000       0.000       0.000       0.000

 projected vibrational frequencies (cm⁻¹)
eigval :       -0.00    -0.00    -0.00     0.00     0.00     0.00
eigval :       29.19    78.68   115.61   165.35   178.19   210.85
eigval :      251.61   283.97   351.78   352.28   381.88   417.94
eigval :      419.42   428.50   457.01   496.72   500.81   504.05
eigval :      514.59   565.22   568.06   587.97   589.16   625.29
eigval :      629.14   727.53   747.14   751.63   757.54   772.78
eigval :      776.32   779.19   801.40   803.40   849.59   865.55
eigval :      875.33   878.67   885.83   904.99   916.08   918.16
eigval :      921.51   923.46  1006.37  1053.06  1106.17  1120.02
eigval :     1148.55  1153.76  1159.84  1174.16  1189.23  1200.73
eigval :     1214.34  1216.98  1229.46  1235.88  1293.23  1298.78
eigval :     1342.42  1346.19  1347.21  1361.52  1383.18  1386.37
eigval :     1416.47  1423.22  1441.17  1460.36  1493.88  1516.72
eigval :     1534.29  1567.76  1587.70  1590.85  1590.86  1591.98
eigval :     3065.85  3066.09  3067.32  3067.63  3077.11  3077.78
eigval :     3079.45  3081.15  3097.48  3098.23  3108.20  3109.89

   temp. (K)  partition function   enthalpy   heat capacity  entropy
                                   cal/mol     cal/K/mol   cal/K/mol   J/K/mol
 298.15  VIB  0.514E+04             6807.010     52.018     38.064
         ROT  0.101E+07              888.752      2.981     30.449
         INT  0.518E+10             7695.763     54.999     68.513
         TR   0.388E+28             1481.254      4.968     42.457
         TOT                        9177.0165    59.9673   110.9708   464.3017

       T/K    H(0)-H(T)+PV         H(T)/Eh          T*S/Eh         G(T)/Eh
   ------------------------------------------------------------------------
    298.15    0.146245E-01    0.260070E+00    0.527258E-01    0.207345E+00
   ------------------------------------------------------------------------

         :::::::::::::::::::::::::::::::::::::::::::::::::::::
         ::                  THERMODYNAMIC                  ::
         :::::::::::::::::::::::::::::::::::::::::::::::::::::
         :: total free energy         -48.779368913852 Eh   ::
         ::.................................................::
         :: total energy              -48.986713422297 Eh   ::
         :: zero point energy           0.245445794679 Eh   ::
         :: G(RRHO) w/o ZPVE           -0.038101286233 Eh   ::
         :: G(RRHO) contrib.            0.207344508445 Eh   ::
         :::::::::::::::::::::::::::::::::::::::::::::::::::::

           -------------------------------------------------
          | TOTAL ENERGY              -48.986713422297 Eh   |
          | TOTAL ENTHALPY            -48.726643120999 Eh   |
          | TOTAL FREE ENERGY         -48.779368913852 Eh   |
          | GRADIENT NORM               0.000016871390 Eh/α |
          | HOMO-LUMO GAP               1.889151482112 eV   |
           -------------------------------------------------

 * finished run on 2025/09/04 at 12:42:37.408
