   * xtb version 6.7.1 (edcfbbe) compiled by 'albert@albert-system' on 2024-07-22

   ID    Z sym.   atoms
    1    6 C      1-10, 12-24, 26-38, 40-42
    2    7 N      11, 25, 39
    3    1 H      43-69

          program call               : xtb data2507/toluene/CzmPPC/CzmPPC_toluene_T1_crest.xyz --gfn 2 --uhf 2 --gbsa toluene --ohess vtight --parallel 40 --molden --ceasefiles --namespace data2507/toluene/CzmPPC/CzmPPC_toluene_T1_finalOpt
      * Solvation model:               GBSA
        Solvent                        toluene
        Solvent mass                       9.2140E+01 g/mol
          :  Hamiltonian                  GFN2-xTB          :
 * total energy  :  -106.0043566 Eh     change       -0.4974879E-08 Eh
 * total energy  :  -106.0044160 Eh     change       -0.5938684E-04 Eh
 * total energy  :  -106.0044388 Eh     change       -0.2281438E-04 Eh
 * total energy  :  -106.0044444 Eh     change       -0.5621931E-05 Eh
 * total energy  :  -106.0044550 Eh     change       -0.1053345E-04 Eh
 * total energy  :  -106.0044599 Eh     change       -0.4940240E-05 Eh
 * total energy  :  -106.0044690 Eh     change       -0.9082568E-05 Eh
 * total energy  :  -106.0044712 Eh     change       -0.2234331E-05 Eh
 * total energy  :  -106.0044755 Eh     change       -0.4261070E-05 Eh
 * total energy  :  -106.0044792 Eh     change       -0.3754608E-05 Eh
 * total energy  :  -106.0045245 Eh     change       -0.3375924E-06 Eh
 * total energy  :  -106.0045248 Eh     change       -0.3215064E-06 Eh
 * total energy  :  -106.0045251 Eh     change       -0.3068437E-06 Eh
 * total energy  :  -106.0045254 Eh     change       -0.3144223E-06 Eh
 * total energy  :  -106.0045258 Eh     change       -0.3246317E-06 Eh
 * total energy  :  -106.0045261 Eh     change       -0.3223485E-06 Eh
 * total energy  :  -106.0045264 Eh     change       -0.3068648E-06 Eh
 * total energy  :  -106.0045267 Eh     change       -0.2990481E-06 Eh
 * total energy  :  -106.0045267 Eh     change       -0.5682125E-08 Eh
   *** GEOMETRY OPTIMIZATION CONVERGED AFTER 44 ITERATIONS ***

 final structure:
================
69
 xtb: 6.7.1 (edcfbbe)
C           -8.84973098313451        1.90725590085434       -0.29604703733357
C           -8.97716215357616        0.84599196871935        0.58538723788537
C           -7.97804217307864       -0.10567165348402        0.67723756341256
C           -6.83184568267773       -0.00684442093135       -0.10895475678941
C           -5.76797153311763       -1.01956248188593       -0.01525280055658
C           -6.07850509023549       -2.37724509110482        0.06883439101665
C           -5.07435460119262       -3.32683160423645        0.15188406834707
C           -3.74701748425798       -2.94288342708221        0.15411697618954
C           -3.42004367538165       -1.58974751030042        0.07538153012747
C           -2.01621179096433       -1.16682667897735        0.07564119135191
N           -1.08865667417775       -2.10055319500748       -0.01824340637416
C            0.22197165302446       -1.69432899904493       -0.02524743905347
C            1.27496861609061       -2.65990271329922       -0.12240701397859
C            0.99994448494909       -4.03159843410620       -0.24496038961623
C            2.03764513770255       -4.93471757633013       -0.33816232094596
C            3.35612730308581       -4.50674419611559       -0.30783919263989
C            3.65445428386116       -3.14402641477213       -0.18478844491010
C            5.04650707964565       -2.67309994454330       -0.13966349924465
C            6.02158556091666       -3.39109221423512        0.55301858242513
C            7.32688510284641       -2.93883763131664        0.60267983081952
C            7.68367629294544       -1.76426344356582       -0.04099202354895
C            6.72416385687317       -1.04267389971746       -0.73390150365526
C            5.41777703662283       -1.49117324801186       -0.78201477216256
C            2.61096527717325       -2.23705971239807       -0.09610331727743
N            0.50549621736546       -0.40630560791137        0.05069485134556
C           -0.44135319402260        0.50942371530198        0.14193572269044
C           -0.09636782196640        1.89731189295504        0.22721545340911
C           -1.07904265317993        2.88475765004872        0.40285435602751
C           -0.71168735409473        4.21101115523656        0.49022040872521
C            0.62027463592613        4.58604410047886        0.40288964688106
C            1.61699993948995        3.61910461105567        0.22235943010042
C            3.03299176968125        3.99951093091371        0.11466586116137
C            3.41342354084639        5.15173464952881       -0.57376602342795
C            4.74668202485090        5.50084025637527       -0.68046896465822
C            5.72456551443672        4.70773388842262       -0.10085077015329
C            5.35932654947174        3.56075218913018        0.58652096429262
C            4.02709420304280        3.20863854009227        0.69253142453480
C            1.24699113607502        2.28644233107938        0.13939981326534
N           -1.75805878598452        0.12488282219783        0.16382672677416
C           -4.43168201293664       -0.63790432079065       -0.01025668710406
C           -6.71109882573140        1.06730492327557       -0.98846558187045
C           -7.71480623782027        2.01374935825464       -1.08359407704513
H           -9.63179277505857        2.64867612342364       -0.36917796911991
H           -9.85846451308812        0.76055659656078        1.20453499481743
H           -8.07498081935356       -0.92271292019449        1.37727033554062
H           -7.11237987368482       -2.68824680841091        0.04871734494433
H           -5.32928532265703       -4.37476218973489        0.21007801166290
H           -2.95361781673708       -3.67120871957060        0.21888909826555
H           -0.02918492752429       -4.35531856167582       -0.26814706674666
H            1.82163244028833       -5.98865026773039       -0.43938519071643
H            4.15699541801248       -5.22388764990033       -0.40324860756030
H            5.74662018366714       -4.29672143420016        1.07357282688661
H            8.06977372932358       -3.50304198635755        1.14782056460363
H            8.70433320735724       -1.41295079555264       -0.00225583348679
H            6.99538943870384       -0.12762216464454       -1.24062801274147
H            4.67919617178567       -0.93319500633909       -1.33913939802190
H            2.80881409270714       -1.18258672319992        0.02334954362271
H           -2.11290263288006        2.58348620179966        0.47323525946001
H           -1.47008254673759        4.96723818514270        0.63379134580901
H            0.89349014127328        5.62594069587784        0.49659519702225
H            2.65878436096020        5.76357462718757       -1.04578952862626
H            5.02567016864430        6.39386666896476       -1.22096004635488
H            6.76591673332724        4.98203222831650       -0.18457911251803
H            6.11568417998437        2.93894224218437        1.04356305669698
H            3.74923299623604        2.32369334781374        1.24648103416681
H            1.98944731118323        1.51985395448597       -0.02298440748654
H           -4.15897857342409        0.40537990951581       -0.05741606298097
H           -5.83409929543809        1.14596768549949       -1.61482987976014
H           -7.61185780846641        2.83706994048642       -1.77570707931720

          :  Hamiltonian                  GFN2-xTB          :
         :: gradient norm              0.000051241556 Eh/a0 ::
         :: HOMO-LUMO gap              0.132513486204 eV    ::
         :: SCC energy              -107.996310060132 Eh    ::
         :: -> dispersion             -0.086595652930 Eh    ::
         :: -> Gsolv                  -0.050703581823 Eh    ::
         :: repulsion energy           1.991783350110 Eh    ::

    * Orbital Energies and Occupations

         #    Occupation            Energy/Eh            Energy/eV
      -------------------------------------------------------------
         1        2.0000           -0.6897697             -18.7696
       ...           ...                  ...                  ...
        88        2.0000           -0.4161964             -11.3253
        89        2.0000           -0.4151949             -11.2980
        90        2.0000           -0.4079379             -11.1006
        91        2.0000           -0.4079034             -11.0996
        92        2.0000           -0.4078497             -11.0982
        93        2.0000           -0.4075724             -11.0906
        94        2.0000           -0.4060901             -11.0503
        95        1.9994           -0.3942400             -10.7278
        96        1.9561           -0.3901492             -10.6165
        97        1.9341           -0.3897410             -10.6054
        98        1.6336           -0.3877426             -10.5510
        99        1.4768           -0.3871337             -10.5344
       100        0.9284           -0.2946597              -8.0181 (HOMO)
       101        0.0716           -0.2897898              -7.8856 (LUMO)
       102                         -0.2550383              -6.9399
       103                         -0.2503997              -6.8137
       104                         -0.2484052              -6.7595
       105                         -0.2432663              -6.6196
       106                         -0.2259448              -6.1483
       107                         -0.2256701              -6.1408
       108                         -0.2256472              -6.1402
       109                         -0.2135923              -5.8121
       110                         -0.2100052              -5.7145
       111                         -0.2053583              -5.5881
       ...                                ...                  ...
       195                          0.6884288              18.7331
      -------------------------------------------------------------
                  HL-Gap            0.0048700 Eh            0.1325 eV

     #   Z          covCN         q      C6AA      α(0)
     1   6 C        2.920    -0.030    28.739     8.791
     2   6 C        2.918    -0.029    28.726     8.789
     3   6 C        2.924    -0.033    28.828     8.805
     4   6 C        2.977     0.010    27.783     8.646
     5   6 C        2.975     0.015    27.672     8.629
     6   6 C        2.924    -0.030    28.742     8.792
     7   6 C        2.917    -0.028    28.693     8.784
     8   6 C        2.923    -0.029    28.722     8.789
     9   6 C        2.983    -0.004    28.121     8.699
    10   6 C        2.918     0.213    23.512     7.951
    11   7 N        1.845    -0.289    28.342     7.890
    12   6 C        2.918     0.174    24.263     8.077
    13   6 C        2.977    -0.010    28.258     8.720
    14   6 C        2.921    -0.035    28.878     8.812
    15   6 C        2.914    -0.030    28.749     8.792
    16   6 C        2.923    -0.040    28.983     8.829
    17   6 C        2.972     0.012    27.740     8.639
    18   6 C        2.976     0.013    27.724     8.637
    19   6 C        2.924    -0.032    28.810     8.802
    20   6 C        2.918    -0.029    28.722     8.788
    21   6 C        2.919    -0.028    28.709     8.786
    22   6 C        2.917    -0.029    28.714     8.787
    23   6 C        2.924    -0.032    28.802     8.801
    24   6 C        2.931    -0.039    28.964     8.826
    25   7 N        1.850    -0.232    26.939     7.693
    26   6 C        2.918     0.175    24.249     8.075
    27   6 C        2.977    -0.010    28.255     8.719
    28   6 C        2.921    -0.035    28.871     8.811
    29   6 C        2.914    -0.030    28.748     8.792
    30   6 C        2.923    -0.039    28.978     8.828
    31   6 C        2.972     0.012    27.739     8.639
    32   6 C        2.976     0.013    27.725     8.637
    33   6 C        2.924    -0.033    28.811     8.802
    34   6 C        2.918    -0.029    28.722     8.788
    35   6 C        2.919    -0.028    28.708     8.786
    36   6 C        2.917    -0.029    28.715     8.787
    37   6 C        2.924    -0.032    28.802     8.801
    38   6 C        2.931    -0.039    28.962     8.826
    39   7 N        1.845    -0.290    28.379     7.895
    40   6 C        2.929    -0.031    28.781     8.798
    41   6 C        2.924    -0.033    28.818     8.804
    42   6 C        2.918    -0.029    28.725     8.789
    43   1 H        0.926     0.036     2.501     2.473
    44   1 H        0.926     0.037     2.493     2.469
    45   1 H        0.926     0.037     2.482     2.464
    46   1 H        0.926     0.051     2.311     2.377
    47   1 H        0.926     0.049     2.338     2.391
    48   1 H        0.926     0.048     2.346     2.395
    49   1 H        0.926     0.040     2.455     2.450
    50   1 H        0.926     0.039     2.459     2.452
    51   1 H        0.926     0.041     2.439     2.442
    52   1 H        0.926     0.038     2.477     2.461
    53   1 H        0.926     0.037     2.490     2.468
    54   1 H        0.926     0.037     2.487     2.466
    55   1 H        0.926     0.036     2.498     2.471
    56   1 H        0.926     0.034     2.537     2.491
    57   1 H        0.926     0.039     2.456     2.451
    58   1 H        0.926     0.040     2.454     2.450
    59   1 H        0.926     0.039     2.457     2.451
    60   1 H        0.926     0.041     2.435     2.440
    61   1 H        0.926     0.038     2.474     2.460
    62   1 H        0.926     0.037     2.489     2.467
    63   1 H        0.926     0.037     2.487     2.466
    64   1 H        0.926     0.036     2.498     2.472
    65   1 H        0.926     0.034     2.536     2.490
    66   1 H        0.926     0.040     2.455     2.450
    67   1 H        0.926     0.049     2.326     2.385
    68   1 H        0.926     0.033     2.546     2.495
    69   1 H        0.926     0.035     2.511     2.478

molecular dipole:
                 x           y           z       tot (Debye)
 q only:        0.086       0.259      -0.021
   full:        0.045       0.218      -0.021       0.567

 projected vibrational frequencies (cm⁻¹)
eigval :       -0.00    -0.00    -0.00     0.00     0.00     0.00
eigval :       10.26    16.33    20.86    22.83    27.89    36.68
eigval :       47.16    51.86    53.86    67.79    79.57    87.52
eigval :       88.14    95.11   102.21   107.10   116.38   156.34
eigval :      168.23   188.07   198.80   209.48   219.01   241.73
eigval :      253.58   256.57   268.29   286.21   307.07   315.02
eigval :      324.99   332.98   348.08   369.29   370.95   372.16
eigval :      374.73   382.63   387.27   399.98   418.86   471.29
eigval :      473.31   486.71   497.56   518.69   534.12   542.26
eigval :      547.49   562.30   581.46   581.77   583.70   586.52
eigval :      587.37   588.76   606.27   626.26   643.22   643.57
eigval :      644.05   656.46   669.25   671.39   672.25   676.92
eigval :      701.84   704.21   742.93   751.01   752.45   757.49
eigval :      772.22   780.77   781.88   799.75   821.52   855.13
eigval :      859.85   864.72   866.59   867.95   872.50   875.66
eigval :      876.00   876.45   883.68   899.30   903.47   904.24
eigval :      905.95   915.05   915.46   924.84   927.91   929.68
eigval :      930.30   932.10   933.32   935.29   942.87   969.11
eigval :      972.35   978.84   984.60   984.82   988.31  1068.16
eigval :     1071.97  1077.01  1082.51  1084.15  1085.57  1087.61
eigval :     1108.98  1116.07  1118.60  1119.97  1121.13  1122.21
eigval :     1124.70  1162.02  1175.17  1177.78  1178.98  1179.18
eigval :     1180.42  1181.71  1195.80  1198.28  1199.45  1230.79
eigval :     1242.84  1246.10  1260.40  1274.75  1278.74  1278.93
eigval :     1279.11  1284.78  1293.27  1315.91  1316.82  1317.22
eigval :     1324.22  1330.30  1335.88  1337.55  1371.73  1377.48
eigval :     1402.84  1411.13  1418.04  1431.61  1431.72  1434.28
eigval :     1440.99  1450.13  1465.41  1476.06  1478.85  1484.45
eigval :     1516.45  1526.39  1548.75  1553.33  1562.15  1566.51
eigval :     1566.92  1573.56  1578.64  1582.76  1587.55  1594.03
eigval :     3069.10  3070.07  3070.23  3071.45  3071.67  3071.75
eigval :     3072.20  3072.60  3078.31  3078.76  3079.16  3079.73
eigval :     3082.82  3083.30  3083.47  3088.82  3089.47  3089.90
eigval :     3090.40  3090.49  3091.00  3091.12  3091.83  3094.95
eigval :     3096.43  3097.23  3100.48

   temp. (K)  partition function   enthalpy   heat capacity  entropy
                                   cal/mol     cal/K/mol   cal/K/mol   J/K/mol
 298.15  VIB  0.828E+16            20027.927    125.407    125.456
         ROT  0.751E+08              888.752      2.981     39.018
         INT  0.622E+24            20916.679    128.388    164.474
         TR   0.121E+29             1481.254      4.968     44.712
         TOT                       22397.9332   133.3562   209.1856   875.2324

       T/K    H(0)-H(T)+PV         H(T)/Eh          T*S/Eh         G(T)/Eh
   ------------------------------------------------------------------------
    298.15    0.356934E-01    0.559492E+00    0.993908E-01    0.460101E+00
   ------------------------------------------------------------------------

         :::::::::::::::::::::::::::::::::::::::::::::::::::::
         ::                  THERMODYNAMIC                  ::
         :::::::::::::::::::::::::::::::::::::::::::::::::::::
         :: total free energy        -105.544425950831 Eh   ::
         ::.................................................::
         :: total energy             -106.004526709710 Eh   ::
         :: zero point energy           0.523798186990 Eh   ::
         :: G(RRHO) w/o ZPVE           -0.063697428111 Eh   ::
         :: G(RRHO) contrib.            0.460100758879 Eh   ::
         :::::::::::::::::::::::::::::::::::::::::::::::::::::

           -------------------------------------------------
          | TOTAL ENERGY             -106.004526709710 Eh   |
          | TOTAL ENTHALPY           -105.445035144203 Eh   |
          | TOTAL FREE ENERGY        -105.544425950831 Eh   |
          | GRADIENT NORM               0.000050181566 Eh/α |
          | HOMO-LUMO GAP               0.132518852150 eV   |
           -------------------------------------------------

 * finished run on 2025/09/05 at 12:12:20.447
