   * xtb version 6.7.1 (edcfbbe) compiled by 'albert@albert-system' on 2024-07-22

   ID    Z sym.   atoms
    1    6 C      1-10, 12-24, 26-38, 40-42
    2    7 N      11, 25, 39
    3    1 H      43-69

          program call               : xtb data2507/toluene/CzmPPC/CzmPPC_toluene_S0_finalOpt.xtbopt.xyz --gfn 2 --uhf 2 --gbsa toluene --ohess vtight --parallel 40 --molden --ceasefiles --namespace data2507/toluene/CzmPPC/CzmPPC_toluene_T1_preOpt
      * Solvation model:               GBSA
        Solvent                        toluene
        Solvent mass                       9.2140E+01 g/mol
          :  Hamiltonian                  GFN2-xTB          :
 * total energy  :  -106.0009478 Eh     change       -0.1234828E-07 Eh
 * total energy  :  -106.0029991 Eh     change       -0.2051331E-02 Eh
 * total energy  :  -106.0038600 Eh     change       -0.8608876E-03 Eh
 * total energy  :  -106.0038785 Eh     change       -0.1851565E-04 Eh
 * total energy  :  -106.0038832 Eh     change       -0.4647126E-05 Eh
 * total energy  :  -106.0038846 Eh     change       -0.1468716E-05 Eh
 * total energy  :  -106.0038855 Eh     change       -0.8312933E-06 Eh
 * total energy  :  -106.0038863 Eh     change       -0.8198668E-06 Eh
 * total energy  :  -106.0038871 Eh     change       -0.8040558E-06 Eh
 * total energy  :  -106.0038877 Eh     change       -0.6098470E-06 Eh
 * total energy  :  -106.0040433 Eh     change       -0.6421142E-06 Eh
 * total energy  :  -106.0040440 Eh     change       -0.6795896E-06 Eh
 * total energy  :  -106.0040447 Eh     change       -0.7225462E-06 Eh
 * total energy  :  -106.0040453 Eh     change       -0.5327823E-06 Eh
 * total energy  :  -106.0040456 Eh     change       -0.3182823E-06 Eh
 * total energy  :  -106.0040458 Eh     change       -0.1992014E-06 Eh
 * total energy  :  -106.0040458 Eh     change        0.1062062E-08 Eh
 * total energy  :  -106.0040458 Eh     change        0.2192394E-08 Eh
 * total energy  :  -106.0040458 Eh     change       -0.1628729E-07 Eh
   *** GEOMETRY OPTIMIZATION CONVERGED AFTER 46 ITERATIONS ***

 final structure:
================
69
 xtb: 6.7.1 (edcfbbe)
C            3.54150991522281       -7.75349947330460        0.00223140643880
C            3.57896302582629       -6.64161924167197       -0.82348260167489
C            2.52589397286877       -5.74534499322975       -0.83103684288974
C            1.41415096073569       -5.95247963366664       -0.01703955742877
C            0.29166592965152       -5.00035330250732       -0.02825833057016
C           -1.02895542868100       -5.45039864332318       -0.02100973648061
C           -2.08086193426417       -4.55011801976743       -0.03224696747591
C           -1.83748898459798       -3.19023624613965       -0.04555621871932
C           -0.52329350904351       -2.72379660065976       -0.04925022402339
C           -0.24930573504095       -1.28411814770712       -0.05157437691718
N           -1.27585612939672       -0.45588486754971       -0.04354261629229
C           -1.00979296355288        0.89028740934547       -0.03014244225691
C           -2.09991034387821        1.81950365353202       -0.01203529780374
C           -1.86545924845479        3.20516028907749        0.00438913300227
C           -2.92741642740191        4.08242352636872        0.01791868606393
C           -4.23330913444076        3.61480299598406        0.01135353174918
C           -4.49080479206942        2.23973840571201       -0.00357324738032
C           -5.87178052503412        1.73532584232288       -0.01323111221361
C           -6.22992393306379        0.63109440914129        0.76012417598277
C           -7.52902758766438        0.15908605162979        0.75413378115586
C           -8.49132790353494        0.77614586249139       -0.02980618029880
C           -8.14606059612433        1.87145614841585       -0.80578767009013
C           -6.84916778613450        2.34978847102222       -0.79575948986434
C           -3.42194583435721        1.35667749663925       -0.01200479136063
N            0.24298840056836        1.31002795560502       -0.02670628446124
C            1.25505421690662        0.46015941321637       -0.04548595821231
C            2.60966557602668        0.92657306734387       -0.03965480666939
C            3.68041708098555        0.01859077204367       -0.08889840376919
C            4.97846890378039        0.48181179607856       -0.08666297315032
C            5.24379628878474        1.84152987917910       -0.03601609495499
C            4.19301182103788        2.76480282657553        0.01910088983018
C            4.46616693674199        4.20846353958354        0.07577795611377
C            5.47673884140293        4.77403223217386       -0.70154293710064
C            5.72993343759578        6.13185289554669       -0.64697590265495
C            4.98302357154629        6.94759889072735        0.18838055721848
C            3.97805076766037        6.39624694566838        0.96770068554590
C            3.71862215256625        5.03982752170895        0.90992496714796
C            2.88779955974953        2.29888018222857        0.01814871261495
N            1.00992805441547       -0.88942563595551       -0.06369414720662
C            0.53155329433287       -3.63178500539505       -0.04397375892635
C            1.38490321610089       -7.07530938898673        0.80735315013951
C            2.44256162763218       -7.96621061734392        0.81855647961601
H            4.36595650676878       -8.45126215385248        0.00992245784835
H            4.43211955460606       -6.47245010971080       -1.46458847734959
H            2.55273083523348       -4.88665321673055       -1.48643059105970
H           -1.22920319781784       -6.51144904884893       -0.02582280643408
H           -3.09835285676024       -4.91225740095613       -0.03345443600458
H           -2.64732379276021       -2.47735104415976       -0.05372501933544
H           -0.84616081221750        3.56013283651674        0.00457808413113
H           -2.74168071493031        5.14674293287425        0.03656122401898
H           -5.05606592507811        4.31273662646740        0.04194655462101
H           -5.48639806611147        0.15679617948188        1.38429415096524
H           -7.79373304330959       -0.69248640727867        1.36429620311007
H           -9.50556447720373        0.40476926109339       -0.03622081264721
H           -8.89117770070612        2.35296417035847       -1.42250534835201
H           -6.58139552288677        3.19321030149386       -1.41527001641980
H           -3.58985225692902        0.29098247744344       -0.04633744114281
H            3.46297033787560       -1.03767987104067       -0.12743387317716
H            5.79804805310104       -0.22153220626763       -0.12003179785529
H            6.26456241848752        2.19142776593886       -0.01329502457161
H            6.05039067270045        4.14588790147684       -1.36727084880667
H            6.51166089952258        6.55717989202863       -1.25965700903807
H            5.18300455720953        8.00814089397336        0.23191298355587
H            3.39554966356177        7.02671651068954        1.62397765431644
H            2.94487968279090        4.61185874056610        1.53089208140565
H            2.05831662348892        2.98964372544339        0.03760615995430
H            1.54182263409682       -3.25204938268679       -0.03029013846623
H            0.53718272344047       -7.23725655526245        1.45710244753736
H            2.41017101790091       -8.82964355182504        1.46724283271728

          :  Hamiltonian                  GFN2-xTB          :
         :: gradient norm              0.000103513482 Eh/a0 ::
         :: HOMO-LUMO gap              0.128006567292 eV    ::
         :: SCC energy              -107.996340756369 Eh    ::
         :: -> dispersion             -0.085935272896 Eh    ::
         :: -> Gsolv                  -0.050494023742 Eh    ::
         :: repulsion energy           1.992294901380 Eh    ::

    * Orbital Energies and Occupations

         #    Occupation            Energy/Eh            Energy/eV
      -------------------------------------------------------------
         1        2.0000           -0.6899212             -18.7737
       ...           ...                  ...                  ...
        88        2.0000           -0.4160136             -11.3203
        89        2.0000           -0.4151204             -11.2960
        90        2.0000           -0.4080650             -11.1040
        91        2.0000           -0.4079235             -11.1002
        92        2.0000           -0.4078368             -11.0978
        93        2.0000           -0.4077351             -11.0950
        94        2.0000           -0.4058219             -11.0430
        95        1.9991           -0.3940716             -10.7232
        96        1.9562           -0.3903628             -10.6223
        97        1.9530           -0.3902914             -10.6204
        98        1.6161           -0.3878824             -10.5548
        99        1.4756           -0.3873403             -10.5401
       100        0.9224           -0.2948688              -8.0238 (HOMO)
       101        0.0776           -0.2901646              -7.8958 (LUMO)
       102                         -0.2548437              -6.9346
       103                         -0.2498405              -6.7985
       104                         -0.2476788              -6.7397
       105                         -0.2429675              -6.6115
       106                         -0.2257626              -6.1433
       107                         -0.2257156              -6.1420
       108                         -0.2256247              -6.1396
       109                         -0.2137420              -5.8162
       110                         -0.2099478              -5.7130
       111                         -0.2059966              -5.6055
       ...                                ...                  ...
       195                          0.6882676              18.7287
      -------------------------------------------------------------
                  HL-Gap            0.0047042 Eh            0.1280 eV

     #   Z          covCN         q      C6AA      α(0)
     1   6 C        2.920    -0.030    28.745     8.792
     2   6 C        2.918    -0.029    28.727     8.789
     3   6 C        2.924    -0.033    28.822     8.804
     4   6 C        2.977     0.010    27.789     8.647
     5   6 C        2.975     0.015    27.674     8.629
     6   6 C        2.924    -0.030    28.741     8.792
     7   6 C        2.916    -0.028    28.695     8.784
     8   6 C        2.923    -0.029    28.721     8.789
     9   6 C        2.983    -0.004    28.128     8.700
    10   6 C        2.916     0.212    23.525     7.954
    11   7 N        1.846    -0.288    28.311     7.886
    12   6 C        2.918     0.174    24.258     8.077
    13   6 C        2.977    -0.010    28.253     8.719
    14   6 C        2.922    -0.036    28.889     8.814
    15   6 C        2.914    -0.030    28.749     8.792
    16   6 C        2.923    -0.039    28.976     8.828
    17   6 C        2.973     0.012    27.737     8.639
    18   6 C        2.977     0.013    27.726     8.637
    19   6 C        2.924    -0.032    28.809     8.802
    20   6 C        2.918    -0.029    28.722     8.788
    21   6 C        2.920    -0.029    28.714     8.787
    22   6 C        2.918    -0.029    28.721     8.788
    23   6 C        2.924    -0.032    28.810     8.802
    24   6 C        2.929    -0.038    28.948     8.824
    25   7 N        1.848    -0.233    26.957     7.695
    26   6 C        2.918     0.175    24.255     8.076
    27   6 C        2.977    -0.010    28.251     8.719
    28   6 C        2.922    -0.035    28.872     8.812
    29   6 C        2.914    -0.030    28.748     8.792
    30   6 C        2.923    -0.039    28.976     8.828
    31   6 C        2.973     0.012    27.736     8.639
    32   6 C        2.977     0.013    27.723     8.637
    33   6 C        2.924    -0.032    28.810     8.802
    34   6 C        2.918    -0.029    28.720     8.788
    35   6 C        2.920    -0.028    28.712     8.787
    36   6 C        2.918    -0.029    28.720     8.788
    37   6 C        2.924    -0.032    28.807     8.802
    38   6 C        2.929    -0.039    28.961     8.825
    39   7 N        1.846    -0.288    28.320     7.887
    40   6 C        2.929    -0.031    28.782     8.798
    41   6 C        2.924    -0.033    28.832     8.806
    42   6 C        2.918    -0.029    28.729     8.789
    43   1 H        0.926     0.036     2.505     2.475
    44   1 H        0.926     0.035     2.513     2.479
    45   1 H        0.926     0.033     2.545     2.495
    46   1 H        0.926     0.051     2.313     2.378
    47   1 H        0.926     0.049     2.338     2.391
    48   1 H        0.926     0.048     2.346     2.395
    49   1 H        0.926     0.037     2.489     2.467
    50   1 H        0.926     0.040     2.449     2.447
    51   1 H        0.926     0.041     2.438     2.442
    52   1 H        0.926     0.034     2.529     2.487
    53   1 H        0.926     0.036     2.502     2.473
    54   1 H        0.926     0.037     2.491     2.468
    55   1 H        0.926     0.037     2.492     2.469
    56   1 H        0.926     0.038     2.481     2.463
    57   1 H        0.926     0.043     2.415     2.430
    58   1 H        0.926     0.040     2.447     2.446
    59   1 H        0.926     0.040     2.453     2.449
    60   1 H        0.926     0.041     2.437     2.441
    61   1 H        0.926     0.038     2.476     2.461
    62   1 H        0.926     0.037     2.488     2.467
    63   1 H        0.926     0.037     2.489     2.467
    64   1 H        0.926     0.036     2.502     2.474
    65   1 H        0.926     0.034     2.534     2.489
    66   1 H        0.926     0.039     2.460     2.452
    67   1 H        0.926     0.049     2.329     2.386
    68   1 H        0.926     0.037     2.487     2.466
    69   1 H        0.926     0.036     2.497     2.471

molecular dipole:
                 x           y           z       tot (Debye)
 q only:       -0.162      -0.357       0.017
   full:       -0.164      -0.354       0.019       0.994

 projected vibrational frequencies (cm⁻¹)
eigval :       -0.00    -0.00    -0.00     0.00     0.00     0.00
eigval :       -7.05     8.84    16.00    21.40    22.42    25.52
eigval :       39.34    45.44    49.69    62.00    81.38    83.38
eigval :       86.06    92.48    95.95   104.08   111.96   149.61
eigval :      181.85   197.36   197.95   203.66   207.09   219.10
eigval :      252.08   255.18   256.89   305.24   308.43   314.02
eigval :      323.65   328.66   342.76   367.63   370.60   371.25
eigval :      374.00   376.43   386.98   393.68   414.18   471.36
eigval :      473.34   487.35   498.21   515.01   535.64   543.57
eigval :      545.97   557.43   581.49   582.16   583.46   585.44
eigval :      587.03   589.09   601.94   625.33   641.45   643.05
eigval :      643.80   653.32   666.75   668.66   670.81   674.40
eigval :      701.08   706.56   740.01   750.18   751.09   756.35
eigval :      771.57   781.61   783.27   792.09   799.37   854.44
eigval :      859.41   865.21   867.95   868.70   870.96   874.17
eigval :      874.87   876.49   883.74   899.11   901.49   902.49
eigval :      906.18   915.52   915.62   925.43   927.38   928.02
eigval :      928.85   929.00   930.34   934.13   942.50   969.89
eigval :      970.68   978.51   982.86   984.32   988.60  1067.67
eigval :     1073.32  1075.96  1082.92  1083.69  1084.63  1086.63
eigval :     1106.90  1118.40  1119.69  1119.94  1121.63  1122.71
eigval :     1124.99  1161.48  1177.42  1178.17  1178.87  1180.50
eigval :     1181.86  1183.30  1195.68  1198.00  1198.55  1224.83
eigval :     1238.39  1247.87  1263.06  1275.44  1278.36  1278.70
eigval :     1279.06  1285.51  1295.05  1315.96  1317.09  1317.37
eigval :     1325.32  1330.94  1333.91  1338.23  1367.51  1372.79
eigval :     1404.17  1413.54  1420.31  1431.77  1432.02  1434.32
eigval :     1442.13  1449.81  1465.34  1476.50  1477.95  1484.63
eigval :     1518.24  1528.62  1549.08  1554.15  1562.08  1567.25
eigval :     1567.61  1574.09  1579.64  1582.70  1587.72  1594.03
eigval :     3069.86  3070.05  3070.16  3071.30  3071.68  3071.91
eigval :     3072.72  3073.90  3078.56  3079.12  3079.16  3079.48
eigval :     3082.33  3082.99  3083.32  3087.98  3089.33  3089.98
eigval :     3090.33  3090.52  3090.63  3091.10  3091.51  3094.37
eigval :     3095.03  3096.93  3101.25

   temp. (K)  partition function   enthalpy   heat capacity  entropy
                                   cal/mol     cal/K/mol   cal/K/mol   J/K/mol
 298.15  VIB  0.101E+18            20188.277    124.922    127.830
         ROT  0.892E+08              888.752      2.981     39.361
         INT  0.905E+25            21077.030    127.903    167.191
         TR   0.121E+29             1481.254      4.968     44.712
         TOT                       22558.2836   132.8710   211.9026   886.6007

       T/K    H(0)-H(T)+PV         H(T)/Eh          T*S/Eh         G(T)/Eh
   ------------------------------------------------------------------------
    298.15    0.359489E-01    0.559287E+00    0.100682E+00    0.458605E+00
   ------------------------------------------------------------------------

         :::::::::::::::::::::::::::::::::::::::::::::::::::::
         ::                  THERMODYNAMIC                  ::
         :::::::::::::::::::::::::::::::::::::::::::::::::::::
         :: total free energy        -105.545440639770 Eh   ::
         ::.................................................::
         :: total energy             -106.004045857346 Eh   ::
         :: zero point energy           0.523338090329 Eh   ::
         :: G(RRHO) w/o ZPVE           -0.064732872754 Eh   ::
         :: G(RRHO) contrib.            0.458605217575 Eh   ::
         :::::::::::::::::::::::::::::::::::::::::::::::::::::

           -------------------------------------------------
          | TOTAL ENERGY             -106.004045857346 Eh   |
          | TOTAL ENTHALPY           -105.444758853873 Eh   |
          | TOTAL FREE ENERGY        -105.545440639770 Eh   |
          | GRADIENT NORM               0.000101727712 Eh/α |
          | HOMO-LUMO GAP               0.128008133853 eV   |
           -------------------------------------------------

 * finished run on 2025/09/05 at 12:07:49.648
