   * xtb version 6.7.1 (edcfbbe) compiled by 'albert@albert-system' on 2024-07-22

   ID    Z sym.   atoms
    1    6 C      1-10, 12-24, 26-38, 40-42
    2    7 N      11, 25, 39
    3    1 H      43-69

          program call               : xtb data2507/toluene/CzmPPC/CzmPPC_toluene_S0_crest.xyz --gfn 2 --gbsa toluene --ohess vtight --parallel 40 --molden --ceasefiles --namespace data2507/toluene/CzmPPC/CzmPPC_toluene_S0_finalOpt
      * Solvation model:               GBSA
        Solvent                        toluene
        Solvent mass                       9.2140E+01 g/mol
          :  Hamiltonian                  GFN2-xTB          :
 * total energy  :  -106.0931357 Eh     change       -0.9150938E-09 Eh
 * total energy  :  -106.0931597 Eh     change       -0.2401897E-04 Eh
 * total energy  :  -106.0931645 Eh     change       -0.4820309E-05 Eh
 * total energy  :  -106.0931660 Eh     change       -0.1497962E-05 Eh
 * total energy  :  -106.0931669 Eh     change       -0.8987872E-06 Eh
 * total energy  :  -106.0931678 Eh     change       -0.8942893E-06 Eh
 * total energy  :  -106.0931689 Eh     change       -0.1046285E-05 Eh
 * total energy  :  -106.0931699 Eh     change       -0.1057289E-05 Eh
 * total energy  :  -106.0931708 Eh     change       -0.8394745E-06 Eh
 * total energy  :  -106.0931713 Eh     change       -0.5837856E-06 Eh
 * total energy  :  -106.0931729 Eh     change       -0.3032139E-06 Eh
 * total energy  :  -106.0931732 Eh     change       -0.2593419E-06 Eh
 * total energy  :  -106.0931734 Eh     change       -0.2395132E-06 Eh
 * total energy  :  -106.0931737 Eh     change       -0.2423476E-06 Eh
 * total energy  :  -106.0931739 Eh     change       -0.2771110E-06 Eh
 * total energy  :  -106.0931743 Eh     change       -0.3189665E-06 Eh
 * total energy  :  -106.0931746 Eh     change       -0.3619639E-06 Eh
 * total energy  :  -106.0931751 Eh     change       -0.5142226E-06 Eh
 * total energy  :  -106.0931751 Eh     change       -0.1411401E-07 Eh
   *** GEOMETRY OPTIMIZATION CONVERGED AFTER 22 ITERATIONS ***

 final structure:
================
69
 xtb: 6.7.1 (edcfbbe)
C            3.54291047957267       -7.75141039122342       -0.01141017775914
C            3.58695920889511       -6.63147230194373       -0.82561689181447
C            2.53470548347969       -5.73407658701027       -0.83145168478040
C            1.41734076861292       -5.94782915938447       -0.02727077431377
C            0.29648583053496       -4.99328981829042       -0.03625959858050
C           -1.02442984975721       -5.44160456509125       -0.04148872224187
C           -2.07641071038102       -4.54147246878319       -0.05455814943380
C           -1.83153851106842       -3.18148207323222       -0.05691933046228
C           -0.51743485401548       -2.71563231969019       -0.04799174910613
C           -0.24240878703556       -1.27845105456245       -0.04316205336611
N           -1.27893960473852       -0.44467909524031       -0.04160158031078
C           -0.98363453851546        0.85279157935706       -0.03680313845497
C           -2.09168306251171        1.80848231378660       -0.03938320367119
C           -1.84001040359444        3.17963128484104       -0.06011210448100
C           -2.89697254372737        4.06982346070108       -0.06363591903692
C           -4.20173659677856        3.60678118187804       -0.04914544974170
C           -4.47212355447643        2.23835670714779       -0.02762103567023
C           -5.85825722951261        1.74278065224128       -0.00995963318968
C           -6.21667774019036        0.67215317982548        0.80641134289280
C           -7.51923260264736        0.20798625184444        0.82588193638076
C           -8.48214720774421        0.80075219543434        0.02553677599484
C           -8.13535650914440        1.86309097114398       -0.79295664561257
C           -6.83490986086494        2.33356487062781       -0.80868458402282
C           -3.40504294384598        1.34808573546528       -0.02190385414956
N            0.25663418606534        1.33369631611218       -0.02632837297341
C            1.23259003844334        0.42897890091123       -0.02712436641890
C            2.61448192192483        0.90997147506458       -0.00979432316942
C            3.67576802041825        0.00583455635009       -0.02037131943790
C            4.97539730673056        0.47503960782951       -0.00199674029984
C            5.22766700693750        1.83611849663749        0.02674101825648
C            4.17825352493923        2.75521986664052        0.04048637266121
C            4.44242523968930        4.20300189004320        0.07940520900945
C            5.45904498007474        4.76295392751725       -0.69123591390220
C            5.70194108550992        6.12398166997860       -0.65292796848875
C            4.93814218337780        6.94569947194646        0.15953045227934
C            3.92639484085026        6.39875003655904        0.93175070642432
C            3.67775163903292        5.03902661159445        0.89037106297004
C            2.87343747731827        2.27710787093827        0.02150433667535
N            1.02900718049592       -0.88564251803892       -0.03917693866540
C            0.53662294802126       -3.62454439834512       -0.04046921361635
C            1.38147336008205       -7.07880537431801        0.78522760796234
C            2.43835144151821       -7.97084863138378        0.79521039136316
H            4.36635419268898       -8.45041520545696       -0.00546934041354
H            4.44461783290048       -6.45689224512949       -1.45930275163657
H            2.56670338506797       -4.86874117779293       -1.47786467724290
H           -1.22537155111977       -6.50266887394725       -0.05449020034869
H           -3.09371185485245       -4.90410356069561       -0.06516604933511
H           -2.63975895302344       -2.46735833757268       -0.06676951619113
H           -0.81792120177733        3.52375732541806       -0.07415842013302
H           -2.70422691684518        5.13248628832625       -0.07571926591734
H           -5.02077578523443        4.31060283701530       -0.03561148962580
H           -5.47195637437730        0.21631856432155        1.44298955462694
H           -7.78476032995174       -0.61842240827929        1.46937539403764
H           -9.49870664679642        0.43586658798349        0.03957779762401
H           -8.88117458069599        2.32609753783616       -1.42290885460635
H           -6.56632408379455        3.15146623385497       -1.46135665710124
H           -3.57793121562170        0.28315606888470       -0.02208894808208
H            3.46240692173727       -1.05118817736546       -0.04096144222256
H            5.79881455419378       -0.22388708136130       -0.00601447356064
H            6.24676426537602        2.19215328733391        0.05882718331288
H            6.04711655045578        4.12980871342381       -1.33962398622267
H            6.48960351045196        6.54572142250235       -1.26054141080752
H            5.13028848962997        8.00816075078579        0.19077607473659
H            3.32923017509006        7.03418576230227        1.56986838553577
H            2.89731769817113        4.61465570525772        1.50557778072447
H            2.03826639591473        2.96002279523141        0.01406358955567
H            1.54596588566241       -3.24399577126020       -0.01873912171970
H            0.52923285592318       -7.24639405654824        1.42769663557959
H            2.40073360745083       -8.84038552334797        1.43548290813458

          :  Hamiltonian                  GFN2-xTB          :
         :: gradient norm              0.000064702929 Eh/a0 ::
         :: HOMO-LUMO gap              2.379168691440 eV    ::
         :: SCC energy              -108.091534620407 Eh    ::
         :: -> dispersion             -0.086121910571 Eh    ::
         :: -> Gsolv                  -0.052082569590 Eh    ::
         :: repulsion energy           1.998359470680 Eh    ::

    * Orbital Energies and Occupations

         #    Occupation            Energy/Eh            Energy/eV
      -------------------------------------------------------------
         1        2.0000           -0.6897899             -18.7701
       ...           ...                  ...                  ...
        87        2.0000           -0.4173997             -11.3580
        88        2.0000           -0.4173567             -11.3569
        89        2.0000           -0.4141524             -11.2697
        90        2.0000           -0.4127132             -11.2305
        91        2.0000           -0.4126787             -11.2296
        92        2.0000           -0.4066555             -11.0657
        93        2.0000           -0.4066497             -11.0655
        94        2.0000           -0.4066345             -11.0651
        95        2.0000           -0.3926431             -10.6844
        96        2.0000           -0.3925517             -10.6819
        97        2.0000           -0.3924702             -10.6797
        98        2.0000           -0.3799055             -10.3378
        99        2.0000           -0.3798923             -10.3374 (HOMO)
       100                         -0.2924595              -7.9582 (LUMO)
       101                         -0.2924500              -7.9580
       102                         -0.2547379              -6.9318
       103                         -0.2499365              -6.8011
       104                         -0.2497476              -6.7960
       105                         -0.2439243              -6.6375
       106                         -0.2247321              -6.1153
       107                         -0.2247235              -6.1150
       108                         -0.2247124              -6.1147
       109                         -0.2145889              -5.8393
       110                         -0.2144959              -5.8367
       ...                                ...                  ...
       195                          0.6914190              18.8145
      -------------------------------------------------------------
                  HL-Gap            0.0874328 Eh            2.3792 eV

     #   Z          covCN         q      C6AA      α(0)
     1   6 C        2.920    -0.031    28.765     8.795
     2   6 C        2.918    -0.030    28.738     8.791
     3   6 C        2.925    -0.034    28.835     8.806
     4   6 C        2.977     0.009    27.810     8.650
     5   6 C        2.975     0.014    27.701     8.633
     6   6 C        2.925    -0.028    28.713     8.787
     7   6 C        2.916    -0.029    28.714     8.787
     8   6 C        2.923    -0.029    28.724     8.789
     9   6 C        2.982    -0.011    28.285     8.724
    10   6 C        2.981     0.219    23.382     7.932
    11   7 N        1.844    -0.325    29.286     8.020
    12   6 C        2.981     0.219    23.382     7.932
    13   6 C        2.982    -0.011    28.286     8.724
    14   6 C        2.923    -0.029    28.725     8.789
    15   6 C        2.916    -0.029    28.714     8.787
    16   6 C        2.925    -0.029    28.714     8.788
    17   6 C        2.974     0.014    27.701     8.633
    18   6 C        2.977     0.009    27.811     8.650
    19   6 C        2.925    -0.034    28.835     8.806
    20   6 C        2.918    -0.030    28.738     8.791
    21   6 C        2.920    -0.031    28.764     8.795
    22   6 C        2.918    -0.030    28.740     8.791
    23   6 C        2.924    -0.034    28.845     8.808
    24   6 C        2.930    -0.032    28.790     8.799
    25   7 N        1.844    -0.325    29.287     8.020
    26   6 C        2.981     0.219    23.382     7.932
    27   6 C        2.982    -0.011    28.286     8.724
    28   6 C        2.923    -0.029    28.724     8.789
    29   6 C        2.916    -0.029    28.715     8.787
    30   6 C        2.925    -0.029    28.713     8.788
    31   6 C        2.974     0.014    27.702     8.633
    32   6 C        2.977     0.009    27.811     8.650
    33   6 C        2.924    -0.034    28.845     8.808
    34   6 C        2.918    -0.030    28.740     8.791
    35   6 C        2.920    -0.031    28.764     8.795
    36   6 C        2.918    -0.030    28.738     8.791
    37   6 C        2.925    -0.034    28.835     8.806
    38   6 C        2.930    -0.032    28.790     8.799
    39   7 N        1.844    -0.325    29.286     8.020
    40   6 C        2.930    -0.032    28.788     8.799
    41   6 C        2.924    -0.034    28.845     8.808
    42   6 C        2.918    -0.030    28.740     8.791
    43   1 H        0.926     0.035     2.516     2.481
    44   1 H        0.926     0.035     2.522     2.483
    45   1 H        0.926     0.032     2.556     2.500
    46   1 H        0.926     0.050     2.323     2.383
    47   1 H        0.926     0.047     2.361     2.403
    48   1 H        0.926     0.049     2.335     2.390
    49   1 H        0.926     0.049     2.336     2.390
    50   1 H        0.926     0.047     2.362     2.403
    51   1 H        0.926     0.050     2.323     2.383
    52   1 H        0.926     0.032     2.556     2.500
    53   1 H        0.926     0.035     2.522     2.484
    54   1 H        0.926     0.035     2.516     2.481
    55   1 H        0.926     0.036     2.509     2.477
    56   1 H        0.926     0.036     2.501     2.473
    57   1 H        0.926     0.051     2.313     2.378
    58   1 H        0.926     0.049     2.336     2.390
    59   1 H        0.926     0.047     2.362     2.403
    60   1 H        0.926     0.050     2.322     2.383
    61   1 H        0.926     0.036     2.500     2.472
    62   1 H        0.926     0.036     2.509     2.477
    63   1 H        0.926     0.035     2.516     2.481
    64   1 H        0.926     0.035     2.523     2.484
    65   1 H        0.926     0.032     2.556     2.500
    66   1 H        0.926     0.051     2.313     2.378
    67   1 H        0.926     0.050     2.315     2.379
    68   1 H        0.926     0.036     2.502     2.474
    69   1 H        0.926     0.036     2.509     2.477

molecular dipole:
                 x           y           z       tot (Debye)
 q only:       -0.001       0.001       0.003
   full:       -0.001       0.000       0.003       0.009

 projected vibrational frequencies (cm⁻¹)
eigval :       -0.00    -0.00    -0.00    -0.00     0.00     0.00
eigval :      -10.00    -6.29     7.34    23.47    24.37    25.76
eigval :       40.65    44.97    51.03    63.81    81.35    82.01
eigval :       84.28    90.35    95.58    97.67   101.29   154.07
eigval :      179.39   182.21   205.97   206.26   211.89   224.52
eigval :      256.47   260.49   260.69   310.15   318.31   318.68
eigval :      341.07   341.48   343.73   371.78   372.47   373.36
eigval :      389.91   390.90   405.96   417.25   430.35   475.43
eigval :      489.52   498.29   528.39   529.71   565.75   568.23
eigval :      583.75   584.04   584.10   588.92   589.32   591.64
eigval :      616.60   616.69   648.89   652.31   654.02   660.43
eigval :      673.34   673.82   674.28   689.22   690.02   734.78
eigval :      734.90   752.46   757.41   758.82   779.99   789.49
eigval :      805.79   806.34   809.84   875.38   876.21   879.01
eigval :      886.01   888.60   890.02   893.58   893.79   903.65
eigval :      904.73   905.75   908.08   908.47   908.55   927.76
eigval :      928.45   929.35   931.02   931.65   932.67   933.56
eigval :      934.12   935.65   959.04   980.57   980.73   989.13
eigval :      992.27   992.41  1050.38  1074.43  1079.13  1079.39
eigval :     1086.79  1086.98  1087.23  1097.36  1119.37  1119.60
eigval :     1120.30  1122.31  1123.29  1124.81  1162.82  1163.51
eigval :     1179.58  1180.05  1181.76  1183.16  1185.80  1187.00
eigval :     1199.02  1200.23  1200.65  1206.14  1242.46  1250.71
eigval :     1251.34  1279.45  1279.56  1279.99  1281.57  1290.03
eigval :     1290.11  1315.88  1315.93  1316.07  1326.57  1326.76
eigval :     1328.23  1363.50  1363.73  1364.48  1416.25  1416.65
eigval :     1422.20  1434.22  1434.54  1436.30  1454.96  1455.44
eigval :     1465.53  1484.59  1484.75  1487.36  1511.65  1511.80
eigval :     1571.30  1572.62  1573.03  1581.62  1582.13  1582.38
eigval :     1586.08  1587.73  1587.86  1598.32  1598.45  1598.56
eigval :     3069.08  3069.10  3069.46  3070.54  3070.79  3070.81
eigval :     3077.84  3077.96  3078.13  3078.55  3079.11  3079.27
eigval :     3081.71  3081.92  3082.34  3089.36  3089.84  3089.85
eigval :     3090.96  3091.03  3091.08  3102.79  3103.30  3103.48
eigval :     3106.81  3107.72  3109.06

   temp. (K)  partition function   enthalpy   heat capacity  entropy
                                   cal/mol     cal/K/mol   cal/K/mol   J/K/mol
 298.15  VIB  0.129E+18            19713.803    121.225    126.238
         ROT  0.887E+08              888.752      2.981     39.349
         INT  0.114E+26            20602.556    124.206    165.586
         TR   0.121E+29             1481.254      4.968     44.712
         TOT                       22083.8097   129.1740   210.2978   879.8861

       T/K    H(0)-H(T)+PV         H(T)/Eh          T*S/Eh         G(T)/Eh
   ------------------------------------------------------------------------
    298.15    0.351928E-01    0.565937E+00    0.999193E-01    0.466018E+00
   ------------------------------------------------------------------------

         :::::::::::::::::::::::::::::::::::::::::::::::::::::
         ::                  THERMODYNAMIC                  ::
         :::::::::::::::::::::::::::::::::::::::::::::::::::::
         :: total free energy        -105.627156980906 Eh   ::
         ::.................................................::
         :: total energy             -106.093175151955 Eh   ::
         :: zero point energy           0.530744667687 Eh   ::
         :: G(RRHO) w/o ZPVE           -0.064726496638 Eh   ::
         :: G(RRHO) contrib.            0.466018171049 Eh   ::
         :::::::::::::::::::::::::::::::::::::::::::::::::::::

           -------------------------------------------------
          | TOTAL ENERGY             -106.093175151955 Eh   |
          | TOTAL ENTHALPY           -105.527237693412 Eh   |
          | TOTAL FREE ENERGY        -105.627156980906 Eh   |
          | GRADIENT NORM               0.000064706398 Eh/α |
          | HOMO-LUMO GAP               2.379168565721 eV   |
           -------------------------------------------------

 * finished run on 2025/09/05 at 12:07:42.743
