   * xtb version 6.7.1 (edcfbbe) compiled by 'albert@albert-system' on 2024-07-22

   ID    Z sym.   atoms
    1    8 O      1, 3, 24, 25, 41, 42
    2   16 S      2, 23, 40
    3    6 C      4-15, 17-22, 26-32, 34-39, 43-49, 51
    4    7 N      16, 33, 50
    5    1 H      52-78

          program call               : xtb data2507/gas/TRZ-3SO2/TRZ-3SO2.xyz --gfn 2 --ohess vtight --parallel 40 --molden --ceasefiles --namespace data2507/gas/TRZ-3SO2/TRZ-3SO2_gas_S0_preOpt
          :  Hamiltonian                  GFN2-xTB          :
 * total energy  :  -140.0788858 Eh     change       -0.1208520E-08 Eh
 * total energy  :  -140.0901418 Eh     change       -0.1125606E-01 Eh
 * total energy  :  -140.0931390 Eh     change       -0.2997113E-02 Eh
 * total energy  :  -140.0937795 Eh     change       -0.6405591E-03 Eh
 * total energy  :  -140.0939981 Eh     change       -0.2185428E-03 Eh
 * total energy  :  -140.0941022 Eh     change       -0.1041215E-03 Eh
 * total energy  :  -140.0942297 Eh     change       -0.1275426E-03 Eh
 * total energy  :  -140.0943591 Eh     change       -0.1293866E-03 Eh
 * total energy  :  -140.0944868 Eh     change       -0.1276618E-03 Eh
 * total energy  :  -140.0946070 Eh     change       -0.1202384E-03 Eh
 * total energy  :  -140.0951463 Eh     change       -0.1574348E-06 Eh
 * total energy  :  -140.0951464 Eh     change       -0.1214722E-06 Eh
 * total energy  :  -140.0951467 Eh     change       -0.2998324E-06 Eh
 * total energy  :  -140.0951468 Eh     change       -0.2652015E-07 Eh
 * total energy  :  -140.0951469 Eh     change       -0.1607116E-06 Eh
 * total energy  :  -140.0951472 Eh     change       -0.2795164E-06 Eh
 * total energy  :  -140.0951474 Eh     change       -0.2055739E-06 Eh
 * total energy  :  -140.0951476 Eh     change       -0.1789111E-06 Eh
 * total energy  :  -140.0951477 Eh     change       -0.8911042E-07 Eh
   *** GEOMETRY OPTIMIZATION CONVERGED AFTER 130 ITERATIONS ***

 final structure:
================
78
 xtb: 6.7.1 (edcfbbe)
O           -5.64681852475846        0.28964368370235       -2.30228940799355
S           -5.76758330517576        1.70379212797339       -2.06592924279079
O           -6.21316185474479        2.54599130039186       -3.14396894176528
C           -6.83226271695316        1.97199246877327       -0.64359711851038
C           -7.71724640100431        3.03157010478490       -0.64232983041766
C           -8.50474357666227        3.25181035771598        0.47599816887865
C           -8.39145897428006        2.41445373843976        1.57465279234413
C           -7.49830772080276        1.35376520899142        1.56131919755046
C           -6.71003954569159        1.13028937083824        0.44502415859176
C           -4.18437795617258        2.31583449288120       -1.46536137519212
C           -3.95269002049172        3.67913642820130       -1.43790139388157
C           -2.75129417555371        4.15205340685220       -0.93231144238020
C           -1.80163277870948        3.26399296795231       -0.45856534009109
C           -2.04276231117204        1.89078481848931       -0.49178484374232
C           -1.03817993757959        0.94683494449300        0.00071137910030
N            0.12998305784039        1.43163033915432        0.40720894063445
C            1.01085082817927        0.53759597148130        0.84645895736071
C            2.30270163231243        1.03000133467017        1.32750579690997
C            3.25034550877724        0.14705493175789        1.84453048530973
C            4.46358355145751        0.61976003271700        2.31313997805730
C            4.74552647760067        1.97651148388837        2.26449955649048
C            3.80075616691688        2.84495930568743        1.74843279364620
S            4.18715931350151        4.59979159503733        1.63343201438965
O            4.99230502581795        4.97421330232492        2.76520825870787
O            2.96524032435857        5.31859893373084        1.38845011325547
C            5.20704110529827        4.65917962734850        0.15468683264183
C            6.57725977974290        4.77846215038296        0.27434716251187
C            7.35689928152945        4.78502926810620       -0.87081525462317
C            6.75621125611275        4.66747118220525       -2.11436976800068
C            5.37883680724964        4.54792038618962       -2.22144937928888
C            4.59645149701427        4.54146275110353       -1.07892076125590
C            2.58741277989093        2.39360670952118        1.28018768099940
N            0.78873412753728       -0.77204466992386        0.87589664894509
C           -0.40780214295982       -1.16937742032643        0.45350543451296
C           -0.70051157943883       -2.60363077833503        0.47740104254019
C           -1.92607792987641       -3.08425925880945        0.01743143682181
C           -2.20321965410482       -4.43966787254256        0.05164869110001
C           -1.25801344779211       -5.32901354536981        0.53946847347126
C           -0.04362264754547       -4.84413474664344        0.99049353376527
S            1.20204294954346       -6.00764652770808        1.57098265431324
O            0.55745470103395       -7.03035848388419        2.35081490624101
O            2.27621986980549       -5.26078905619515        2.16940509711680
C            1.77906833603958       -6.73423544019484        0.03174493862965
C            2.54353405037171       -5.95965486540434       -0.81923648168704
C            2.96444707095454       -6.49717405776134       -2.02392093428277
C            2.61302895817570       -7.79564794491966       -2.36096564426905
C            1.84547579280783       -8.56245033374824       -1.49859014699450
C            1.42206934456940       -8.02766233729722       -0.29265122841798
C            0.24920280360687       -3.49931569310393        0.96600849656351
N           -1.35294204940815       -0.34511921569632        0.01458715470472
C           -3.25089911135447        1.41717937952706       -1.00028557561591
H           -7.78457529993815        3.65388963707050       -1.52089904413076
H           -9.20564523633495        4.07259857570461        0.49005359686468
H           -9.00598062148299        2.58637461241000        2.44574510698455
H           -7.41841529709764        0.70241536038368        2.41839575781436
H           -6.01508083729430        0.30676026564472        0.39855113361310
H           -4.70604413886757        4.34619116456998       -1.82678439751044
H           -2.55545279168385        5.21311589672590       -0.90813611387707
H           -0.86377539212136        3.61675882159872       -0.05884715933634
H            3.01469474911439       -0.90508123462171        1.88000565786439
H            5.18835754392451       -0.06852059186029        2.72026584942420
H            5.67596524959785        2.37592768091010        2.63660164661475
H            7.00629554819538        4.88041521333211        1.25882575852142
H            8.42904683386254        4.88390339752436       -0.79395676066631
H            7.36439969140523        4.67401742451473       -3.00664021777837
H            4.91672841761484        4.46245139923599       -3.19328625301692
H            3.52183123880852        4.46380479687090       -1.12899353003877
H            1.86225165302374        3.09452576418958        0.89975172525948
H           -2.65007161958928       -2.38009219082926       -0.36163089921272
H           -3.15606868326717       -4.80350239397799       -0.30121796897806
H           -1.45151367427766       -6.38911234877413        0.59052009780042
H            2.80983327576863       -4.95722585156923       -0.52276158422500
H            3.56619806910341       -5.90690312012226       -2.69830123926666
H            2.94334815915712       -8.21323859027552       -3.30039719043101
H            1.57926298572859       -9.57427716801548       -1.76406751231428
H            0.83215306525761       -8.59543389671473        0.40981108262045
H            1.19869701485222       -3.14904867000734        1.33735827904766
H           -3.45063493925104        0.35909718866338       -1.04990548653726

          :  Hamiltonian                  GFN2-xTB          :
         :: gradient norm              0.000053607846 Eh/a0 ::
         :: HOMO-LUMO gap              2.218020559513 eV    ::
         :: SCC energy              -142.246830274365 Eh    ::
         :: -> dispersion             -0.109106817599 Eh    ::
         :: repulsion energy           2.151682594568 Eh    ::

    * Orbital Energies and Occupations

         #    Occupation            Energy/Eh            Energy/eV
      -------------------------------------------------------------
         1        2.0000           -0.7732854             -21.0422
       ...           ...                  ...                  ...
       114        2.0000           -0.4337352             -11.8025
       115        2.0000           -0.4336422             -11.8000
       116        2.0000           -0.4329953             -11.7824
       117        2.0000           -0.4320710             -11.7573
       118        2.0000           -0.4319112             -11.7529
       119        2.0000           -0.4315409             -11.7428
       120        2.0000           -0.4312391             -11.7346
       121        2.0000           -0.4309334             -11.7263
       122        2.0000           -0.4083618             -11.1121
       123        2.0000           -0.4079015             -11.0996
       124        2.0000           -0.4073120             -11.0835
       125        2.0000           -0.3920093             -10.6671
       126        2.0000           -0.3919132             -10.6645 (HOMO)
       127                         -0.3104024              -8.4465 (LUMO)
       128                         -0.3102400              -8.4421
       129                         -0.2754528              -7.4955
       130                         -0.2712216              -7.3803
       131                         -0.2710724              -7.3763
       132                         -0.2668090              -7.2602
       133                         -0.2547622              -6.9324
       134                         -0.2537438              -6.9047
       135                         -0.2534669              -6.8972
       136                         -0.2520457              -6.8585
       137                         -0.2517852              -6.8514
       ...                                ...                  ...
       246                          1.2042519              32.7694
      -------------------------------------------------------------
                  HL-Gap            0.0815108 Eh            2.2180 eV

     #   Z          covCN         q      C6AA      α(0)
     1   8 O        0.860    -0.537    24.623     6.653
     2  16 S        3.816     0.943   108.311    17.516
     3   8 O        0.860    -0.535    24.584     6.648
     4   6 C        2.972    -0.073    29.828     8.959
     5   6 C        2.955    -0.026    28.639     8.778
     6   6 C        2.922    -0.023    28.579     8.767
     7   6 C        2.920    -0.023    28.588     8.768
     8   6 C        2.922    -0.023    28.580     8.767
     9   6 C        2.960    -0.027    28.676     8.783
    10   6 C        2.969    -0.073    29.815     8.956
    11   6 C        2.955    -0.022    28.553     8.764
    12   6 C        2.920    -0.022    28.544     8.761
    13   6 C        2.923    -0.020    28.504     8.755
    14   6 C        2.986     0.007    27.854     8.657
    15   6 C        2.984     0.204    23.677     7.982
    16   7 N        1.844    -0.282    28.164     7.865
    17   6 C        2.984     0.204    23.677     7.982
    18   6 C        2.986     0.007    27.854     8.657
    19   6 C        2.923    -0.020    28.503     8.755
    20   6 C        2.920    -0.021    28.543     8.761
    21   6 C        2.955    -0.022    28.552     8.764
    22   6 C        2.969    -0.073    29.814     8.956
    23  16 S        3.815     0.943   108.305    17.516
    24   8 O        0.860    -0.535    24.571     6.646
    25   8 O        0.860    -0.537    24.612     6.652
    26   6 C        2.972    -0.074    29.830     8.959
    27   6 C        2.955    -0.026    28.640     8.778
    28   6 C        2.922    -0.023    28.582     8.767
    29   6 C        2.920    -0.024    28.595     8.769
    30   6 C        2.922    -0.023    28.587     8.768
    31   6 C        2.959    -0.027    28.678     8.784
    32   6 C        2.962    -0.022    28.561     8.766
    33   7 N        1.844    -0.282    28.165     7.865
    34   6 C        2.984     0.204    23.677     7.982
    35   6 C        2.986     0.007    27.849     8.657
    36   6 C        2.923    -0.020    28.504     8.755
    37   6 C        2.920    -0.022    28.544     8.761
    38   6 C        2.956    -0.022    28.558     8.765
    39   6 C        2.969    -0.073    29.804     8.955
    40  16 S        3.816     0.943   108.296    17.515
    41   8 O        0.860    -0.535    24.578     6.647
    42   8 O        0.860    -0.537    24.614     6.652
    43   6 C        2.972    -0.073    29.821     8.957
    44   6 C        2.960    -0.027    28.682     8.784
    45   6 C        2.922    -0.023    28.582     8.767
    46   6 C        2.920    -0.023    28.591     8.768
    47   6 C        2.922    -0.023    28.578     8.766
    48   6 C        2.954    -0.025    28.629     8.776
    49   6 C        2.960    -0.022    28.550     8.764
    50   7 N        1.844    -0.282    28.176     7.867
    51   6 C        2.962    -0.022    28.560     8.766
    52   1 H        0.926     0.064     2.149     2.292
    53   1 H        0.926     0.052     2.290     2.366
    54   1 H        0.926     0.051     2.309     2.376
    55   1 H        0.926     0.051     2.305     2.374
    56   1 H        0.926     0.054     2.274     2.358
    57   1 H        0.926     0.063     2.167     2.302
    58   1 H        0.926     0.061     2.189     2.313
    59   1 H        0.926     0.077     2.007     2.215
    60   1 H        0.926     0.077     2.005     2.214
    61   1 H        0.926     0.061     2.187     2.313
    62   1 H        0.926     0.063     2.165     2.301
    63   1 H        0.926     0.064     2.147     2.292
    64   1 H        0.926     0.052     2.292     2.368
    65   1 H        0.926     0.050     2.316     2.380
    66   1 H        0.926     0.051     2.312     2.378
    67   1 H        0.926     0.054     2.270     2.356
    68   1 H        0.926     0.082     1.954     2.186
    69   1 H        0.926     0.077     2.012     2.218
    70   1 H        0.926     0.060     2.193     2.316
    71   1 H        0.926     0.060     2.193     2.316
    72   1 H        0.926     0.052     2.297     2.370
    73   1 H        0.926     0.050     2.317     2.380
    74   1 H        0.926     0.051     2.312     2.378
    75   1 H        0.926     0.053     2.287     2.365
    76   1 H        0.926     0.065     2.137     2.286
    77   1 H        0.926     0.084     1.941     2.179
    78   1 H        0.926     0.082     1.957     2.188

molecular dipole:
                 x           y           z       tot (Debye)
 q only:        0.525      -0.406      -1.564
   full:        0.520      -0.404      -1.552       4.285

 projected vibrational frequencies (cm⁻¹)
eigval :       -0.00     0.00     0.00     0.00     0.00     0.00
eigval :        5.42     5.52     5.93     7.56    10.99    11.26
eigval :       17.27    18.29    19.51    25.81    26.14    35.80
eigval :       37.19    38.61    43.00    59.88    86.81    86.88
eigval :      108.23   108.54   124.51   127.05   127.89   139.33
eigval :      139.74   140.08   171.10   181.94   182.76   199.79
eigval :      201.22   202.07   221.46   230.90   237.92   239.25
eigval :      278.56   280.13   280.57   298.38   304.12   304.89
eigval :      318.11   321.39   321.64   363.08   363.12   363.14
eigval :      366.33   370.85   373.52   384.17   388.88   395.12
eigval :      408.36   417.70   426.86   442.33   445.15   466.40
eigval :      466.63   487.44   514.70   515.32   519.81   530.20
eigval :      532.57   550.75   559.73   584.94   584.97   585.00
eigval :      610.98   611.03   632.55   638.88   639.46   655.95
eigval :      658.88   659.01   660.16   675.21   675.60   684.12
eigval :      689.88   691.93   704.25   704.81   744.58   749.67
eigval :      750.01   756.18   775.08   802.44   802.95   808.33
eigval :      879.59   879.88   880.08   889.42   889.53   896.64
eigval :      898.53   899.91   906.58   906.71   906.88   909.62
eigval :      910.53   911.25   927.60   927.67   927.94   930.24
eigval :      931.04   931.26   933.23   933.25   933.34   967.16
eigval :      968.60   968.64   974.44   988.07   988.19  1046.92
eigval :     1069.60  1069.66  1069.70  1078.14  1082.64  1082.97
eigval :     1091.99  1098.44  1098.62  1102.85  1102.94  1103.06
eigval :     1107.41  1108.01  1108.26  1118.73  1128.80  1129.25
eigval :     1132.62  1165.29  1165.42  1166.96  1177.77  1177.80
eigval :     1177.82  1179.24  1179.26  1179.31  1191.04  1191.20
eigval :     1203.94  1222.43  1228.96  1229.01  1242.78  1243.40
eigval :     1243.66  1259.85  1259.93  1260.05  1320.44  1320.51
eigval :     1320.56  1325.64  1325.72  1328.47  1357.72  1365.43
eigval :     1365.71  1416.48  1416.73  1417.80  1430.39  1430.45
eigval :     1430.45  1444.93  1445.01  1445.07  1450.73  1450.92
eigval :     1464.44  1515.25  1515.73  1563.16  1567.08  1567.21
eigval :     1577.15  1577.21  1577.33  1591.16  1592.27  1592.40
eigval :     1597.94  1597.99  1598.06  3083.31  3083.51  3083.83
eigval :     3089.96  3090.08  3090.41  3092.29  3092.66  3092.72
eigval :     3097.01  3097.09  3097.43  3103.87  3104.25  3104.67
eigval :     3104.80  3105.81  3105.84  3105.87  3106.34  3106.48
eigval :     3110.58  3110.66  3110.75  3116.94  3117.66  3117.80

   temp. (K)  partition function   enthalpy   heat capacity  entropy
                                   cal/mol     cal/K/mol   cal/K/mol   J/K/mol
 298.15  VIB  0.194E+27            26941.231    152.845    176.313
         ROT  0.179E+09              888.752      2.981     40.744
         INT  0.347E+35            27829.983    155.826    217.057
         TR   0.191E+29             1481.254      4.968     45.622
         TOT                       29311.2368   160.7939   262.6791  1099.0493

       T/K    H(0)-H(T)+PV         H(T)/Eh          T*S/Eh         G(T)/Eh
   ------------------------------------------------------------------------
    298.15    0.467104E-01    0.603996E+00    0.124807E+00    0.479189E+00
   ------------------------------------------------------------------------

         :::::::::::::::::::::::::::::::::::::::::::::::::::::
         ::                  THERMODYNAMIC                  ::
         :::::::::::::::::::::::::::::::::::::::::::::::::::::
         :: total free energy        -139.615958977480 Eh   ::
         ::.................................................::
         :: total energy             -140.095147679799 Eh   ::
         :: zero point energy           0.557285588208 Eh   ::
         :: G(RRHO) w/o ZPVE           -0.078096885889 Eh   ::
         :: G(RRHO) contrib.            0.479188702319 Eh   ::
         :::::::::::::::::::::::::::::::::::::::::::::::::::::

           -------------------------------------------------
          | TOTAL ENERGY             -140.095147679799 Eh   |
          | TOTAL ENTHALPY           -139.491151662452 Eh   |
          | TOTAL FREE ENERGY        -139.615958977480 Eh   |
          | GRADIENT NORM               0.000053612156 Eh/α |
          | HOMO-LUMO GAP               2.218020804466 eV   |
           -------------------------------------------------

 * finished run on 2025/09/04 at 00:53:58.320
