   * xtb version 6.7.1 (edcfbbe) compiled by 'albert@albert-system' on 2024-07-22

   ID    Z sym.   atoms
    1    8 O      1, 3, 24, 25, 41, 42
    2   16 S      2, 23, 40
    3    6 C      4-15, 17-22, 26-32, 34-39, 43-49, 51
    4    7 N      16, 33, 50
    5    1 H      52-78

          program call               : xtb data2507/gas/TRZ-3SO2/TRZ-3SO2_gas_T1_crest.xyz --gfn 2 --spinpol --tblite --uhf 2 --ohess vtight --parallel 40 --molden --ceasefiles --namespace data2507/gas/TRZ-3SO2/TRZ-3SO2_gas_T1_finalOpt
 * total energy  :  -140.0257719 Eh     change       -0.9002065E-08 Eh
 * total energy  :  -140.0258474 Eh     change       -0.7555267E-04 Eh
 * total energy  :  -140.0258993 Eh     change       -0.5183517E-04 Eh
 * total energy  :  -140.0259042 Eh     change       -0.4949264E-05 Eh
 * total energy  :  -140.0259111 Eh     change       -0.6849319E-05 Eh
 * total energy  :  -140.0259129 Eh     change       -0.1826399E-05 Eh
 * total energy  :  -140.0259135 Eh     change       -0.5822318E-06 Eh
 * total energy  :  -140.0259144 Eh     change       -0.9171953E-06 Eh
 * total energy  :  -140.0259151 Eh     change       -0.7235228E-06 Eh
 * total energy  :  -140.0259158 Eh     change       -0.7150982E-06 Eh
 * total energy  :  -140.0259179 Eh     change       -0.4195234E-06 Eh
 * total energy  :  -140.0259183 Eh     change       -0.3794918E-06 Eh
 * total energy  :  -140.0259186 Eh     change       -0.3413746E-06 Eh
 * total energy  :  -140.0259190 Eh     change       -0.3428107E-06 Eh
 * total energy  :  -140.0259194 Eh     change       -0.4315021E-06 Eh
 * total energy  :  -140.0259198 Eh     change       -0.3572371E-06 Eh
 * total energy  :  -140.0259201 Eh     change       -0.3188587E-06 Eh
 * total energy  :  -140.0259201 Eh     change        0.1669559E-07 Eh
 * total energy  :  -140.0259201 Eh     change       -0.9479976E-08 Eh
   *** GEOMETRY OPTIMIZATION CONVERGED AFTER 23 ITERATIONS ***

 final structure:
================
78
 xtb: 6.7.1 (edcfbbe)
O           -3.29379832931434        3.44734823194744       -1.49862986325993
S           -2.73366545793166        3.89434092473297       -0.24599827545105
O           -2.75970382961994        5.30722775120423        0.02299847018386
C           -3.56484939199658        3.00653844568660        1.08054072741459
C           -4.85298881680240        2.55134743625589        0.87635426990140
C           -5.48794335013465        1.83920950022425        1.88220033200075
C           -4.82614008559697        1.59212544459578        3.07347625014280
C           -3.53926656427249        2.06826678880648        3.27249552921861
C           -2.90180508002152        2.78412615892610        2.27170786683352
C           -1.02319587804356        3.32787832435204       -0.16294318397236
C            0.01061626144233        4.24959395192731       -0.16174628358532
C            1.32106288183444        3.78582674253116       -0.11919568090905
C            1.58188588192328        2.43328548305027       -0.06171820716920
C            0.52863800246603        1.50373851425064       -0.04817772773494
C            0.77478513342058        0.09723087079039        0.04213832290312
N           -0.22020153514818       -0.75878876406390        0.11339043717389
C           -0.03344137148308       -2.06219126542502        0.18894837875274
C           -1.16483792791753       -2.93321986255848        0.27445376170583
C           -1.04841863360737       -4.33215451850433        0.28386315144429
C           -2.17401044248074       -5.12711168435990        0.34280544428815
C           -3.44284172199555       -4.55783640487401        0.38888575774193
C           -3.54880624092648       -3.17741461794000        0.39340643062205
S           -5.15516573950585       -2.35692427521186        0.41581757945357
O           -5.16834304424122       -1.41511065535460        1.50639016461600
O           -6.18944642884933       -3.35586714253783        0.36822700998842
C           -5.11644117207623       -1.44339833393642       -1.13051760237343
C           -4.61127355354759       -0.15829711869179       -1.13027580834518
C           -4.51027943942286        0.53556321175738       -2.32568568668084
C           -4.91792644467030       -0.07599678882282       -3.50189599136303
C           -5.42748066775014       -1.36600472312936       -3.48993533527944
C           -5.52351646593677       -2.06207575368520       -2.29556571355569
C           -2.44734590315930       -2.36549916982021        0.33972864960172
N            1.24804863590489       -2.56613649625397        0.17931518235391
C            2.22916605452640       -1.69148344991377        0.12671764542386
C            3.61249908594846       -2.18131482413670        0.12688808242066
C            3.91014386984238       -3.53492680154742       -0.01203544719168
C            5.22857428447444       -3.95481096546301       -0.04016556130121
C            6.25850396999333       -3.03098295277446        0.06613006800478
C            5.95264329815424       -1.69042918958617        0.21410058513035
S            7.28556868967592       -0.47875882750042        0.38375313929101
O            8.37096806259969       -0.89633988321837       -0.46152794550554
O            7.54748749580558       -0.30447191219428        1.78708420646721
C            6.54404008179160        1.02313899144079       -0.26727821103324
C            6.44073754612909        1.17597340311920       -1.63615203447642
C            5.79442450900162        2.29224319127605       -2.14129461907381
C            5.25654706418744        3.23097776114199       -1.27378598344804
C            5.37309037011062        3.06918321096087        0.09842554747446
C            6.02160187704300        1.95579717156948        0.60811981470795
C            4.64791767124894       -1.25702634079963        0.25183260300972
N            2.06216432790279       -0.38269077022605        0.06375470981813
C           -0.79235484644126        1.97680563728925       -0.11389811062257
H           -5.33270792446233        2.75108191811985       -0.06923504280001
H           -6.48651880630412        1.46182411908231        1.73028759682654
H           -5.31435553990322        1.01939754809106        3.84587399486240
H           -3.02903981569718        1.87882590951575        4.20472533641419
H           -1.89987271496170        3.16325521109263        2.40743891026353
H           -0.22724972531879        5.30042954727770       -0.19295500793474
H            2.13766530457552        4.49181215187147       -0.12636544717959
H            2.59622402698581        2.06547552502081       -0.02446859151838
H           -0.06219754816261       -4.76772458930170        0.24172584657367
H           -2.07311511702389       -6.20200003692369        0.34924504922008
H           -4.33873085919809       -5.15553669585875        0.42880676611957
H           -4.33041726889590        0.29223828978158       -0.19110024706786
H           -4.11941979689014        1.54293605957068       -2.33199093156134
H           -4.84270555992586        0.46089571122067       -4.43560740026973
H           -5.74951362362363       -1.83038100218799       -4.40986017845939
H           -5.92154452461311       -3.06351656624621       -2.24849325064618
H           -2.55116059481028       -1.29261744346836        0.35592649911851
H            3.09978709274398       -4.24130188150059       -0.10350390582518
H            5.45693804674748       -5.00389927763620       -0.15043086034835
H            7.29461872815298       -3.32843499994880        0.02990514163303
H            6.87465115811235        0.42822640780967       -2.28124356881987
H            5.70690681868314        2.42923065768389       -3.20818828592314
H            4.74652739407033        4.09553916998164       -1.67164542955932
H            4.95919682131256        3.80590245378611        0.77031866626253
H            6.13677601837096        1.79468637286325        1.66875475634411
H            4.40905318555611       -0.21227654523672        0.37250344725159
H           -1.61247936435701        1.27570090483620       -0.12531986824029

 projected vibrational frequencies (cm⁻¹)
eigval :       -0.00    -0.00    -0.00    -0.00     0.00     0.00
eigval :        9.38     9.87    13.04    16.90    19.17    22.26
eigval :       26.06    30.71    33.23    40.33    42.17    44.12
eigval :       48.40    55.54    69.88    82.10    88.03    92.36
eigval :       99.09   104.38   111.16   120.92   128.88   136.51
eigval :      143.75   148.13   178.88   187.05   192.22   205.59
eigval :      209.89   222.29   230.32   234.27   241.62   257.97
eigval :      266.82   268.81   271.26   279.87   282.70   289.08
eigval :      291.34   313.56   318.38   330.89   350.53   361.61
eigval :      364.75   367.96   372.18   380.71   381.29   392.02
eigval :      401.33   408.24   426.46   436.51   460.80   465.60
eigval :      479.21   490.17   498.97   508.36   509.48   520.50
eigval :      525.50   534.52   540.19   552.41   555.20   583.73
eigval :      584.44   584.75   589.59   616.24   628.32   640.52
eigval :      645.44   652.43   654.63   655.77   657.71   658.92
eigval :      659.58   678.47   682.66   687.08   694.55   725.56
eigval :      741.65   749.81   753.20   761.66   780.33   782.96
eigval :      797.40   845.64   852.57   856.22   861.38   876.24
eigval :      879.47   881.07   881.87   885.08   889.47   906.61
eigval :      907.71   908.83   911.91   917.66   919.32   927.24
eigval :      927.90   929.08   929.37   931.44   933.39   950.40
eigval :      957.57   964.44   965.01   967.04   972.14   975.94
eigval :      984.40  1056.05  1068.34  1068.99  1072.21  1083.47
eigval :     1086.00  1090.76  1092.78  1095.84  1097.35  1100.79
eigval :     1102.02  1103.50  1104.50  1106.33  1108.84  1115.75
eigval :     1120.69  1123.34  1128.54  1140.58  1161.88  1162.56
eigval :     1166.28  1175.16  1175.96  1177.83  1178.99  1180.03
eigval :     1182.99  1193.15  1217.68  1224.87  1230.68  1232.49
eigval :     1233.83  1244.18  1258.83  1259.66  1260.49  1263.14
eigval :     1317.02  1318.52  1318.69  1319.39  1325.87  1326.54
eigval :     1336.27  1372.59  1381.39  1414.69  1416.05  1420.91
eigval :     1425.57  1426.89  1428.46  1430.23  1442.54  1442.92
eigval :     1445.11  1446.57  1474.17  1514.14  1519.17  1558.30
eigval :     1566.65  1569.67  1571.78  1573.81  1574.58  1586.39
eigval :     1595.24  1595.77  1596.08  3082.78  3084.73  3084.98
eigval :     3086.08  3087.83  3090.55  3091.84  3092.84  3093.28
eigval :     3094.85  3096.15  3097.55  3098.87  3099.84  3102.25
eigval :     3103.44  3104.13  3105.44  3105.81  3105.89  3106.58
eigval :     3106.86  3107.19  3110.09  3114.54  3115.04  3115.41

   temp. (K)  partition function   enthalpy   heat capacity  entropy
                                   cal/mol     cal/K/mol   cal/K/mol   J/K/mol
 298.15  VIB  0.145E+24            27060.157    157.965    172.572
         ROT  0.110E+09              888.752      2.981     39.777
         INT  0.159E+32            27948.910    160.946    212.349
         TR   0.191E+29             1481.254      4.968     45.622
         TOT                       29430.1638   165.9140   257.9711  1079.3510

       T/K    H(0)-H(T)+PV         H(T)/Eh          T*S/Eh         G(T)/Eh
   ------------------------------------------------------------------------
    298.15    0.469000E-01    0.598721E+00    0.122570E+00    0.476151E+00
   ------------------------------------------------------------------------

         :::::::::::::::::::::::::::::::::::::::::::::::::::::
         ::                  THERMODYNAMIC                  ::
         :::::::::::::::::::::::::::::::::::::::::::::::::::::
         :: total free energy        -139.549768973189 Eh   ::
         ::.................................................::
         :: total energy             -140.025920075090 Eh   ::
         :: zero point energy           0.551821533693 Eh   ::
         :: G(RRHO) w/o ZPVE           -0.075670431793 Eh   ::
         :: G(RRHO) contrib.            0.476151101900 Eh   ::
         :::::::::::::::::::::::::::::::::::::::::::::::::::::

           -------------------------------------------------
          | TOTAL ENERGY             -140.025920075090 Eh   |
          | TOTAL ENTHALPY           -139.427198590133 Eh   |
          | TOTAL FREE ENERGY        -139.549768973189 Eh   |
          | GRADIENT NORM               0.000159075374 Eh/α |
           -------------------------------------------------

 * finished run on 2025/09/04 at 01:14:46.324
