   * xtb version 6.7.1 (edcfbbe) compiled by 'albert@albert-system' on 2024-07-22

   ID    Z sym.   atoms
    1    8 O      1, 3, 24, 25, 41, 42
    2   16 S      2, 23, 40
    3    6 C      4-15, 17-22, 26-32, 34-39, 43-49, 51
    4    7 N      16, 33, 50
    5    1 H      52-78

          program call               : xtb data2507/gas/TRZ-3SO2/TRZ-3SO2_gas_S0_crest.xyz --gfn 2 --ohess vtight --parallel 40 --molden --ceasefiles --namespace data2507/gas/TRZ-3SO2/TRZ-3SO2_gas_S0_finalOpt
          :  Hamiltonian                  GFN2-xTB          :
 * total energy  :  -140.1033266 Eh     change       -0.1725169E-08 Eh
 * total energy  :  -140.1033278 Eh     change       -0.1140487E-05 Eh
 * total energy  :  -140.1033301 Eh     change       -0.2370244E-05 Eh
 * total energy  :  -140.1033319 Eh     change       -0.1772667E-05 Eh
 * total energy  :  -140.1033345 Eh     change       -0.2549670E-05 Eh
 * total energy  :  -140.1033386 Eh     change       -0.4162855E-05 Eh
 * total energy  :  -140.1033441 Eh     change       -0.5479411E-05 Eh
 * total energy  :  -140.1033493 Eh     change       -0.5180359E-05 Eh
 * total energy  :  -140.1033530 Eh     change       -0.3755379E-05 Eh
 * total energy  :  -140.1033561 Eh     change       -0.3099074E-05 Eh
 * total energy  :  -140.1035389 Eh     change       -0.7475091E-06 Eh
 * total energy  :  -140.1035397 Eh     change       -0.8075660E-06 Eh
 * total energy  :  -140.1035405 Eh     change       -0.8599266E-06 Eh
 * total energy  :  -140.1035413 Eh     change       -0.8030647E-06 Eh
 * total energy  :  -140.1035422 Eh     change       -0.8498987E-06 Eh
 * total energy  :  -140.1035431 Eh     change       -0.9077137E-06 Eh
 * total energy  :  -140.1035440 Eh     change       -0.8710293E-06 Eh
 * total energy  :  -140.1035446 Eh     change       -0.5911831E-06 Eh
 * total energy  :  -140.1035446 Eh     change       -0.1646626E-07 Eh
   *** GEOMETRY OPTIMIZATION CONVERGED AFTER 122 ITERATIONS ***

 final structure:
================
78
 xtb: 6.7.1 (edcfbbe)
O           -3.40995864813363        2.86329619980767       -1.61607367000476
S           -2.87947853765265        3.56735843768277       -0.47656132035086
O           -3.02183418504021        4.99878650783542       -0.43433163602665
C           -3.54241052435327        2.84006430790388        1.02215433879132
C           -3.91814126600519        1.51046351870909        1.01182252268889
C           -4.36137976559508        0.91793122509019        2.18339993586033
C           -4.42126695244591        1.67185009540401        3.34632035889890
C           -4.04737831654557        3.00745660078356        3.34482549781466
C           -3.59724109422258        3.59794048290688        2.17519866789242
C           -1.12846718766952        3.15945963413878       -0.33190564969713
C           -0.16144248495490        4.13881958654163       -0.20447771442240
C            1.16739570090015        3.76441796442274       -0.05769006713970
C            1.51576256385235        2.42567635027005       -0.01676888569687
C            0.53091514698104        1.44551902160601       -0.13236833775339
C            0.84822127907736        0.01883053406943       -0.06573203226926
N           -0.17784479273363       -0.82546590428478       -0.06266164339610
C            0.12409289679336       -2.11779454276600       -0.03039061216891
C           -1.00208561095114       -3.05231115657236       -0.05715683821146
C           -0.80960761410998       -4.41083882195490       -0.30398708922461
C           -1.89524214548391       -5.26469643283456       -0.38598831936579
C           -3.18234931247050       -4.76974144232960       -0.23109923623510
C           -3.36359808017752       -3.42407219008410        0.02980701444772
S           -5.02928314713359       -2.77141458839594        0.26623757518622
O           -5.10321704437829       -2.22553573741081        1.60000154090732
O           -5.97161684152807       -3.80208190815995       -0.07828960200048
C           -5.19058709642484       -1.39605778111868       -0.88386272082703
C           -4.37936095484734       -1.28523699700554       -1.99655168784924
C           -4.52011356361688       -0.18362619108255       -2.82668526353396
C           -5.47198053652328        0.78329708707320       -2.54552185523736
C           -6.29552506788369        0.64909594366655       -1.43904809128532
C           -6.15284871157209       -0.44472303321008       -0.60073985143275
C           -2.29398173947407       -2.56194079192236        0.12945408790049
N            1.36655028369792       -2.59208065310598       -0.00235211377958
C            2.33041519633369       -1.67624655960025        0.02184775796284
C            3.72371493324869       -2.11942344295136        0.06937563960218
C            4.06646342261575       -3.46641661366820       -0.02997550811469
C            5.39714384303583       -3.84598808975227       -0.01350954957676
C            6.39489500481323       -2.88833876724139        0.09921714960140
C            6.04614118056641       -1.55415774279718        0.20842556929607
S            7.33921955759359       -0.30414502061685        0.38685475402476
O            8.44012495373443       -0.68054291790242       -0.45867795622091
O            7.59604932334690       -0.12694563752039        1.79133044605136
C            6.55664847862373        1.18088120238939       -0.25671706834489
C            6.46582169709813        1.34905112172400       -1.62468893588752
C            5.79102763785175        2.45085813774919       -2.12423865800733
C            5.21278556895752        3.36088859557342       -1.25223300904713
C            5.31763702966741        3.18495836833708        0.11915462670621
C            5.99436066534319        2.08593411121487        0.62299565070706
C            4.72776915236040       -1.16134187703410        0.20048119194151
N            2.11785810787309       -0.36165717625756       -0.00997240993036
C           -0.79827818359115        1.82381556110951       -0.30330650759236
H           -3.88320578896146        0.96663241362373        0.08139313518511
H           -4.65701679811685       -0.12137553868842        2.18848969448732
H           -4.76797596495297        1.21368530759786        4.26031644843890
H           -4.10540706230482        3.58789762394737        4.25329389857775
H           -3.30438948743530        4.63540399584088        2.13436744451201
H           -0.46410734123003        5.17418025488998       -0.22934695653011
H            1.93140467720121        4.52175976142801        0.03135483568545
H            2.54440387486111        2.12243984445138        0.10502496599128
H            0.19712386121952       -4.77486171402336       -0.43727831104694
H           -1.74251136743320       -6.31558203574305       -0.57891933604903
H           -4.05295457267727       -5.40248656238246       -0.30698303765295
H           -3.64226730418750       -2.04557290723169       -2.20859360224635
H           -3.87999255066746       -0.07532445149332       -3.68837240606625
H           -5.56089985367556        1.64778523530600       -3.18301432497604
H           -7.03837400963392        1.40071893007650       -1.22146204404577
H           -6.76382532501279       -0.56875650412698        0.27950700365212
H           -2.44803078276132       -1.51723999700487        0.34839840522078
H            3.27888193761044       -4.19747930396945       -0.12368070503064
H            5.66115825260821       -4.88955725064736       -0.09290232436269
H            7.44017796924693       -3.15470483642505        0.09827423037374
H            6.93155417847282        0.62389176574339       -2.27338282436326
H            5.71312764134176        2.59927241185531       -3.19042684277737
H            4.68111814080215        4.21459364288735       -1.64550380333265
H            4.87375976938894        3.90074134357830        0.79479683553033
H            6.10168933146686        1.91472765296973        1.68286600636609
H            4.45175388927740       -0.12326490064645        0.28842643030661
H           -1.55828744459052        1.06973481174200       -0.41999617448297

          :  Hamiltonian                  GFN2-xTB          :
         :: gradient norm              0.000130374009 Eh/a0 ::
         :: HOMO-LUMO gap              2.230990977170 eV    ::
         :: SCC energy              -142.252131592287 Eh    ::
         :: -> dispersion             -0.120970328083 Eh    ::
         :: repulsion energy           2.148587019812 Eh    ::

    * Orbital Energies and Occupations

         #    Occupation            Energy/Eh            Energy/eV
      -------------------------------------------------------------
         1        2.0000           -0.7770415             -21.1444
       ...           ...                  ...                  ...
       114        2.0000           -0.4370242             -11.8920
       115        2.0000           -0.4360827             -11.8664
       116        2.0000           -0.4354486             -11.8492
       117        2.0000           -0.4343321             -11.8188
       118        2.0000           -0.4316452             -11.7457
       119        2.0000           -0.4303031             -11.7091
       120        2.0000           -0.4282565             -11.6535
       121        2.0000           -0.4264198             -11.6035
       122        2.0000           -0.4129061             -11.2357
       123        2.0000           -0.4116554             -11.2017
       124        2.0000           -0.4100237             -11.1573
       125        2.0000           -0.4004383             -10.8965
       126        2.0000           -0.3989892             -10.8570 (HOMO)
       127                         -0.3170018              -8.6261 (LUMO)
       128                         -0.3166557              -8.6166
       129                         -0.2788103              -7.5868
       130                         -0.2732234              -7.4348
       131                         -0.2703034              -7.3553
       132                         -0.2694047              -7.3309
       133                         -0.2648098              -7.2058
       134                         -0.2574808              -7.0064
       135                         -0.2564801              -6.9792
       136                         -0.2544520              -6.9240
       137                         -0.2487457              -6.7687
       ...                                ...                  ...
       246                          1.2049466              32.7883
      -------------------------------------------------------------
                  HL-Gap            0.0819874 Eh            2.2310 eV

     #   Z          covCN         q      C6AA      α(0)
     1   8 O        0.860    -0.547    24.859     6.685
     2  16 S        3.819     0.948   108.165    17.504
     3   8 O        0.860    -0.533    24.536     6.641
     4   6 C        2.972    -0.076    29.896     8.969
     5   6 C        2.960    -0.028    28.690     8.786
     6   6 C        2.919    -0.029    28.729     8.790
     7   6 C        2.921    -0.021    28.532     8.759
     8   6 C        2.921    -0.024    28.598     8.770
     9   6 C        2.957    -0.029    28.715     8.789
    10   6 C        2.968    -0.072    29.802     8.955
    11   6 C        2.944    -0.019    28.476     8.752
    12   6 C        2.921    -0.023    28.567     8.765
    13   6 C        2.921    -0.021    28.524     8.758
    14   6 C        2.986     0.007    27.863     8.659
    15   6 C        2.984     0.205    23.662     7.979
    16   7 N        1.849    -0.288    28.310     7.886
    17   6 C        2.986     0.205    23.660     7.979
    18   6 C        2.986     0.008    27.842     8.655
    19   6 C        2.922    -0.020    28.501     8.755
    20   6 C        2.920    -0.021    28.532     8.759
    21   6 C        2.951    -0.018    28.456     8.749
    22   6 C        2.968    -0.068    29.698     8.939
    23  16 S        3.810     0.956   107.912    17.484
    24   8 O        0.860    -0.555    25.026     6.707
    25   8 O        0.860    -0.540    24.678     6.660
    26   6 C        2.970    -0.073    29.819     8.957
    27   6 C        2.945    -0.032    28.792     8.801
    28   6 C        2.922    -0.018    28.461     8.749
    29   6 C        2.919    -0.012    28.325     8.728
    30   6 C        2.921    -0.019    28.493     8.754
    31   6 C        2.967    -0.021    28.533     8.762
    32   6 C        2.963    -0.022    28.562     8.766
    33   7 N        1.841    -0.280    28.122     7.859
    34   6 C        2.989     0.204    23.670     7.981
    35   6 C        2.986     0.008    27.843     8.656
    36   6 C        2.921    -0.020    28.502     8.755
    37   6 C        2.920    -0.021    28.519     8.757
    38   6 C        2.952    -0.014    28.350     8.733
    39   6 C        2.967    -0.068    29.700     8.939
    40  16 S        3.808     0.947   108.191    17.506
    41   8 O        0.860    -0.535    24.577     6.647
    42   8 O        0.860    -0.537    24.623     6.653
    43   6 C        2.972    -0.069    29.725     8.943
    44   6 C        2.958    -0.025    28.633     8.777
    45   6 C        2.922    -0.022    28.556     8.763
    46   6 C        2.920    -0.024    28.592     8.769
    47   6 C        2.921    -0.024    28.605     8.771
    48   6 C        2.955    -0.026    28.639     8.778
    49   6 C        2.962    -0.029    28.711     8.789
    50   7 N        1.844    -0.287    28.282     7.882
    51   6 C        2.977    -0.025    28.624     8.776
    52   1 H        0.926     0.046     2.376     2.410
    53   1 H        0.926     0.080     1.976     2.198
    54   1 H        0.926     0.056     2.251     2.346
    55   1 H        0.926     0.052     2.294     2.369
    56   1 H        0.926     0.059     2.216     2.328
    57   1 H        0.926     0.074     2.047     2.237
    58   1 H        0.926     0.058     2.226     2.333
    59   1 H        0.926     0.067     2.124     2.279
    60   1 H        0.926     0.072     2.069     2.249
    61   1 H        0.926     0.061     2.186     2.312
    62   1 H        0.926     0.076     2.019     2.222
    63   1 H        0.926     0.035     2.515     2.480
    64   1 H        0.926     0.054     2.271     2.357
    65   1 H        0.926     0.066     2.127     2.281
    66   1 H        0.926     0.054     2.266     2.354
    67   1 H        0.926     0.059     2.211     2.325
    68   1 H        0.926     0.067     2.123     2.279
    69   1 H        0.926     0.072     2.061     2.245
    70   1 H        0.926     0.061     2.182     2.310
    71   1 H        0.926     0.071     2.073     2.251
    72   1 H        0.926     0.058     2.226     2.333
    73   1 H        0.926     0.053     2.288     2.365
    74   1 H        0.926     0.050     2.321     2.382
    75   1 H        0.926     0.050     2.317     2.380
    76   1 H        0.926     0.066     2.134     2.285
    77   1 H        0.926     0.063     2.169     2.303
    78   1 H        0.926     0.071     2.079     2.255

molecular dipole:
                 x           y           z       tot (Debye)
 q only:        0.229      -0.020      -0.669
   full:        0.284      -0.036      -0.690       1.900

 projected vibrational frequencies (cm⁻¹)
eigval :       -0.00    -0.00    -0.00    -0.00     0.00     0.00
eigval :        8.67     8.96    12.68    14.78    21.03    23.28
eigval :       29.62    32.01    33.81    36.93    42.78    45.59
eigval :       47.17    55.76    69.56    83.73    85.52    87.69
eigval :       96.66   107.43   109.74   118.47   128.27   135.95
eigval :      142.71   151.90   177.88   186.05   189.53   192.50
eigval :      217.38   224.11   231.56   235.65   238.54   260.69
eigval :      266.36   269.74   272.65   280.63   285.94   292.09
eigval :      304.79   311.26   321.42   349.45   354.42   364.65
eigval :      364.68   371.28   377.25   382.80   384.22   405.45
eigval :      419.76   423.35   436.12   442.14   466.23   476.75
eigval :      479.23   499.91   508.05   514.53   517.85   528.56
eigval :      535.21   546.62   565.18   584.96   585.15   585.82
eigval :      607.30   613.01   632.16   640.85   642.90   657.62
eigval :      658.12   660.03   661.44   673.77   675.60   686.19
eigval :      688.91   690.70   704.25   706.21   741.56   745.95
eigval :      753.43   762.12   775.05   802.77   805.04   809.22
eigval :      875.60   881.73   882.57   886.60   888.11   889.23
eigval :      891.42   893.67   901.20   908.32   910.25   913.05
eigval :      914.57   915.07   924.49   926.86   928.98   929.36
eigval :      930.13   931.31   932.14   933.42   958.89   966.57
eigval :      967.99   968.31   975.19   989.82   991.56  1048.55
eigval :     1068.64  1070.61  1073.88  1087.68  1089.54  1090.34
eigval :     1093.52  1096.66  1100.02  1101.37  1102.14  1104.80
eigval :     1106.20  1106.57  1109.35  1120.44  1124.72  1129.03
eigval :     1131.79  1162.19  1163.50  1166.75  1176.29  1177.07
eigval :     1178.25  1179.02  1183.06  1185.31  1191.66  1193.74
eigval :     1207.59  1226.75  1230.94  1235.00  1237.46  1239.51
eigval :     1243.47  1259.22  1261.72  1262.27  1318.37  1318.66
eigval :     1319.61  1324.04  1325.50  1327.87  1357.73  1365.11
eigval :     1367.36  1412.65  1417.56  1419.85  1425.18  1428.61
eigval :     1429.93  1443.37  1443.63  1447.03  1452.05  1453.18
eigval :     1466.16  1514.06  1518.70  1562.73  1566.36  1568.00
eigval :     1573.61  1573.84  1575.82  1590.79  1592.09  1593.34
eigval :     1595.13  1596.23  1596.43  3081.69  3082.55  3085.07
eigval :     3088.82  3089.98  3090.97  3091.75  3092.37  3094.88
eigval :     3097.23  3098.69  3099.33  3101.73  3104.70  3105.16
eigval :     3105.58  3105.72  3106.28  3106.42  3106.99  3107.40
eigval :     3109.48  3110.92  3111.37  3116.46  3118.58  3126.83

   temp. (K)  partition function   enthalpy   heat capacity  entropy
                                   cal/mol     cal/K/mol   cal/K/mol   J/K/mol
 298.15  VIB  0.122E+24            26670.127    154.929    170.897
         ROT  0.109E+09              888.752      2.981     39.762
         INT  0.134E+32            27558.879    157.910    210.659
         TR   0.191E+29             1481.254      4.968     45.622
         TOT                       29040.1333   162.8778   256.2810  1072.2797

       T/K    H(0)-H(T)+PV         H(T)/Eh          T*S/Eh         G(T)/Eh
   ------------------------------------------------------------------------
    298.15    0.462784E-01    0.604188E+00    0.121767E+00    0.482420E+00
   ------------------------------------------------------------------------

         :::::::::::::::::::::::::::::::::::::::::::::::::::::
         ::                  THERMODYNAMIC                  ::
         :::::::::::::::::::::::::::::::::::::::::::::::::::::
         :: total free energy        -139.621124282500 Eh   ::
         ::.................................................::
         :: total energy             -140.103544572470 Eh   ::
         :: zero point energy           0.557909263205 Eh   ::
         :: G(RRHO) w/o ZPVE           -0.075488973235 Eh   ::
         :: G(RRHO) contrib.            0.482420289970 Eh   ::
         :::::::::::::::::::::::::::::::::::::::::::::::::::::

           -------------------------------------------------
          | TOTAL ENERGY             -140.103544572470 Eh   |
          | TOTAL ENTHALPY           -139.499356911085 Eh   |
          | TOTAL FREE ENERGY        -139.621124282500 Eh   |
          | GRADIENT NORM               0.000130368533 Eh/α |
          | HOMO-LUMO GAP               2.230990359200 eV   |
           -------------------------------------------------

 * finished run on 2025/09/04 at 01:01:32.068
