   * xtb version 6.7.1 (edcfbbe) compiled by 'albert@albert-system' on 2024-07-22

   ID    Z sym.   atoms
    1    8 O      1, 3, 24, 25, 41, 42
    2   16 S      2, 23, 40
    3    6 C      4-15, 17-22, 26-32, 34-39, 43-49, 51
    4    7 N      16, 33, 50
    5    1 H      52-78

          program call               : xtb data2507/gas/TRZ-3SO2/TRZ-3SO2_gas_S0_finalOpt.xtbopt.xyz --gfn 2 --spinpol --tblite --uhf 2 --ohess vtight --parallel 40 --molden --ceasefiles --namespace data2507/gas/TRZ-3SO2/TRZ-3SO2_gas_T1_preOpt
 * total energy  :  -140.0216830 Eh     change        0.2792518E-08 Eh
 * total energy  :  -140.0240916 Eh     change       -0.2408601E-02 Eh
 * total energy  :  -140.0251284 Eh     change       -0.1036831E-02 Eh
 * total energy  :  -140.0251609 Eh     change       -0.3246711E-04 Eh
 * total energy  :  -140.0252079 Eh     change       -0.4702736E-04 Eh
 * total energy  :  -140.0252533 Eh     change       -0.4541785E-04 Eh
 * total energy  :  -140.0253528 Eh     change       -0.9948171E-04 Eh
 * total energy  :  -140.0254380 Eh     change       -0.8518139E-04 Eh
 * total energy  :  -140.0255826 Eh     change       -0.1446165E-03 Eh
 * total energy  :  -140.0256466 Eh     change       -0.6398009E-04 Eh
 * total energy  :  -140.0257773 Eh     change       -0.5344652E-06 Eh
 * total energy  :  -140.0257777 Eh     change       -0.3755816E-06 Eh
 * total energy  :  -140.0257776 Eh     change        0.1424846E-07 Eh
 * total energy  :  -140.0257779 Eh     change       -0.2423022E-06 Eh
 * total energy  :  -140.0257780 Eh     change       -0.1537631E-06 Eh
 * total energy  :  -140.0257780 Eh     change        0.1381508E-07 Eh
 * total energy  :  -140.0257782 Eh     change       -0.1394720E-06 Eh
 * total energy  :  -140.0257783 Eh     change       -0.1461858E-06 Eh
 * total energy  :  -140.0257784 Eh     change       -0.8812978E-07 Eh
   *** GEOMETRY OPTIMIZATION CONVERGED AFTER 41 ITERATIONS ***

 final structure:
================
78
 xtb: 6.7.1 (edcfbbe)
O           -3.44377277236335        2.80437631969589       -1.57973992300937
S           -2.90288608693671        3.53416498096687       -0.46038688078127
O           -3.08042260573558        4.96179500873169       -0.43211830818668
C           -3.53742603957348        2.81196045828311        1.05633800025070
C           -3.91568286136004        1.48354872589071        1.05491263751279
C           -4.34224187890008        0.89457682436571        2.23455911495383
C           -4.38108479239988        1.65123847223511        3.39646645827782
C           -4.00324956183300        2.98562257745825        3.38581324276019
C           -3.57080016808703        3.57300735394052        2.20770216836249
C           -1.14453852649395        3.15864143830489       -0.33827055852249
C           -0.19274827744952        4.16003636416893       -0.25516077401050
C            1.14649321605425        3.79849254648740       -0.13475256633271
C            1.51635752806215        2.47174670854928       -0.07860983575726
C            0.54259888893897        1.46102289562911       -0.14758460946106
C            0.86293938500165        0.07044980267822       -0.07299693522041
N           -0.16789631922755       -0.83860698823350       -0.09029648779873
C            0.11595372806362       -2.12303600751009       -0.04968628829425
C           -1.01569184897297       -3.05497245867744       -0.09237717429810
C           -0.82499369411788       -4.41335357627941       -0.33896252585217
C           -1.91230038445463       -5.26469865759523       -0.42441846076573
C           -3.19881874083273       -4.76724937076498       -0.27176253836633
C           -3.37706718081513       -3.42075829858103       -0.01387422384389
S           -5.04351791633070       -2.76614758679385        0.22849315992768
O           -5.10980853213629       -2.22733696739900        1.56488092951976
O           -5.98393134284250       -3.79748426347892       -0.11721412147931
C           -5.20352345837431       -1.38898862864116       -0.91841178885807
C           -4.41735827639712       -1.30278816603259       -2.05094839860555
C           -4.55405721795051       -0.20271416376851       -2.88365805826410
C           -5.47731361144518        0.78638548632578       -2.58462812475068
C           -6.27593312640238        0.67677241940308       -1.45753792902051
C           -6.13708117692989       -0.41535578072534       -0.61623868541830
C           -2.30666260912329       -2.56034556232620        0.08727780611321
N            1.34415543737111       -2.59255026316103        0.00627281115483
C            2.36407438958075       -1.66835144787127        0.04759267536520
C            3.72470606056494       -2.11100208843748        0.11851980053591
C            4.07368388513934       -3.46952912229724        0.09897236467618
C            5.39896841150410       -3.85004161938289        0.14106705901050
C            6.40708851173720       -2.89454264188966        0.20265030857438
C            6.05570388423651       -1.55461111115012        0.23314808428810
S            7.35936553323276       -0.30786412850187        0.35253990135305
O            8.42768922631668       -0.69052937369675       -0.53141546750917
O            7.67156444083857       -0.11969538301332        1.74461586893700
C            6.56801214502159        1.18323395639887       -0.27252980305501
C            6.45659027873567        1.35736571098926       -1.63799942157102
C            5.77603708420126        2.46310044991585       -2.12135936105978
C            5.21347081631365        3.36980049643765       -1.23581123651015
C            5.33970274288775        3.18727042328580        0.13295480425141
C            6.02232566551139        2.08458601356517        0.62110521508044
C            4.74733178971563       -1.15133392347853        0.19808653104193
N            2.09935446845029       -0.37468106696933        0.00791864572890
C           -0.80310672430800        1.83230228960701       -0.28911868856968
H           -3.89703730683767        0.93797763420240        0.12485947691851
H           -4.64184721639614       -0.14354662575558        2.24435446925231
H           -4.71410594232780        1.19629157714534        4.31717556498237
H           -4.04424354360959        3.56815368899641        4.29383887141254
H           -3.27586999137173        4.60952578651741        2.16053659890401
H           -0.50766014447398        5.19003450124321       -0.29415031152111
H            1.90142436560723        4.56839760130160       -0.08011737826599
H            2.55376679978388        2.18907068262679        0.01915108307422
H            0.18089843071921       -4.78161174704818       -0.46868468185483
H           -1.76065170617834       -6.31575807511696       -0.61670765583512
H           -4.07038069244309       -5.39853592495409       -0.34726060787932
H           -3.70340755258131       -2.08133984489929       -2.27605625098500
H           -3.93336870897817       -0.11387184346273       -3.76159259589783
H           -5.56405456208706        1.64899689161789       -3.22483046243272
H           -6.99534001557936        1.44652202231148       -1.22552179145934
H           -6.72772986981116       -0.52041832931666        0.28018175703257
H           -2.46129091251085       -1.51471380454113        0.30471346688357
H            3.28581221103296       -4.20478655398907        0.04728599870121
H            5.65871228941734       -4.89773532200738        0.12303242093495
H            7.44962107128758       -3.16643561846819        0.22291622659235
H            6.90954037961359        0.63356169832527       -2.29704831030449
H            5.68104386510301        2.61620023636002       -3.18546938473056
H            4.67632570429853        4.22583683822429       -1.61624987802690
H            4.90690352087545        3.89994936289836        0.81888414693402
H            6.14537793431597        1.90825512355307        1.67833004471906
H            4.47565917219043       -0.10801425217509        0.22655334822698
H           -1.55694532613748        1.06614943687581       -0.37015833741730

 projected vibrational frequencies (cm⁻¹)
eigval :       -0.00    -0.00     0.00     0.00     0.00     0.00
eigval :        8.22     9.57    13.40    17.09    21.74    23.41
eigval :       27.61    32.59    33.97    37.43    43.49    45.65
eigval :       47.34    54.77    70.50    85.76    87.34    88.26
eigval :       96.37   108.24   117.27   119.48   130.74   136.90
eigval :      143.74   150.72   178.79   187.12   187.69   207.72
eigval :      213.04   226.76   230.77   234.40   237.98   253.02
eigval :      262.41   265.83   269.39   279.01   283.79   291.27
eigval :      298.05   311.43   311.78   329.48   351.63   364.53
eigval :      364.64   368.47   374.07   378.79   381.04   394.02
eigval :      399.03   409.85   427.10   433.68   464.10   467.67
eigval :      476.17   497.20   501.84   505.15   509.01   518.93
eigval :      527.11   534.07   540.00   550.87   557.80   584.07
eigval :      584.21   585.35   590.33   616.90   627.28   640.39
eigval :      644.25   653.50   655.01   655.34   657.79   659.29
eigval :      659.57   676.09   682.26   686.91   693.36   725.08
eigval :      742.30   745.63   753.40   760.94   778.50   781.54
eigval :      800.35   849.77   852.12   853.11   860.64   875.03
eigval :      877.35   880.51   882.51   885.04   890.17   901.24
eigval :      907.65   911.66   912.30   917.37   917.61   924.58
eigval :      926.59   928.61   929.92   930.91   932.32   951.13
eigval :      957.78   964.23   965.62   966.53   974.34   976.32
eigval :      983.57  1050.16  1068.16  1069.97  1073.45  1084.57
eigval :     1087.98  1090.82  1092.36  1095.68  1098.12  1099.80
eigval :     1101.67  1103.53  1105.08  1106.16  1109.42  1117.67
eigval :     1122.86  1123.65  1126.98  1140.56  1160.97  1164.17
eigval :     1166.27  1175.81  1176.36  1177.05  1178.50  1182.05
eigval :     1184.08  1198.79  1216.64  1227.69  1228.59  1233.68
eigval :     1236.45  1237.30  1258.02  1260.77  1261.29  1262.86
eigval :     1317.67  1318.82  1318.92  1322.93  1324.38  1327.05
eigval :     1339.76  1367.07  1378.07  1410.45  1417.94  1419.84
eigval :     1425.19  1428.02  1429.17  1429.40  1442.50  1443.00
eigval :     1443.72  1447.22  1473.79  1515.04  1520.11  1556.10
eigval :     1566.89  1570.59  1572.27  1572.80  1573.67  1586.02
eigval :     1594.92  1595.41  1595.49  3080.82  3083.47  3084.39
eigval :     3085.24  3088.51  3090.76  3091.02  3093.50  3094.83
eigval :     3096.17  3096.94  3098.02  3098.53  3099.93  3101.33
eigval :     3102.32  3104.80  3105.53  3106.16  3106.61  3107.18
eigval :     3107.95  3108.69  3109.86  3114.68  3116.64  3119.34

   temp. (K)  partition function   enthalpy   heat capacity  entropy
                                   cal/mol     cal/K/mol   cal/K/mol   J/K/mol
 298.15  VIB  0.121E+24            27048.014    158.036    172.420
         ROT  0.110E+09              888.752      2.981     39.769
         INT  0.132E+32            27936.766    161.017    212.190
         TR   0.191E+29             1481.254      4.968     45.622
         TOT                       29418.0202   165.9848   257.8116  1078.6839

       T/K    H(0)-H(T)+PV         H(T)/Eh          T*S/Eh         G(T)/Eh
   ------------------------------------------------------------------------
    298.15    0.468806E-01    0.598716E+00    0.122495E+00    0.476221E+00
   ------------------------------------------------------------------------

         :::::::::::::::::::::::::::::::::::::::::::::::::::::
         ::                  THERMODYNAMIC                  ::
         :::::::::::::::::::::::::::::::::::::::::::::::::::::
         :: total free energy        -139.549556976409 Eh   ::
         ::.................................................::
         :: total energy             -140.025778446285 Eh   ::
         :: zero point energy           0.551835494806 Eh   ::
         :: G(RRHO) w/o ZPVE           -0.075614024930 Eh   ::
         :: G(RRHO) contrib.            0.476221469876 Eh   ::
         :::::::::::::::::::::::::::::::::::::::::::::::::::::

           -------------------------------------------------
          | TOTAL ENERGY             -140.025778446285 Eh   |
          | TOTAL ENTHALPY           -139.427062352181 Eh   |
          | TOTAL FREE ENERGY        -139.549556976409 Eh   |
          | GRADIENT NORM               0.000130148526 Eh/α |
           -------------------------------------------------

 * finished run on 2025/09/04 at 01:01:48.164
