   * xtb version 6.7.1 (edcfbbe) compiled by 'albert@albert-system' on 2024-07-22

   ID    Z sym.   atoms
    1    6 C      1-8, 10, 12-18, 20-32, 34-39, 41-55
    2    7 N      9, 19, 40
    3    8 O      11, 56
    4   16 S      33
    5    1 H      57-97

          program call               : xtb data2507/toluene/m-PCzTPD/m-PCzTPD_toluene_S0_crest.xyz --gfn 2 --gbsa toluene --ohess vtight --parallel 40 --molden --ceasefiles --namespace data2507/toluene/m-PCzTPD/m-PCzTPD_toluene_S0_finalOpt
      * Solvation model:               GBSA
        Solvent                        toluene
        Solvent mass                       9.2140E+01 g/mol
          :  Hamiltonian                  GFN2-xTB          :
 * total energy  :  -148.3305342 Eh     change       -0.5661406E-08 Eh
 * total energy  :  -148.3307752 Eh     change       -0.2409691E-03 Eh
 * total energy  :  -148.3309095 Eh     change       -0.1343383E-03 Eh
 * total energy  :  -148.3309576 Eh     change       -0.4807370E-04 Eh
 * total energy  :  -148.3310201 Eh     change       -0.6252099E-04 Eh
 * total energy  :  -148.3310635 Eh     change       -0.4339120E-04 Eh
 * total energy  :  -148.3311166 Eh     change       -0.5308757E-04 Eh
 * total energy  :  -148.3311563 Eh     change       -0.3972660E-04 Eh
 * total energy  :  -148.3312317 Eh     change       -0.7542334E-04 Eh
 * total energy  :  -148.3312828 Eh     change       -0.5106192E-04 Eh
 * total energy  :  -148.3315599 Eh     change       -0.8097429E-06 Eh
 * total energy  :  -148.3315608 Eh     change       -0.8535621E-06 Eh
 * total energy  :  -148.3315614 Eh     change       -0.6525070E-06 Eh
 * total energy  :  -148.3315619 Eh     change       -0.4373219E-06 Eh
 * total energy  :  -148.3315622 Eh     change       -0.3010652E-06 Eh
 * total energy  :  -148.3315624 Eh     change       -0.2774283E-06 Eh
 * total energy  :  -148.3315628 Eh     change       -0.3259637E-06 Eh
 * total energy  :  -148.3315632 Eh     change       -0.4128293E-06 Eh
 * total energy  :  -148.3315632 Eh     change       -0.2891170E-08 Eh
   *** GEOMETRY OPTIMIZATION CONVERGED AFTER 68 ITERATIONS ***

 final structure:
================
97
 xtb: 6.7.1 (edcfbbe)
C           -1.12143424634442       -0.74551271792166        4.09719823499389
C           -1.52201676287452        0.44818047933405        3.23862484000583
C           -0.31226526959790        1.27268990387534        2.80294357310187
C           -0.70920595265214        2.45270763068721        1.91752780928276
C            0.51158333198493        3.18257722196307        1.36063115513337
C            0.17677518313565        4.32093772593300        0.39327826823776
C           -0.62843337650911        3.93630026476130       -0.85124231552418
C            0.06040307038145        2.94907264837448       -1.79867423392431
N            0.05805937953126        1.58817444784391       -1.30167572453367
C           -1.10009060645009        0.85853180166269       -1.08571672939330
O           -2.20930862132792        1.25849381167324       -1.37391502647791
C           -0.65748619124098       -0.41524976399622       -0.50361530546808
C           -1.22547169242116       -1.55429208295930        0.01524408147031
C           -2.60123542251067       -1.95234720991010        0.22689514182760
C           -2.89006834984264       -3.18498623641136        0.82394405769666
C           -4.19758497753262       -3.56028004526019        1.05785886120449
C           -5.24287601018715       -2.72000294802995        0.71509613172133
C           -4.97149722756104       -1.49483950845400        0.10893645122783
N           -6.01848734340334       -0.63486369321130       -0.24447059640053
C           -6.09256238245224        0.71341232078067        0.05296560956877
C           -5.22213377280268        1.50816847791085        0.78497098962038
C           -5.55262660078851        2.83848449993813        0.95847995296499
C           -6.72662865419577        3.37184403344597        0.43046908932243
C           -7.61085360412766        2.57978623541006       -0.27447297599061
C           -7.29849036241055        1.23959723685747       -0.46412346959372
C           -7.97546950120301        0.15097105682573       -1.11275976358944
C           -9.17537282985714        0.04933400843494       -1.80517059600665
C           -9.53111757754836       -1.17391544157051       -2.33819045292238
C           -8.69859995805402       -2.28288484458122       -2.20209765743777
C           -7.50080736336300       -2.20654756273014       -1.51655417286350
C           -7.15128262061016       -0.98689251071669       -0.95399229114728
C           -3.65771381193669       -1.11840926289884       -0.14143814650162
S            0.05252151876747       -2.62998408539193        0.52750123190734
C            1.33539476751542       -1.54121963808049        0.05650525366137
C            2.70846006224517       -1.93600983324850        0.29165412259176
C            2.99310045506301       -3.20291639804957        0.81501835663028
C            4.29782561655843       -3.58626413920973        1.05190901152911
C            5.34476541559735       -2.71990238999750        0.78780069157724
C            5.07722062660741       -1.45738956183870        0.26252541927489
N            6.12441906988159       -0.56670391309046       -0.00474487516530
C            6.18367256331426        0.75272066787737        0.40292759311028
C            5.30139325209632        1.47423163630727        1.19404429134890
C            5.61949405580767        2.78726150810798        1.48369805549889
C            6.79283496976951        3.37281485930647        1.01237507138805
C            7.68828296120371        2.65155690108553        0.24796390629574
C            7.38871780327293        1.33012918739812       -0.05840345843148
C            8.08075005181999        0.30403570947708       -0.78832234157999
C            9.28673824067592        0.26909207140868       -1.47675668664056
C            9.65853103508314       -0.90439898151699       -2.10268311260956
C            8.83705786720247       -2.02905973304555       -2.06114778342787
C            7.63325739041515       -2.01890837228595       -1.38196285930619
C            7.26627916794069       -0.85037861220556       -0.72939842938813
C            3.76683169978046       -1.07208711829195        0.00774556531296
C            0.77195694879804       -0.40442947790471       -0.47403530720497
C            1.21872251795473        0.88290113192047       -1.01955874396152
O            2.33253781292766        1.31884847251029       -1.22547708492778
H           -0.43846970713422       -1.39449745057236        3.55294362139240
H           -1.99825678942030       -1.32488715286993        4.37712125540032
H           -0.62432427821199       -0.41083347943302        5.00518066814522
H           -2.20954946112873        1.08608351240666        3.79904985400387
H           -2.05183817011896        0.09395766876009        2.34976704357552
H            0.38010651756389        0.62901567571895        2.25197094891552
H            0.21655367219069        1.63977251149457        3.68564787987820
H           -1.32002145194545        3.15288811960516        2.49204958708807
H           -1.32719082125197        2.07822362659489        1.09908674084770
H            1.17139548501916        2.46675348451189        0.86805732355501
H            1.07681870982543        3.60497225469832        2.19590059755319
H           -0.39366740178813        5.08123481425148        0.93266810319693
H            1.11618270821238        4.77799766576389        0.07139349668700
H           -0.81231536203055        4.84820606093668       -1.42316283797358
H           -1.60143416677988        3.53232810568958       -0.56944272038328
H           -0.46167076107009        2.95731942921546       -2.76144206469263
H            1.10795643596939        3.22037547318773       -1.95261304697866
H           -2.08313263511233       -3.84237325686244        1.10988468715658
H           -4.40649360642981       -4.51070939322331        1.52475256133591
H           -6.26377993115594       -2.99823369704694        0.92649944242905
H           -4.31633800013894        1.10457909328604        1.21043056865018
H           -4.88711139282289        3.47903640766333        1.51875265088555
H           -6.94805081501425        4.41783172722476        0.58491259148904
H           -8.52847947816557        2.98896924886227       -0.67013466091183
H           -9.81146674428761        0.91343525650842       -1.92648068765184
H          -10.46150811277921       -1.27464260119184       -2.87759549354940
H           -8.99385057989882       -3.22256576141407       -2.64583114754493
H           -6.85554851057295       -3.06814365915217       -1.43486706554217
H           -3.46617063532104       -0.17936875423199       -0.63290833931762
H            2.18523757064913       -3.88436816794760        1.03469653683134
H            4.50280170289862       -4.56503650338262        1.45792523965671
H            6.36326818614519       -3.00719701847479        0.99886189168148
H            4.39715245345666        1.02692564794668        1.57786454177665
H            4.94430010193462        3.37164192191693        2.09184336053189
H            7.00474044488716        4.40304354795260        1.25878622832879
H            8.60560502032200        3.10021120646763       -0.10320741861685
H            9.91541007865102        1.14577921321419       -1.52310044089511
H           10.59359618719757       -0.95270489697974       -2.64129625089263
H            9.14599221360992       -2.92808398997063       -2.57440688485457
H            6.99654920504969       -2.89067149713970       -1.37260662713069
H            3.58037745698228       -0.10221109737618       -0.42182011452432

          :  Hamiltonian                  GFN2-xTB          :
         :: gradient norm              0.000037612861 Eh/a0 ::
         :: HOMO-LUMO gap              1.413154004065 eV    ::
         :: SCC energy              -150.836990686703 Eh    ::
         :: -> dispersion             -0.138757539414 Eh    ::
         :: -> Gsolv                  -0.060334422757 Eh    ::
         :: repulsion energy           2.505427511047 Eh    ::

    * Orbital Energies and Occupations

         #    Occupation            Energy/Eh            Energy/eV
      -------------------------------------------------------------
         1        2.0000           -0.7548930             -20.5417
       ...           ...                  ...                  ...
       125        2.0000           -0.4194372             -11.4135
       126        2.0000           -0.4177759             -11.3683
       127        2.0000           -0.4175241             -11.3614
       128        2.0000           -0.4173764             -11.3574
       129        2.0000           -0.4172023             -11.3527
       130        2.0000           -0.4148686             -11.2891
       131        2.0000           -0.4051884             -11.0257
       132        2.0000           -0.4050596             -11.0222
       133        2.0000           -0.3963753             -10.7859
       134        2.0000           -0.3786237             -10.3029
       135        2.0000           -0.3785221             -10.3001
       136        2.0000           -0.3640179              -9.9054
       137        2.0000           -0.3638589              -9.9011 (HOMO)
       138                         -0.3119264              -8.4879 (LUMO)
       139                         -0.3047900              -8.2938
       140                         -0.2475500              -6.7362
       141                         -0.2472094              -6.7269
       142                         -0.2396648              -6.5216
       143                         -0.2392031              -6.5090
       144                         -0.2339466              -6.3660
       145                         -0.2285878              -6.2202
       146                         -0.2227519              -6.0614
       147                         -0.2219133              -6.0386
       148                         -0.2217722              -6.0347
       ...                                ...                  ...
       270                          0.7445587              20.2605
      -------------------------------------------------------------
                  HL-Gap            0.0519325 Eh            1.4132 eV

     #   Z          covCN         q      C6AA      α(0)
     1   6 C        3.752    -0.103    22.528     6.769
     2   6 C        3.801    -0.049    21.446     6.593
     3   6 C        3.803    -0.055    21.555     6.610
     4   6 C        3.802    -0.054    21.551     6.609
     5   6 C        3.801    -0.053    21.534     6.607
     6   6 C        3.800    -0.059    21.645     6.624
     7   6 C        3.800    -0.063    21.703     6.633
     8   6 C        3.739     0.012    20.447     6.452
     9   7 N        2.799    -0.111    23.424     7.188
    10   6 C        2.827     0.285    22.172     7.716
    11   8 O        0.857    -0.429    22.266     6.327
    12   6 C        3.238    -0.053    28.373     8.640
    13   6 C        2.976     0.035    27.206     8.556
    14   6 C        3.005     0.013    27.706     8.634
    15   6 C        2.926    -0.035    28.867     8.811
    16   6 C        2.917    -0.024    28.608     8.771
    17   6 C        2.921    -0.038    28.946     8.823
    18   6 C        2.910     0.070    26.442     8.432
    19   7 N        2.802    -0.045    22.112     6.984
    20   6 C        3.073     0.049    26.825     8.492
    21   6 C        2.910    -0.047    29.175     8.857
    22   6 C        2.924    -0.034    28.841     8.807
    23   6 C        2.920    -0.042    29.048     8.838
    24   6 C        2.912    -0.035    28.870     8.811
    25   6 C        3.067    -0.018    28.382     8.736
    26   6 C        3.067    -0.018    28.377     8.735
    27   6 C        2.912    -0.035    28.860     8.809
    28   6 C        2.919    -0.042    29.051     8.839
    29   6 C        2.924    -0.035    28.870     8.811
    30   6 C        2.910    -0.052    29.302     8.876
    31   6 C        3.073     0.047    26.870     8.499
    32   6 C        2.927    -0.051    29.267     8.872
    33  16 S        2.423     0.029   139.893    19.907
    34   6 C        2.976     0.033    27.265     8.565
    35   6 C        3.005     0.012    27.730     8.638
    36   6 C        2.926    -0.036    28.884     8.814
    37   6 C        2.917    -0.024    28.610     8.771
    38   6 C        2.921    -0.038    28.941     8.822
    39   6 C        2.911     0.070    26.440     8.432
    40   7 N        2.803    -0.045    22.113     6.984
    41   6 C        3.073     0.049    26.826     8.492
    42   6 C        2.910    -0.048    29.191     8.859
    43   6 C        2.924    -0.034    28.845     8.808
    44   6 C        2.920    -0.042    29.049     8.838
    45   6 C        2.912    -0.035    28.869     8.810
    46   6 C        3.067    -0.018    28.382     8.736
    47   6 C        3.067    -0.018    28.378     8.735
    48   6 C        2.912    -0.035    28.859     8.809
    49   6 C        2.919    -0.042    29.051     8.839
    50   6 C        2.924    -0.035    28.868     8.811
    51   6 C        2.910    -0.052    29.301     8.876
    52   6 C        3.073     0.047    26.868     8.499
    53   6 C        2.927    -0.051    29.254     8.870
    54   6 C        3.237    -0.054    28.410     8.646
    55   6 C        2.827     0.284    22.202     7.721
    56   8 O        0.857    -0.430    22.292     6.330
    57   1 H        0.925     0.035     2.517     2.481
    58   1 H        0.925     0.038     2.478     2.462
    59   1 H        0.925     0.038     2.482     2.464
    60   1 H        0.924     0.031     2.573     2.508
    61   1 H        0.924     0.018     2.771     2.603
    62   1 H        0.924     0.016     2.790     2.612
    63   1 H        0.924     0.033     2.539     2.492
    64   1 H        0.924     0.033     2.542     2.494
    65   1 H        0.924     0.019     2.747     2.592
    66   1 H        0.924     0.020     2.728     2.583
    67   1 H        0.924     0.033     2.539     2.492
    68   1 H        0.924     0.041     2.433     2.440
    69   1 H        0.924     0.038     2.475     2.460
    70   1 H        0.924     0.049     2.328     2.386
    71   1 H        0.924     0.053     2.287     2.365
    72   1 H        0.924     0.052     2.299     2.371
    73   1 H        0.924     0.069     2.102     2.267
    74   1 H        0.926     0.061     2.190     2.314
    75   1 H        0.926     0.055     2.260     2.351
    76   1 H        0.926     0.054     2.274     2.358
    77   1 H        0.926     0.027     2.629     2.535
    78   1 H        0.926     0.029     2.595     2.519
    79   1 H        0.926     0.029     2.601     2.522
    80   1 H        0.926     0.032     2.564     2.504
    81   1 H        0.926     0.031     2.570     2.507
    82   1 H        0.926     0.029     2.600     2.521
    83   1 H        0.926     0.032     2.562     2.503
    84   1 H        0.926     0.032     2.564     2.504
    85   1 H        0.926     0.073     2.053     2.241
    86   1 H        0.926     0.060     2.194     2.317
    87   1 H        0.926     0.055     2.255     2.348
    88   1 H        0.926     0.054     2.269     2.356
    89   1 H        0.926     0.027     2.635     2.539
    90   1 H        0.926     0.030     2.591     2.517
    91   1 H        0.926     0.029     2.600     2.522
    92   1 H        0.926     0.032     2.562     2.503
    93   1 H        0.926     0.031     2.569     2.506
    94   1 H        0.926     0.029     2.599     2.521
    95   1 H        0.926     0.032     2.562     2.503
    96   1 H        0.926     0.031     2.569     2.506
    97   1 H        0.926     0.073     2.052     2.240

molecular dipole:
                 x           y           z       tot (Debye)
 q only:       -0.071      -2.097       1.377
   full:       -0.057      -1.837       1.114       5.464

 projected vibrational frequencies (cm⁻¹)
eigval :       -0.00    -0.00    -0.00    -0.00     0.00     0.00
eigval :        2.11    11.52    17.55    17.85    19.42    26.88
eigval :       29.83    31.52    37.19    47.35    56.06    66.36
eigval :       69.60    72.16    77.74    90.88    93.29    95.43
eigval :      107.95   114.25   119.30   122.19   132.84   141.53
eigval :      146.06   149.34   162.66   169.37   176.79   196.85
eigval :      202.91   213.43   227.49   229.55   239.47   244.09
eigval :      249.33   265.16   269.72   272.35   273.47   274.63
eigval :      295.73   299.15   324.39   328.48   337.18   343.83
eigval :      345.09   368.42   369.41   378.20   395.47   396.38
eigval :      402.02   417.06   422.38   423.45   429.08   435.03
eigval :      437.55   440.26   442.67   478.00   493.70   513.47
eigval :      516.66   518.40   519.38   533.52   536.82   540.84
eigval :      541.12   565.91   567.07   587.89   587.99   595.48
eigval :      601.83   611.50   613.66   630.83   632.01   645.49
eigval :      662.19   662.49   673.61   674.12   690.60   700.79
eigval :      707.56   709.79   710.44   720.26   725.13   754.55
eigval :      756.46   765.64   767.59   768.21   779.19   779.31
eigval :      780.67   783.84   794.35   795.64   795.82   833.67
eigval :      850.93   866.30   866.74   870.01   871.01   887.53
eigval :      889.09   896.72   897.70   898.31   899.18   899.84
eigval :      903.03   903.30   904.01   904.52   908.92   910.50
eigval :      918.51   919.48   920.64   922.59   922.97   930.13
eigval :      930.54   941.84   964.34   982.59   989.96   997.26
eigval :     1003.70  1009.68  1011.99  1015.06  1036.85  1054.63
eigval :     1064.09  1069.32  1070.09  1072.95  1074.11  1077.29
eigval :     1084.16  1100.22  1117.26  1119.11  1120.15  1128.46
eigval :     1132.17  1133.09  1146.95  1151.62  1151.78  1155.28
eigval :     1173.98  1174.95  1180.27  1180.44  1182.95  1183.09
eigval :     1191.16  1191.54  1211.43  1214.65  1230.04  1234.62
eigval :     1235.00  1236.37  1244.70  1256.22  1259.24  1262.17
eigval :     1265.57  1270.58  1275.09  1283.65  1286.29  1293.28
eigval :     1298.55  1299.19  1301.39  1301.69  1313.02  1322.43
eigval :     1323.25  1325.62  1332.13  1342.21  1351.25  1353.67
eigval :     1354.72  1357.07  1357.68  1361.06  1361.07  1362.05
eigval :     1368.21  1378.78  1413.09  1415.25  1415.94  1426.34
eigval :     1426.50  1433.14  1434.99  1435.71  1463.62  1465.12
eigval :     1474.65  1474.73  1479.36  1485.08  1486.65  1486.81
eigval :     1497.03  1498.89  1500.85  1503.41  1504.54  1508.82
eigval :     1528.79  1543.84  1560.96  1561.45  1572.71  1572.82
eigval :     1577.59  1577.88  1587.70  1587.81  1597.62  1597.67
eigval :     1612.59  1612.76  1702.63  1726.28  2940.69  2943.59
eigval :     2953.62  2957.91  2960.87  2969.18  2973.14  2975.16
eigval :     2976.05  2977.37  2984.57  2992.43  3004.91  3011.77
eigval :     3026.33  3030.73  3036.59  3071.34  3071.74  3071.76
eigval :     3072.07  3076.96  3077.61  3077.77  3078.33  3084.85
eigval :     3085.39  3085.81  3086.44  3086.75  3086.93  3091.36
eigval :     3092.09  3093.76  3094.79  3094.94  3095.37  3104.06
eigval :     3104.07  3141.47  3142.43

   temp. (K)  partition function   enthalpy   heat capacity  entropy
                                   cal/mol     cal/K/mol   cal/K/mol   J/K/mol
 298.15  VIB  0.126E+24            28205.987    173.715    178.307
         ROT  0.125E+09              888.752      2.981     40.033
         INT  0.157E+32            29094.739    176.696    218.340
         TR   0.198E+29             1481.254      4.968     45.695
         TOT                       30575.9928   181.6637   264.0349  1104.7219

       T/K    H(0)-H(T)+PV         H(T)/Eh          T*S/Eh         G(T)/Eh
   ------------------------------------------------------------------------
    298.15    0.487259E-01    0.813287E+00    0.125451E+00    0.687836E+00
   ------------------------------------------------------------------------

         :::::::::::::::::::::::::::::::::::::::::::::::::::::
         ::                  THERMODYNAMIC                  ::
         :::::::::::::::::::::::::::::::::::::::::::::::::::::
         :: total free energy        -147.643727445331 Eh   ::
         ::.................................................::
         :: total energy             -148.331563178498 Eh   ::
         :: zero point energy           0.764561276940 Eh   ::
         :: G(RRHO) w/o ZPVE           -0.076725543773 Eh   ::
         :: G(RRHO) contrib.            0.687835733167 Eh   ::
         :::::::::::::::::::::::::::::::::::::::::::::::::::::

           -------------------------------------------------
          | TOTAL ENERGY             -148.331563178498 Eh   |
          | TOTAL ENTHALPY           -147.518275955497 Eh   |
          | TOTAL FREE ENERGY        -147.643727445331 Eh   |
          | GRADIENT NORM               0.000037605905 Eh/α |
          | HOMO-LUMO GAP               1.413155159196 eV   |
           -------------------------------------------------

 * finished run on 2025/08/30 at 03:08:42.613
