   * xtb version 6.7.1 (edcfbbe) compiled by 'albert@albert-system' on 2024-07-22

   ID    Z sym.   atoms
    1    6 C      1-8, 10, 12-18, 20-32, 34-39, 41-55
    2    7 N      9, 19, 40
    3    8 O      11, 56
    4   16 S      33
    5    1 H      57-97

          program call               : xtb data2507/toluene/m-PCzTPD/m-PCzTPD.xyz --gfn 2 --gbsa toluene --ohess vtight --parallel 40 --molden --ceasefiles --namespace data2507/toluene/m-PCzTPD/m-PCzTPD_toluene_S0_preOpt
      * Solvation model:               GBSA
        Solvent                        toluene
        Solvent mass                       9.2140E+01 g/mol
          :  Hamiltonian                  GFN2-xTB          :
 * total energy  :  -148.3044447 Eh     change       -0.1076160E-08 Eh
 * total energy  :  -148.3196447 Eh     change       -0.1519996E-01 Eh
 * total energy  :  -148.3231984 Eh     change       -0.3553750E-02 Eh
 * total energy  :  -148.3239309 Eh     change       -0.7324931E-03 Eh
 * total energy  :  -148.3245792 Eh     change       -0.6482497E-03 Eh
 * total energy  :  -148.3249237 Eh     change       -0.3444965E-03 Eh
 * total energy  :  -148.3252177 Eh     change       -0.2940079E-03 Eh
 * total energy  :  -148.3254430 Eh     change       -0.2252787E-03 Eh
 * total energy  :  -148.3255996 Eh     change       -0.1566238E-03 Eh
 * total energy  :  -148.3257204 Eh     change       -0.1208042E-03 Eh
 * total energy  :  -148.3286449 Eh     change       -0.2943223E-06 Eh
 * total energy  :  -148.3286452 Eh     change       -0.3032572E-06 Eh
 * total energy  :  -148.3286454 Eh     change       -0.2220638E-06 Eh
 * total energy  :  -148.3286455 Eh     change       -0.1376883E-06 Eh
 * total energy  :  -148.3286456 Eh     change       -0.1213870E-06 Eh
 * total energy  :  -148.3286458 Eh     change       -0.1184549E-06 Eh
 * total energy  :  -148.3286459 Eh     change       -0.1347520E-06 Eh
 * total energy  :  -148.3286460 Eh     change       -0.1150691E-06 Eh
 * total energy  :  -148.3286461 Eh     change       -0.9360900E-07 Eh
   *** GEOMETRY OPTIMIZATION CONVERGED AFTER 214 ITERATIONS ***

 final structure:
================
97
 xtb: 6.7.1 (edcfbbe)
C            8.60189141383864        6.48386325814820       -0.72539000286674
C            7.45219662890562        6.72773793955334        0.24584161415553
C            6.31154486156513        5.73224610825270        0.04101723011355
C            5.15876680065739        5.97662089013437        1.01343115355003
C            3.95016098838997        5.07281168446239        0.76204236536682
C            4.23069559706487        3.60041590985714        1.06207461389646
C            2.96986139159790        2.73664969374612        1.06001830137876
C            2.33762583470370        2.63225753901931       -0.32910598133862
N            1.20743967255964        1.72796264717144       -0.33190869625855
C           -0.09867453531876        2.14678675889486       -0.12056811564506
O           -0.40262497044494        3.30384993444643        0.07674998062706
C           -0.91939890116376        0.93125733297888       -0.21313555329343
C           -2.24798378394993        0.57872426587166       -0.17311628765782
C           -3.45637179335143        1.34820186497007        0.03438704433149
C           -3.41617949140795        2.72256960869465        0.28815211811642
C           -4.59136448267996        3.42504172082542        0.48173626064217
C           -5.81871837486943        2.79030441648436        0.41805763663834
C           -5.87342396245002        1.41880237749597        0.17198603353446
N           -7.10661883207982        0.75924618175463        0.09986333283940
C           -7.51272597904882       -0.08246756480305       -0.91927488775126
C           -6.85582877960911       -0.43742334141459       -2.08916060232645
C           -7.50891181720413       -1.28406179430243       -2.96500545312805
C           -8.78926872255106       -1.76332895599552       -2.69573676046914
C           -9.45761984605406       -1.39417990618992       -1.54518204126466
C           -8.82150896318890       -0.54403439167034       -0.64932215455345
C           -9.21488241952704        0.04814385554918        0.59939213040276
C          -10.36188779275363       -0.03865887086889        1.37814789925738
C          -10.40878070612283        0.66072780869984        2.56789809261756
C           -9.32445007522485        1.42664161091825        2.99140409143315
C           -8.17266474124533        1.52831182091752        2.23403047124078
C           -8.12962003669198        0.84808595497806        1.02515762494091
C           -4.69685595775221        0.70651716220776       -0.00978214327330
S           -2.37835207754529       -1.14609708329528       -0.44884897616157
C           -0.65604193103341       -1.37573796049981       -0.60801179301457
C           -0.13441804139859       -2.70344735911761       -0.86055931491391
C           -0.95347730005572       -3.66593907543602       -1.45809239317831
C           -0.47008331975182       -4.93634758164438       -1.70113081247674
C            0.82208583577371       -5.27390749556056       -1.34095483587783
C            1.64076584626730       -4.33256652404495       -0.71697524878129
N            2.93027557575336       -4.69834975193365       -0.31198345120480
C            4.10370048662325       -4.01147245623362       -0.57060431139327
C            4.30585302390078       -2.83497267629746       -1.27742446668551
C            5.60293266123120       -2.37550087411644       -1.40680465684280
C            6.68156916617915       -3.06946333760552       -0.86249491927379
C            6.48880782911268       -4.25236845251131       -0.17722038196460
C            5.19354800932032       -4.73240096705448       -0.03044455645254
C            4.64337902258217       -5.90293488404362        0.59456139794173
C            5.20398632039795       -6.96199292661612        1.29727733959543
C            4.36809775538580       -7.93775859369807        1.80324733192550
C            2.98811929042734       -7.85672928096116        1.62949172933554
C            2.40793150832649       -6.81312148217752        0.93310693885552
C            3.24493853599611       -5.84408300526044        0.39711568164581
C            1.16438588155612       -3.04735021585545       -0.48472169614568
C           -0.03394068281012       -0.16448429060280       -0.45139578210402
C            1.33193833037279        0.36065698552800       -0.53527408853878
O            2.38441782993661       -0.19788108915554       -0.75298931138798
H            9.40169102995191        7.20285422097789       -0.56108594683342
H            8.25948051364204        6.58055067107242       -1.75390304829606
H            9.00764702850933        5.48277453817607       -0.59309677852688
H            7.07371982003908        7.74402808239237        0.11051426302652
H            7.82074303659464        6.64669074557514        1.27145196377612
H            6.69809767955790        4.72029659118613        0.17362365785074
H            5.94147232399117        5.81674114447734       -0.98394897614227
H            4.83816406510383        7.01760990062798        0.92041284380203
H            5.51199219357874        5.83201427294880        2.03734235338746
H            3.63534735097893        5.18705963663685       -0.27678150796081
H            3.12639843078328        5.40785419984951        1.39749519959423
H            4.93429217348112        3.19720951277013        0.33219432491222
H            4.69336466699300        3.52497222018101        2.04880885187127
H            2.23469587004735        3.15055616751522        1.75455879127949
H            3.22662858931406        1.72846768132782        1.39632415902254
H            1.96919183214364        3.60546690961880       -0.65890411717607
H            3.06802952776948        2.24525326024308       -1.04460249095629
H           -2.47105863943973        3.23643024645837        0.32940139614714
H           -4.54810454824712        4.48660527149924        0.67289263440387
H           -6.73410678686561        3.34824457240698        0.54205802532154
H           -5.87203595996727       -0.05706642768643       -2.31864386900568
H           -7.01722622653696       -1.57686655102802       -3.88125975884852
H           -9.26549577233916       -2.42517724749585       -3.40423390095661
H          -10.45654300056219       -1.75184257142632       -1.34488448888303
H          -11.19575589955784       -0.64541258825775        1.05809407706026
H          -11.29267290488760        0.60893872392947        3.18669401100032
H           -9.38389406925380        1.95005679673596        3.93461710025414
H           -7.33197264899227        2.11022906224487        2.58082455793004
H           -4.74763890936056       -0.35911240040991       -0.17751400915997
H           -1.96166130752518       -3.40501559104803       -1.74255833550419
H           -1.10145708052456       -5.66896618791027       -2.18018368262157
H            1.20856837871842       -6.25992864252796       -1.54820468163359
H            3.48422872000430       -2.28218878660108       -1.70369858130103
H            5.78139338234476       -1.45547620961616       -1.94401046623047
H            7.68021049771547       -2.67588628177658       -0.98486682632208
H            7.32421182141148       -4.79777863669664        0.23606105612026
H            6.27210301830297       -7.01383701601920        1.44721913027014
H            4.78422100283065       -8.77090346204648        2.35048550062375
H            2.35639520758253       -8.62434843871115        2.05231752340206
H            1.33574442661173       -6.75279873861438        0.82329718039102
H            1.79735138506360       -2.32367379375413        0.00212312661550

          :  Hamiltonian                  GFN2-xTB          :
         :: gradient norm              0.000036985893 Eh/a0 ::
         :: HOMO-LUMO gap              1.416054756161 eV    ::
         :: SCC energy              -150.835743038746 Eh    ::
         :: -> dispersion             -0.127255236232 Eh    ::
         :: -> Gsolv                  -0.063488431948 Eh    ::
         :: repulsion energy           2.507096935043 Eh    ::

    * Orbital Energies and Occupations

         #    Occupation            Energy/Eh            Energy/eV
      -------------------------------------------------------------
         1        2.0000           -0.7554429             -20.5566
       ...           ...                  ...                  ...
       125        2.0000           -0.4182195             -11.3803
       126        2.0000           -0.4180072             -11.3746
       127        2.0000           -0.4173111             -11.3556
       128        2.0000           -0.4168863             -11.3441
       129        2.0000           -0.4161066             -11.3228
       130        2.0000           -0.4154454             -11.3048
       131        2.0000           -0.4061955             -11.0531
       132        2.0000           -0.4045137             -11.0074
       133        2.0000           -0.3973936             -10.8136
       134        2.0000           -0.3796445             -10.3307
       135        2.0000           -0.3778608             -10.2821
       136        2.0000           -0.3651070              -9.9351
       137        2.0000           -0.3635832              -9.8936 (HOMO)
       138                         -0.3115441              -8.4775 (LUMO)
       139                         -0.3036298              -8.2622
       140                         -0.2482217              -6.7545
       141                         -0.2476630              -6.7393
       142                         -0.2401099              -6.5337
       143                         -0.2397521              -6.5240
       144                         -0.2369382              -6.4474
       145                         -0.2280770              -6.2063
       146                         -0.2234269              -6.0798
       147                         -0.2229827              -6.0677
       148                         -0.2211145              -6.0168
       ...                                ...                  ...
       270                          0.7449659              20.2716
      -------------------------------------------------------------
                  HL-Gap            0.0520391 Eh            1.4161 eV

     #   Z          covCN         q      C6AA      α(0)
     1   6 C        3.752    -0.102    22.509     6.766
     2   6 C        3.801    -0.053    21.532     6.607
     3   6 C        3.802    -0.060    21.661     6.626
     4   6 C        3.802    -0.059    21.636     6.622
     5   6 C        3.801    -0.060    21.656     6.626
     6   6 C        3.802    -0.060    21.662     6.626
     7   6 C        3.802    -0.057    21.606     6.618
     8   6 C        3.741     0.011    20.471     6.455
     9   7 N        2.802    -0.118    23.572     7.211
    10   6 C        2.826     0.281    22.254     7.730
    11   8 O        0.857    -0.422    22.125     6.306
    12   6 C        3.228    -0.056    28.542     8.677
    13   6 C        2.978     0.035    27.222     8.558
    14   6 C        3.003     0.014    27.696     8.633
    15   6 C        2.922    -0.039    28.963     8.826
    16   6 C        2.918    -0.023    28.586     8.768
    17   6 C        2.921    -0.037    28.921     8.819
    18   6 C        2.910     0.070    26.443     8.432
    19   7 N        2.802    -0.043    22.067     6.977
    20   6 C        3.072     0.046    26.903     8.504
    21   6 C        2.910    -0.052    29.292     8.875
    22   6 C        2.924    -0.034    28.850     8.808
    23   6 C        2.920    -0.042    29.035     8.836
    24   6 C        2.912    -0.034    28.847     8.807
    25   6 C        3.067    -0.017    28.364     8.733
    26   6 C        3.067    -0.017    28.370     8.734
    27   6 C        2.912    -0.034    28.850     8.808
    28   6 C        2.920    -0.042    29.040     8.837
    29   6 C        2.924    -0.034    28.855     8.809
    30   6 C        2.910    -0.052    29.287     8.874
    31   6 C        3.072     0.046    26.891     8.503
    32   6 C        2.931    -0.047    29.156     8.855
    33  16 S        2.415     0.026   139.986    19.913
    34   6 C        2.977     0.035    27.214     8.557
    35   6 C        3.004     0.013    27.713     8.635
    36   6 C        2.925    -0.035    28.874     8.812
    37   6 C        2.916    -0.024    28.605     8.770
    38   6 C        2.923    -0.038    28.950     8.824
    39   6 C        2.910     0.070    26.428     8.430
    40   7 N        2.801    -0.046    22.121     6.985
    41   6 C        3.070     0.048    26.864     8.499
    42   6 C        2.910    -0.049    29.210     8.862
    43   6 C        2.924    -0.033    28.820     8.804
    44   6 C        2.919    -0.042    29.053     8.839
    45   6 C        2.912    -0.036    28.889     8.814
    46   6 C        3.068    -0.018    28.398     8.738
    47   6 C        3.065    -0.017    28.375     8.735
    48   6 C        2.912    -0.035    28.863     8.810
    49   6 C        2.919    -0.042    29.048     8.838
    50   6 C        2.923    -0.035    28.871     8.811
    51   6 C        2.910    -0.052    29.303     8.876
    52   6 C        3.072     0.046    26.889     8.502
    53   6 C        2.925    -0.042    29.046     8.838
    54   6 C        3.247    -0.056    28.337     8.622
    55   6 C        2.823     0.280    22.262     7.731
    56   8 O        0.857    -0.421    22.103     6.303
    57   1 H        0.925     0.033     2.542     2.493
    58   1 H        0.925     0.033     2.540     2.492
    59   1 H        0.925     0.033     2.539     2.492
    60   1 H        0.924     0.028     2.613     2.528
    61   1 H        0.924     0.029     2.608     2.525
    62   1 H        0.924     0.033     2.550     2.497
    63   1 H        0.924     0.030     2.580     2.512
    64   1 H        0.924     0.031     2.566     2.505
    65   1 H        0.924     0.031     2.567     2.506
    66   1 H        0.924     0.032     2.562     2.503
    67   1 H        0.924     0.034     2.532     2.489
    68   1 H        0.924     0.040     2.451     2.448
    69   1 H        0.924     0.043     2.411     2.428
    70   1 H        0.924     0.040     2.448     2.447
    71   1 H        0.924     0.039     2.468     2.457
    72   1 H        0.924     0.065     2.141     2.288
    73   1 H        0.924     0.062     2.178     2.308
    74   1 H        0.926     0.071     2.079     2.255
    75   1 H        0.926     0.052     2.299     2.371
    76   1 H        0.926     0.055     2.264     2.353
    77   1 H        0.926     0.031     2.572     2.508
    78   1 H        0.926     0.032     2.557     2.501
    79   1 H        0.926     0.029     2.596     2.520
    80   1 H        0.926     0.032     2.563     2.503
    81   1 H        0.926     0.032     2.562     2.503
    82   1 H        0.926     0.029     2.605     2.524
    83   1 H        0.926     0.031     2.574     2.509
    84   1 H        0.926     0.031     2.574     2.509
    85   1 H        0.926     0.061     2.184     2.311
    86   1 H        0.926     0.058     2.225     2.333
    87   1 H        0.926     0.055     2.253     2.347
    88   1 H        0.926     0.055     2.259     2.351
    89   1 H        0.926     0.039     2.464     2.455
    90   1 H        0.926     0.029     2.601     2.522
    91   1 H        0.926     0.028     2.615     2.529
    92   1 H        0.926     0.031     2.572     2.508
    93   1 H        0.926     0.031     2.571     2.507
    94   1 H        0.926     0.029     2.600     2.521
    95   1 H        0.926     0.032     2.560     2.502
    96   1 H        0.926     0.032     2.558     2.501
    97   1 H        0.926     0.059     2.211     2.325

molecular dipole:
                 x           y           z       tot (Debye)
 q only:       -1.285      -0.614      -0.093
   full:       -1.057      -0.347      -0.098       2.839

 projected vibrational frequencies (cm⁻¹)
eigval :       -0.00    -0.00    -0.00    -0.00     0.00     0.00
eigval :        5.50     6.25     8.10    12.62    15.40    18.97
eigval :       20.42    29.57    32.10    39.29    52.74    58.24
eigval :       58.78    65.67    69.80    74.02    76.60    86.17
eigval :       99.62   105.44   109.50   113.85   125.18   129.97
eigval :      135.99   141.78   151.41   156.95   173.11   194.65
eigval :      198.34   205.84   215.94   223.80   227.54   233.74
eigval :      238.92   247.46   265.02   272.17   273.94   275.66
eigval :      280.87   288.21   306.86   321.99   339.15   342.76
eigval :      349.09   356.08   371.59   380.42   395.35   396.76
eigval :      399.80   402.97   421.25   423.40   425.13   432.15
eigval :      433.24   438.84   439.68   480.16   498.86   514.75
eigval :      518.04   520.20   532.05   536.81   540.19   542.51
eigval :      558.60   569.15   571.71   588.43   589.71   596.71
eigval :      607.60   611.02   613.63   630.11   631.85   645.09
eigval :      662.43   663.96   673.80   675.66   695.82   696.99
eigval :      704.73   707.96   711.02   721.96   727.12   754.70
eigval :      756.90   768.34   768.44   768.51   777.96   779.62
eigval :      780.04   789.99   797.59   802.82   803.69   820.89
eigval :      835.55   865.25   865.32   870.99   871.90   882.67
eigval :      883.57   895.30   895.56   896.86   899.30   900.25
eigval :      902.57   904.11   904.88   905.58   908.17   911.00
eigval :      917.05   920.24   921.96   923.27   923.69   931.91
eigval :      934.28   948.54   965.23   976.30   995.81  1000.63
eigval :     1006.82  1010.88  1011.50  1021.65  1033.82  1049.82
eigval :     1065.01  1069.51  1070.60  1073.08  1073.73  1080.92
eigval :     1092.21  1100.16  1112.59  1116.64  1118.65  1131.15
eigval :     1132.80  1133.39  1140.76  1151.41  1152.27  1154.88
eigval :     1171.49  1173.44  1179.25  1179.26  1181.52  1182.75
eigval :     1190.30  1194.93  1205.25  1228.06  1229.28  1233.37
eigval :     1234.68  1235.07  1253.54  1254.18  1256.31  1265.50
eigval :     1266.61  1276.72  1279.31  1285.36  1289.23  1296.75
eigval :     1297.26  1298.97  1300.40  1301.04  1304.21  1312.81
eigval :     1316.62  1320.22  1323.17  1340.23  1346.94  1353.26
eigval :     1353.76  1356.66  1357.20  1358.38  1360.23  1360.75
eigval :     1374.25  1377.84  1412.69  1413.95  1415.75  1425.76
eigval :     1426.14  1429.79  1431.11  1432.80  1463.54  1468.98
eigval :     1473.83  1474.34  1479.56  1485.74  1486.15  1486.39
eigval :     1488.44  1493.23  1495.25  1497.98  1502.48  1504.99
eigval :     1531.97  1554.88  1560.24  1561.77  1572.60  1572.92
eigval :     1577.65  1577.87  1587.21  1587.31  1597.19  1597.30
eigval :     1612.10  1612.16  1710.98  1736.08  2953.30  2956.94
eigval :     2959.78  2961.15  2966.66  2967.42  2969.71  2972.07
eigval :     2976.68  2980.60  2984.26  2984.86  2990.70  2993.12
eigval :     3023.13  3025.30  3032.50  3071.79  3071.95  3072.18
eigval :     3072.81  3077.29  3077.67  3078.82  3078.84  3084.74
eigval :     3085.66  3086.55  3086.79  3088.54  3088.75  3090.35
eigval :     3091.94  3093.10  3094.63  3094.84  3102.20  3103.77
eigval :     3109.96  3125.35  3144.87

   temp. (K)  partition function   enthalpy   heat capacity  entropy
                                   cal/mol     cal/K/mol   cal/K/mol   J/K/mol
 298.15  VIB  0.510E+25            28599.454    172.868    183.361
         ROT  0.214E+09              888.752      2.981     41.100
         INT  0.109E+34            29488.206    175.849    224.461
         TR   0.198E+29             1481.254      4.968     45.695
         TOT                       30969.4601   180.8168   270.1565  1130.3348

       T/K    H(0)-H(T)+PV         H(T)/Eh          T*S/Eh         G(T)/Eh
   ------------------------------------------------------------------------
    298.15    0.493530E-01    0.813060E+00    0.128360E+00    0.684700E+00
   ------------------------------------------------------------------------

         :::::::::::::::::::::::::::::::::::::::::::::::::::::
         ::                  THERMODYNAMIC                  ::
         :::::::::::::::::::::::::::::::::::::::::::::::::::::
         :: total free energy        -147.643945967329 Eh   ::
         ::.................................................::
         :: total energy             -148.328646101425 Eh   ::
         :: zero point energy           0.763707230293 Eh   ::
         :: G(RRHO) w/o ZPVE           -0.079007096197 Eh   ::
         :: G(RRHO) contrib.            0.684700134096 Eh   ::
         :::::::::::::::::::::::::::::::::::::::::::::::::::::

           -------------------------------------------------
          | TOTAL ENERGY             -148.328646101425 Eh   |
          | TOTAL ENTHALPY           -147.515585894997 Eh   |
          | TOTAL FREE ENERGY        -147.643945967329 Eh   |
          | GRADIENT NORM               0.000037006184 Eh/α |
          | HOMO-LUMO GAP               1.416055199831 eV   |
           -------------------------------------------------

 * finished run on 2025/08/30 at 02:28:52.894
