   * xtb version 6.7.1 (edcfbbe) compiled by 'albert@albert-system' on 2024-07-22

   ID    Z sym.   atoms
    1    6 C      1-8, 10, 12-18, 20-32, 34-39, 41-55
    2    7 N      9, 19, 40
    3    8 O      11, 56
    4   16 S      33
    5    1 H      57-97

          program call               : xtb data2507/toluene/m-PCzTPD/m-PCzTPD_toluene_S0_finalOpt.xtbopt.xyz --gfn 2 --uhf 2 --gbsa toluene --ohess vtight --parallel 40 --molden --ceasefiles --namespace data2507/toluene/m-PCzTPD/m-PCzTPD_toluene_T1_preOpt
      * Solvation model:               GBSA
        Solvent                        toluene
        Solvent mass                       9.2140E+01 g/mol
          :  Hamiltonian                  GFN2-xTB          :
 * total energy  :  -148.2563823 Eh     change        0.7519247E-09 Eh
 * total energy  :  -148.2596070 Eh     change       -0.3224647E-02 Eh
 * total energy  :  -148.2603238 Eh     change       -0.7167585E-03 Eh
 * total energy  :  -148.2603757 Eh     change       -0.5190511E-04 Eh
 * total energy  :  -148.2604012 Eh     change       -0.2552918E-04 Eh
 * total energy  :  -148.2604116 Eh     change       -0.1046046E-04 Eh
 * total energy  :  -148.2604218 Eh     change       -0.1011687E-04 Eh
 * total energy  :  -148.2604252 Eh     change       -0.3469144E-05 Eh
 * total energy  :  -148.2604292 Eh     change       -0.3953090E-05 Eh
 * total energy  :  -148.2604305 Eh     change       -0.1356487E-05 Eh
 * total energy  :  -148.2604349 Eh     change       -0.8101071E-06 Eh
 * total energy  :  -148.2604355 Eh     change       -0.6831173E-06 Eh
 * total energy  :  -148.2604360 Eh     change       -0.4923878E-06 Eh
 * total energy  :  -148.2604364 Eh     change       -0.3669581E-06 Eh
 * total energy  :  -148.2604367 Eh     change       -0.2554405E-06 Eh
 * total energy  :  -148.2604368 Eh     change       -0.1929245E-06 Eh
 * total energy  :  -148.2604370 Eh     change       -0.1906252E-06 Eh
 * total energy  :  -148.2604370 Eh     change        0.1440100E-08 Eh
 * total energy  :  -148.2604371 Eh     change       -0.8245939E-07 Eh
   *** GEOMETRY OPTIMIZATION CONVERGED AFTER 23 ITERATIONS ***

 final structure:
================
97
 xtb: 6.7.1 (edcfbbe)
C           -1.10607998465371       -0.74124299531552        4.07310309725790
C           -1.51370339316353        0.46250886112058        3.23245599010075
C           -0.30836442380322        1.29356610128721        2.79770078345805
C           -0.71484282105172        2.48287278928652        1.92967447949256
C            0.49842188254224        3.22091477612821        1.36752544483570
C            0.14693815021577        4.35081467667746        0.39693076417993
C           -0.63970896056454        3.94076834296973       -0.85098827118418
C            0.06935439838796        2.94504520401207       -1.77539574055655
N            0.05701409104015        1.58787617094010       -1.27835120729492
C           -1.09686115621387        0.85109820673420       -1.06014545104538
O           -2.22397273487900        1.26510543091931       -1.33032013599566
C           -0.65003140579529       -0.41615653276280       -0.50676676146148
C           -1.23314781919255       -1.58239118682213       -0.00017882500913
C           -2.58793396332766       -1.96254726633213        0.21130641260933
C           -2.90124566023012       -3.20797646571176        0.80119049829494
C           -4.20811116563397       -3.57295908518307        1.03236409540772
C           -5.25157191265141       -2.72659673899454        0.68869737871382
C           -4.95994408796508       -1.49539726214666        0.08721814038795
N           -6.00785318459902       -0.63070554047239       -0.25591048776687
C           -6.08064670758592        0.71164026822127        0.05164724010723
C           -5.20318644585150        1.50113599090626        0.78473116903448
C           -5.53414076876194        2.83084620234566        0.97023310588350
C           -6.71154157919838        3.36519537050339        0.45385301161215
C           -7.60463225259847        2.57621956755900       -0.25324747630339
C           -7.29244928991618        1.24159111890358       -0.45380414238078
C           -7.97195654989418        0.15255881220043       -1.10859986171430
C           -9.17196649162905        0.04926456269524       -1.79307326331721
C           -9.52315432520248       -1.17804165023075       -2.33265479019619
C           -8.68460411548683       -2.28267533108677       -2.21035640754425
C           -7.48094609520077       -2.20260144204916       -1.53316069114157
C           -7.13861690703751       -0.98257744729280       -0.96231686672429
C           -3.65105595741329       -1.11875435877405       -0.15048881464066
S            0.05296413783496       -2.68296406886766        0.48516099693176
C            1.34748563540200       -1.56828231077123        0.05287765211149
C            2.69538781894706       -1.94291958728853        0.29267203895000
C            3.00614354381709       -3.21492630220375        0.82976509606910
C            4.31002707983841       -3.58613223431848        1.06448877068647
C            5.35626877839428       -2.71950475682448        0.78309595477030
C            5.06717614406630       -1.45753865976630        0.24643268466111
N            6.11480668490319       -0.56457362504190       -0.01792602415452
C            6.17165765743270        0.74999472144072        0.39288665490890
C            5.28085089364248        1.46888625344497        1.18032358728060
C            5.59810666711216        2.78172396946883        1.47674261037500
C            6.77517051685339        3.36578644176248        1.01625294138956
C            7.68106624268613        2.64505803952294        0.25433674027113
C            7.38281164676138        1.32872896112408       -0.05745866096937
C            8.07889555092499        0.29921605527157       -0.78738292131631
C            9.28558435569316        0.25883581582252       -1.46652431699391
C            9.65421451961441       -0.92165137357418       -2.09239934535458
C            8.82768471640999       -2.04149143506546       -2.05848632481022
C            7.61732473917117       -2.02397456125844       -1.38876138457157
C            7.25575020080997       -0.85181159377250       -0.73553337327057
C            3.76245991925609       -1.07478098703100        0.00128846874805
C            0.76798709337840       -0.40191107002707       -0.47053694847620
C            1.21716860929214        0.87435186488164       -0.98332059296076
O            2.34525450417699        1.33272820880738       -1.16726225427625
H           -0.43427229497819       -1.38591478142167        3.51022215472820
H           -1.98075140003174       -1.32167557029062        4.35799304423273
H           -0.59408487395904       -0.41877878881124        4.97732695516903
H           -2.19953435433839        1.09282807892449        3.80396047207788
H           -2.04454635126233        0.11674893742233        2.34086608534821
H            0.37679991405070        0.65708811009738        2.22962211998268
H            0.22974064871956        1.64921220343397        3.67989948811983
H           -1.32289672807015        3.17571081729997        2.51668267081063
H           -1.33480186017699        2.11420314718250        1.11067517715318
H            1.15711412517282        2.50899730004532        0.86870192340753
H            1.06568462333690        3.64938665741089        2.19879099663701
H           -0.44217985577450        5.10222039910613        0.92961747431521
H            1.07928821591517        4.82435704766930        0.07738362391720
H           -0.82976723104117        4.84270781830938       -1.43750141727074
H           -1.60929179297319        3.52394799019940       -0.57590108784619
H           -0.42906329589226        2.95426289859629       -2.75215737045429
H            1.12199148216156        3.21203661597967       -1.90618371123430
H           -2.09649614239352       -3.87171108523512        1.07834864487012
H           -4.42426612516424       -4.52395720085848        1.49551587476005
H           -6.27374295174036       -2.98934801792809        0.91078479848286
H           -4.29300018612459        1.09412307124624        1.19542591581858
H           -4.86434302343392        3.46730062859319        1.52868635882656
H           -6.93321482469209        4.40947872722233        0.61562419587184
H           -8.52376324561944        2.99017251057329       -0.63847910616222
H           -9.81520372719313        0.90818517994699       -1.90701134031587
H          -10.45571628469461       -1.27902665615047       -2.86715674686844
H           -8.97585698591604       -3.22049498760029       -2.65898136931729
H           -6.82503116416045       -3.05649212140313       -1.46364347342360
H           -3.44600548801337       -0.17824253437194       -0.63572123049183
H            2.20019869220511       -3.89692620426007        1.05490884461361
H            4.52247850302726       -4.55947950581385        1.48063207916359
H            6.37607351024861       -2.98971533989823        1.00691129739122
H            4.37245687811112        1.01960973242701        1.54961980417711
H            4.91751898647193        3.36427991878852        2.07937184432384
H            6.98665000932832        4.39478112549101        1.26586719481338
H            8.60011941616464        3.09670592271434       -0.08627342766764
H            9.92091800033398        1.12997116250771       -1.51030435450507
H           10.59191108166911       -0.97291387222967       -2.62503773899018
H            9.13402378607946       -2.94115003326882       -2.57074081049007
H            6.97074462566890       -2.88779191063227       -1.38562044672420
H            3.56245694178820       -0.10963390897359       -0.43508215137998

          :  Hamiltonian                  GFN2-xTB          :
         :: gradient norm              0.000076256472 Eh/a0 ::
         :: HOMO-LUMO gap              0.019009518636 eV    ::
         :: SCC energy              -150.745873094189 Eh    ::
         :: -> dispersion             -0.138891680887 Eh    ::
         :: -> Gsolv                  -0.067269801218 Eh    ::
         :: repulsion energy           2.485435964387 Eh    ::

    * Orbital Energies and Occupations

         #    Occupation            Energy/Eh            Energy/eV
      -------------------------------------------------------------
         1        2.0000           -0.7289194             -19.8349
       ...           ...                  ...                  ...
       126        2.0000           -0.4171697             -11.3518
       127        2.0000           -0.4167564             -11.3405
       128        2.0000           -0.4161881             -11.3251
       129        2.0000           -0.4065295             -11.0622
       130        2.0000           -0.3998197             -10.8796
       131        2.0000           -0.3961862             -10.7808
       132        2.0000           -0.3935675             -10.7095
       133        2.0000           -0.3910026             -10.6397
       134        2.0000           -0.3908715             -10.6362
       135        1.9804           -0.3769251             -10.2567
       136        1.7161           -0.3740877             -10.1794
       137        1.3035           -0.3724192             -10.1340
       138        0.5909           -0.2920224              -7.9463 (HOMO)
       139        0.4091           -0.2913235              -7.9273 (LUMO)
       140                         -0.2565254              -6.9804
       141                         -0.2564190              -6.9775
       142                         -0.2377864              -6.4705
       143                         -0.2365910              -6.4380
       144                         -0.2348632              -6.3910
       145                         -0.2347612              -6.3882
       146                         -0.2230420              -6.0693
       147                         -0.2120339              -5.7697
       148                         -0.2100399              -5.7155
       149                         -0.2012116              -5.4752
       ...                                ...                  ...
       270                          0.7356656              20.0185
      -------------------------------------------------------------
                  HL-Gap            0.0006989 Eh            0.0190 eV

     #   Z          covCN         q      C6AA      α(0)
     1   6 C        3.752    -0.101    22.480     6.761
     2   6 C        3.801    -0.047    21.417     6.589
     3   6 C        3.803    -0.053    21.517     6.604
     4   6 C        3.802    -0.054    21.534     6.607
     5   6 C        3.801    -0.052    21.515     6.604
     6   6 C        3.800    -0.057    21.599     6.617
     7   6 C        3.800    -0.060    21.664     6.627
     8   6 C        3.739     0.023    20.265     6.423
     9   7 N        2.808    -0.139    24.011     7.278
    10   6 C        2.837     0.264    22.552     7.782
    11   8 O        0.857    -0.495    23.678     6.524
    12   6 C        3.214    -0.055    28.664     8.712
    13   6 C        2.972     0.023    27.485     8.599
    14   6 C        3.003     0.011    27.755     8.642
    15   6 C        2.924    -0.033    28.810     8.802
    16   6 C        2.914    -0.026    28.657     8.778
    17   6 C        2.920    -0.043    29.072     8.842
    18   6 C        2.910     0.063    26.581     8.454
    19   7 N        2.804    -0.011    21.470     6.882
    20   6 C        3.072     0.052    26.764     8.483
    21   6 C        2.909    -0.034    28.853     8.808
    22   6 C        2.923    -0.028    28.710     8.787
    23   6 C        2.920    -0.031    28.779     8.797
    24   6 C        2.912    -0.028    28.712     8.787
    25   6 C        3.066    -0.010    28.209     8.709
    26   6 C        3.064    -0.010    28.197     8.708
    27   6 C        2.912    -0.028    28.699     8.784
    28   6 C        2.920    -0.032    28.789     8.799
    29   6 C        2.922    -0.030    28.755     8.794
    30   6 C        2.909    -0.041    29.028     8.835
    31   6 C        3.073     0.049    26.831     8.493
    32   6 C        2.925    -0.058    29.439     8.898
    33  16 S        2.356    -0.085   144.586    20.238
    34   6 C        2.971     0.018    27.609     8.619
    35   6 C        3.003     0.009    27.804     8.650
    36   6 C        2.924    -0.034    28.853     8.809
    37   6 C        2.914    -0.027    28.671     8.780
    38   6 C        2.919    -0.044    29.103     8.847
    39   6 C        2.910     0.063    26.592     8.456
    40   7 N        2.804    -0.011    21.465     6.881
    41   6 C        3.073     0.052    26.760     8.482
    42   6 C        2.909    -0.035    28.863     8.809
    43   6 C        2.923    -0.029    28.713     8.787
    44   6 C        2.920    -0.031    28.778     8.797
    45   6 C        2.912    -0.028    28.710     8.786
    46   6 C        3.065    -0.010    28.208     8.709
    47   6 C        3.064    -0.010    28.197     8.707
    48   6 C        2.912    -0.028    28.697     8.784
    49   6 C        2.920    -0.032    28.786     8.798
    50   6 C        2.922    -0.030    28.753     8.793
    51   6 C        2.909    -0.041    29.021     8.834
    52   6 C        3.073     0.049    26.824     8.492
    53   6 C        2.924    -0.059    29.455     8.900
    54   6 C        3.210    -0.059    28.788     8.735
    55   6 C        2.839     0.260    22.631     7.796
    56   8 O        0.857    -0.499    23.758     6.535
    57   1 H        0.925     0.034     2.535     2.490
    58   1 H        0.925     0.037     2.494     2.469
    59   1 H        0.925     0.037     2.494     2.469
    60   1 H        0.924     0.030     2.584     2.514
    61   1 H        0.924     0.017     2.782     2.608
    62   1 H        0.924     0.015     2.808     2.620
    63   1 H        0.924     0.031     2.573     2.508
    64   1 H        0.924     0.030     2.587     2.515
    65   1 H        0.924     0.021     2.721     2.579
    66   1 H        0.924     0.023     2.686     2.563
    67   1 H        0.924     0.029     2.596     2.520
    68   1 H        0.924     0.037     2.484     2.465
    69   1 H        0.924     0.034     2.527     2.486
    70   1 H        0.924     0.041     2.440     2.443
    71   1 H        0.924     0.050     2.321     2.383
    72   1 H        0.924     0.037     2.491     2.468
    73   1 H        0.924     0.058     2.217     2.328
    74   1 H        0.926     0.055     2.263     2.352
    75   1 H        0.926     0.051     2.312     2.378
    76   1 H        0.926     0.052     2.299     2.371
    77   1 H        0.926     0.040     2.454     2.450
    78   1 H        0.926     0.041     2.437     2.441
    79   1 H        0.926     0.044     2.397     2.421
    80   1 H        0.926     0.047     2.358     2.401
    81   1 H        0.926     0.046     2.371     2.408
    82   1 H        0.926     0.044     2.393     2.419
    83   1 H        0.926     0.045     2.387     2.416
    84   1 H        0.926     0.045     2.386     2.415
    85   1 H        0.926     0.071     2.079     2.255
    86   1 H        0.926     0.053     2.288     2.366
    87   1 H        0.926     0.049     2.327     2.385
    88   1 H        0.926     0.050     2.316     2.380
    89   1 H        0.926     0.039     2.458     2.452
    90   1 H        0.926     0.041     2.431     2.438
    91   1 H        0.926     0.044     2.394     2.420
    92   1 H        0.926     0.047     2.355     2.400
    93   1 H        0.926     0.046     2.368     2.406
    94   1 H        0.926     0.044     2.390     2.417
    95   1 H        0.926     0.045     2.386     2.416
    96   1 H        0.926     0.045     2.389     2.417
    97   1 H        0.926     0.069     2.095     2.263

molecular dipole:
                 x           y           z       tot (Debye)
 q only:       -0.145      -1.359       1.208
   full:       -0.122      -1.113       0.942       3.719

 projected vibrational frequencies (cm⁻¹)
eigval :       -0.00    -0.00    -0.00     0.00     0.00     0.00
eigval :        9.21    13.62    17.11    18.86    18.99    27.02
eigval :       30.49    34.11    38.81    44.20    53.23    71.27
eigval :       72.38    73.57    77.07    84.83    93.69    94.91
eigval :      108.01   113.46   117.93   125.18   130.97   137.49
eigval :      146.07   149.09   158.36   164.85   171.73   192.91
eigval :      201.74   211.34   226.39   228.87   237.89   243.64
eigval :      247.61   261.10   267.34   269.79   270.09   271.38
eigval :      293.87   299.15   319.87   323.09   324.83   336.71
eigval :      343.80   367.09   370.54   373.61   388.65   392.37
eigval :      392.75   413.26   416.06   419.79   420.39   430.77
eigval :      432.57   434.63   436.07   454.21   482.97   490.87
eigval :      512.60   512.93   514.13   528.45   532.22   534.27
eigval :      534.34   547.37   557.15   576.75   580.88   585.13
eigval :      589.32   608.64   609.80   611.86   614.42   639.57
eigval :      645.52   646.80   650.04   673.53   674.00   675.83
eigval :      690.30   697.46   708.93   710.83   721.88   752.27
eigval :      754.52   764.65   765.81   766.47   767.13   771.67
eigval :      773.51   775.46   776.98   781.79   782.69   798.81
eigval :      834.24   850.03   856.29   860.92   862.59   864.25
eigval :      873.11   873.81   889.83   892.21   893.94   896.65
eigval :      897.98   899.57   903.30   903.54   904.43   906.26
eigval :      907.93   913.47   914.79   919.29   919.96   921.70
eigval :      922.25   926.47   941.97   961.71   973.96   983.94
eigval :      990.28  1000.78  1008.24  1010.11  1015.16  1030.19
eigval :     1051.63  1057.66  1065.80  1066.06  1068.77  1070.01
eigval :     1081.62  1097.23  1113.34  1113.56  1113.89  1127.37
eigval :     1127.62  1130.84  1137.57  1137.87  1144.80  1151.89
eigval :     1169.61  1171.08  1175.32  1175.34  1178.39  1178.63
eigval :     1181.54  1187.47  1194.69  1212.50  1217.00  1225.85
eigval :     1226.71  1229.51  1239.18  1245.26  1246.51  1258.61
eigval :     1261.33  1264.77  1277.07  1278.36  1278.90  1282.59
eigval :     1285.82  1287.13  1288.21  1293.58  1312.74  1321.09
eigval :     1325.58  1327.98  1328.22  1329.77  1333.77  1336.50
eigval :     1339.93  1342.71  1347.09  1352.18  1359.58  1360.98
eigval :     1362.04  1368.69  1379.36  1400.12  1401.33  1406.20
eigval :     1407.22  1412.03  1414.31  1424.80  1435.16  1440.93
eigval :     1442.74  1453.89  1457.63  1458.40  1477.03  1477.58
eigval :     1479.29  1486.63  1495.76  1497.24  1498.10  1500.56
eigval :     1501.39  1503.37  1505.25  1507.34  1540.88  1547.45
eigval :     1561.70  1561.97  1571.50  1571.79  1576.83  1576.99
eigval :     1596.69  1599.65  1631.14  1637.25  2918.31  2943.47
eigval :     2952.33  2954.21  2955.40  2963.37  2963.95  2967.31
eigval :     2970.60  2971.40  2976.60  2997.57  3009.51  3013.34
eigval :     3026.28  3028.67  3034.71  3081.77  3082.07  3082.18
eigval :     3082.37  3082.94  3083.27  3087.84  3088.11  3088.59
eigval :     3089.44  3093.59  3095.05  3095.35  3095.60  3096.43
eigval :     3097.17  3100.24  3100.59  3102.39  3103.93  3104.02
eigval :     3104.38  3123.28  3123.61

   temp. (K)  partition function   enthalpy   heat capacity  entropy
                                   cal/mol     cal/K/mol   cal/K/mol   J/K/mol
 298.15  VIB  0.337E+23            28519.114    175.935    178.514
         ROT  0.125E+09              888.752      2.981     40.031
         INT  0.421E+31            29407.866    178.916    218.545
         TR   0.198E+29             1481.254      4.968     45.695
         TOT                       30889.1203   183.8839   264.2404  1105.5817

       T/K    H(0)-H(T)+PV         H(T)/Eh          T*S/Eh         G(T)/Eh
   ------------------------------------------------------------------------
    298.15    0.492249E-01    0.808567E+00    0.125549E+00    0.683018E+00
   ------------------------------------------------------------------------

         :::::::::::::::::::::::::::::::::::::::::::::::::::::
         ::                  THERMODYNAMIC                  ::
         :::::::::::::::::::::::::::::::::::::::::::::::::::::
         :: total free energy        -147.577419612457 Eh   ::
         ::.................................................::
         :: total energy             -148.260437133330 Eh   ::
         :: zero point energy           0.759341700678 Eh   ::
         :: G(RRHO) w/o ZPVE           -0.076324179805 Eh   ::
         :: G(RRHO) contrib.            0.683017520872 Eh   ::
         :::::::::::::::::::::::::::::::::::::::::::::::::::::

           -------------------------------------------------
          | TOTAL ENERGY             -148.260437133330 Eh   |
          | TOTAL ENTHALPY           -147.451870486135 Eh   |
          | TOTAL FREE ENERGY        -147.577419612457 Eh   |
          | GRADIENT NORM               0.000076199884 Eh/α |
          | HOMO-LUMO GAP               0.019018664377 eV   |
           -------------------------------------------------

 * finished run on 2025/08/30 at 03:08:53.486
