   * xtb version 6.7.1 (edcfbbe) compiled by 'albert@albert-system' on 2024-07-22

   ID    Z sym.   atoms
    1    6 C      1-8, 10, 12-18, 20-32, 34-39, 41-55
    2    7 N      9, 19, 40
    3    8 O      11, 56
    4   16 S      33
    5    1 H      57-97

          program call               : xtb data2507/toluene/m-PCzTPD/m-PCzTPD_toluene_T1_crest.xyz --gfn 2 --uhf 2 --gbsa toluene --ohess vtight --parallel 40 --molden --ceasefiles --namespace data2507/toluene/m-PCzTPD/m-PCzTPD_toluene_T1_finalOpt
      * Solvation model:               GBSA
        Solvent                        toluene
        Solvent mass                       9.2140E+01 g/mol
          :  Hamiltonian                  GFN2-xTB          :
 * total energy  :  -148.2588659 Eh     change       -0.3023018E-08 Eh
 * total energy  :  -148.2593840 Eh     change       -0.5181116E-03 Eh
 * total energy  :  -148.2596632 Eh     change       -0.2791877E-03 Eh
 * total energy  :  -148.2597100 Eh     change       -0.4687113E-04 Eh
 * total energy  :  -148.2597619 Eh     change       -0.5188299E-04 Eh
 * total energy  :  -148.2597959 Eh     change       -0.3399970E-04 Eh
 * total energy  :  -148.2598497 Eh     change       -0.5382037E-04 Eh
 * total energy  :  -148.2599120 Eh     change       -0.6224364E-04 Eh
 * total energy  :  -148.2599633 Eh     change       -0.5135509E-04 Eh
 * total energy  :  -148.2600069 Eh     change       -0.4353265E-04 Eh
 * total energy  :  -148.2604464 Eh     change       -0.4954389E-06 Eh
 * total energy  :  -148.2604469 Eh     change       -0.4755207E-06 Eh
 * total energy  :  -148.2604473 Eh     change       -0.4274772E-06 Eh
 * total energy  :  -148.2604476 Eh     change       -0.3451397E-06 Eh
 * total energy  :  -148.2604479 Eh     change       -0.2598745E-06 Eh
 * total energy  :  -148.2604481 Eh     change       -0.2139332E-06 Eh
 * total energy  :  -148.2604482 Eh     change       -0.1264894E-06 Eh
 * total energy  :  -148.2604482 Eh     change        0.1164665E-08 Eh
 * total energy  :  -148.2604483 Eh     change       -0.7670718E-07 Eh
   *** GEOMETRY OPTIMIZATION CONVERGED AFTER 67 ITERATIONS ***

 final structure:
================
97
 xtb: 6.7.1 (edcfbbe)
C           -0.88019152044807       -0.72341296775632        4.02787357287421
C           -1.34125186974187        0.48222813557117        3.21800508831280
C           -0.16784311664298        1.33289817385079        2.73634199539787
C           -0.62583292584994        2.51078115322339        1.87826715701961
C            0.55450448150440        3.26820485492534        1.27312666462045
C            0.15217224434345        4.37371575818614        0.29452752599956
C           -0.64919399450284        3.92366208916473       -0.93007296977212
C            0.05581695341748        2.91139281599907       -1.83990873696528
N            0.04293758226768        1.56319242852682       -1.31859094452684
C           -1.11276168546293        0.83515695461781       -1.07919345214909
O           -2.24001442421955        1.24928897312691       -1.34859818636642
C           -0.66765149481386       -0.42342716677863       -0.50575017043836
C           -1.25244786772720       -1.57762569667741        0.02621173303747
C           -2.60725293770344       -1.94757155436477        0.25431431683132
C           -2.92262588817866       -3.18525821744450        0.85931510112282
C           -4.22957351979035       -3.54046065619639        1.10487478931524
C           -5.27119325193105       -2.69083381286554        0.76334628407326
C           -4.97744915143452       -1.46638826110802        0.14943457767673
N           -6.02225639976703       -0.59573037829937       -0.18826656352926
C           -6.08149336439346        0.74826043213264        0.11459227480538
C           -5.19033724852027        1.53342774096419        0.83567995798928
C           -5.50850216691605        2.86649922412663        1.01925834916320
C           -6.68696077262647        3.40814022570768        0.51292032274789
C           -7.59324411582207        2.62378198088660       -0.18247533781022
C           -7.29376175857472        1.28596081238216       -0.38139286204759
C           -7.98768493337122        0.19990553134133       -1.02602023344047
C           -9.19394584222655        0.10356116060907       -1.70043669900786
C           -9.55899599505658       -1.12285124601384       -2.23282207983602
C           -8.72834633065301       -2.23375347217044       -2.11316738651139
C           -7.51876054516511       -2.16080904680226       -1.44584502190355
C           -7.16201512482485       -0.94128317569883       -0.88288816525104
C           -3.66867524641774       -1.10048337916937       -0.10471435810220
S            0.03207300316732       -2.67421267788718        0.52364510297281
C            1.32835757404901       -1.57227310891564        0.06512809032626
C            2.67568710835010       -1.94595446966239        0.31003934222407
C            2.98272118132458       -3.20729848335199        0.87373468622543
C            4.28551532808188       -3.57786972517752        1.11523186177516
C            5.33421763542295       -2.72089241609774        0.81434658826545
C            5.04890869972821       -1.46972686175143        0.25096457130826
N            6.10023486340953       -0.58745063407502       -0.03405433516958
C            6.16506836147284        0.73526726660990        0.34831162386115
C            5.27923315117867        1.47607347690944        1.12086678722806
C            5.60366764806499        2.79355287862524        1.38746672505750
C            6.78300950509715        3.36108506645281        0.91237936910973
C            7.68421279685962        2.61878638654049        0.16575979168811
C            7.37864243391278        1.29743795890144       -0.11634707981521
C            8.06787073444096        0.24861553181091       -0.82493534297842
C            9.27332025682805        0.18672924769521       -1.50468171618867
C            9.63441578502489       -1.00907712413174       -2.10535534428412
C            8.80169690676961       -2.12327238820438       -2.04608331493278
C            7.59241626698700       -2.08439640930183       -1.37533501929753
C            7.23848057281345       -0.89642224852864       -0.74697297145612
C            3.74522032292846       -1.08756203544767       -0.00066730259914
C            0.75053290282490       -0.41439573362238       -0.47842602700793
C            1.20167782189115        0.85001390579628       -1.01855576315267
O            2.33077277899172        1.29906271662754       -1.21875994628476
H           -0.23438800530417       -1.35960817272584        3.42604657561579
H           -1.73405010065331       -1.31269143196487        4.35467992481233
H           -0.32329587495701       -0.40255499078865        4.90576825818944
H           -2.00842970444951        1.09847136366759        3.82577613647814
H           -1.90801230924752        0.13707265558452        2.34856812853059
H            0.50763934193170        0.70609996765648        2.14622596601203
H            0.39575378027478        1.70189687584756        3.59687746386321
H           -1.22719646439500        3.19483934718342        2.48227905716923
H           -1.26577575136265        2.12708403146107        1.08173203307003
H            1.21669292842381        2.56445686587118        0.76761743673007
H            1.13270609496896        3.72273277187854        2.08265906027099
H           -0.44531338741959        5.11770211349455        0.82821017994555
H            1.06473913593559        4.86636816192845       -0.05206919978679
H           -0.85874784714763        4.80853085763971       -1.53556449047026
H           -1.60988306353422        3.50398564638912       -0.62918330589659
H           -0.44621203896086        2.90388326658345       -2.81481213197294
H            1.10819237058979        3.17460717156362       -1.97973152783834
H           -2.11938588434466       -3.85122460547178        1.13552139286129
H           -4.44724073666852       -4.48612997932047        1.57812322962705
H           -6.29291876973974       -2.94570089190305        0.99644255769050
H           -4.27976061999120        1.12013966891431        1.23926999060612
H           -4.82765918534465        3.49956428676891        1.56819777773522
H           -6.89886476632303        4.45468371536349        0.67317669768819
H           -8.51291861503830        3.04371773864772       -0.55986756078261
H           -9.83142876433974        0.96704895053314       -1.81223265296415
H          -10.49650332566531       -1.21835541974686       -2.75962754255376
H           -9.03079080983258       -3.17083891448559       -2.55587713564191
H           -6.86906974633441       -3.01959628341405       -1.37798098295136
H           -3.46269829013822       -0.16586583505070       -0.60081312172133
H            2.17471879759175       -3.88157272714081        1.11420547106549
H            4.49512821222710       -4.54278722010648        1.55194059187989
H            6.35336702230947       -2.98963546816575        1.04287180082891
H            4.36914031052761        1.03976091530389        1.50130798198962
H            4.92712955977718        3.39302361971253        1.97790116907091
H            7.00012190370609        4.39429721400879        1.13864509944264
H            8.60506654417675        3.05795259251037       -0.18610789933875
H            9.91347591919774        1.05310623231869       -1.56822649032089
H           10.57105657388945       -1.07715111712550       -2.63795638609083
H            9.10217766594531       -3.03545849393510       -2.53928605503345
H            6.94094892786983       -2.94423969100821       -1.35261019731704
H            3.54777107221406       -0.13117351209184       -0.45714215458224

          :  Hamiltonian                  GFN2-xTB          :
         :: gradient norm              0.000041851825 Eh/a0 ::
         :: HOMO-LUMO gap              0.018604720811 eV    ::
         :: SCC energy              -150.745864187990 Eh    ::
         :: -> dispersion             -0.139075717943 Eh    ::
         :: -> Gsolv                  -0.067252562307 Eh    ::
         :: repulsion energy           2.485415882769 Eh    ::

    * Orbital Energies and Occupations

         #    Occupation            Energy/Eh            Energy/eV
      -------------------------------------------------------------
         1        2.0000           -0.7289774             -19.8365
       ...           ...                  ...                  ...
       126        2.0000           -0.4172189             -11.3531
       127        2.0000           -0.4167677             -11.3408
       128        2.0000           -0.4162516             -11.3268
       129        2.0000           -0.4066312             -11.0650
       130        2.0000           -0.3998605             -10.8808
       131        2.0000           -0.3961823             -10.7807
       132        2.0000           -0.3935632             -10.7094
       133        2.0000           -0.3909989             -10.6396
       134        2.0000           -0.3908917             -10.6367
       135        1.9803           -0.3769303             -10.2568
       136        1.7169           -0.3741017             -10.1798
       137        1.3028           -0.3724266             -10.1342
       138        0.5890           -0.2920632              -7.9474 (HOMO)
       139        0.4110           -0.2913797              -7.9288 (LUMO)
       140                         -0.2565295              -6.9805
       141                         -0.2564252              -6.9777
       142                         -0.2377771              -6.4702
       143                         -0.2366364              -6.4392
       144                         -0.2348609              -6.3909
       145                         -0.2347746              -6.3885
       146                         -0.2230697              -6.0700
       147                         -0.2120502              -5.7702
       148                         -0.2100392              -5.7155
       149                         -0.2012301              -5.4757
       ...                                ...                  ...
       270                          0.7356463              20.0180
      -------------------------------------------------------------
                  HL-Gap            0.0006835 Eh            0.0186 eV

     #   Z          covCN         q      C6AA      α(0)
     1   6 C        3.752    -0.100    22.478     6.761
     2   6 C        3.801    -0.047    21.417     6.589
     3   6 C        3.803    -0.053    21.516     6.604
     4   6 C        3.802    -0.053    21.531     6.606
     5   6 C        3.801    -0.053    21.522     6.605
     6   6 C        3.800    -0.057    21.601     6.617
     7   6 C        3.800    -0.060    21.663     6.627
     8   6 C        3.739     0.023    20.263     6.423
     9   7 N        2.808    -0.139    24.012     7.278
    10   6 C        2.837     0.264    22.556     7.783
    11   8 O        0.857    -0.495    23.680     6.524
    12   6 C        3.214    -0.055    28.662     8.711
    13   6 C        2.972     0.023    27.486     8.600
    14   6 C        3.003     0.011    27.759     8.643
    15   6 C        2.924    -0.033    28.813     8.803
    16   6 C        2.914    -0.026    28.657     8.778
    17   6 C        2.920    -0.043    29.073     8.842
    18   6 C        2.910     0.063    26.582     8.454
    19   7 N        2.804    -0.011    21.471     6.882
    20   6 C        3.072     0.052    26.764     8.482
    21   6 C        2.909    -0.034    28.857     8.809
    22   6 C        2.923    -0.028    28.712     8.787
    23   6 C        2.920    -0.031    28.780     8.797
    24   6 C        2.912    -0.028    28.712     8.786
    25   6 C        3.065    -0.010    28.209     8.709
    26   6 C        3.064    -0.010    28.197     8.708
    27   6 C        2.912    -0.028    28.699     8.784
    28   6 C        2.920    -0.032    28.789     8.799
    29   6 C        2.922    -0.030    28.755     8.794
    30   6 C        2.909    -0.041    29.028     8.835
    31   6 C        3.073     0.049    26.829     8.493
    32   6 C        2.925    -0.058    29.440     8.898
    33  16 S        2.356    -0.084   144.547    20.235
    34   6 C        2.971     0.018    27.607     8.619
    35   6 C        3.003     0.009    27.803     8.649
    36   6 C        2.924    -0.034    28.852     8.809
    37   6 C        2.913    -0.027    28.669     8.780
    38   6 C        2.920    -0.044    29.100     8.846
    39   6 C        2.910     0.063    26.591     8.456
    40   7 N        2.804    -0.011    21.465     6.881
    41   6 C        3.073     0.052    26.760     8.482
    42   6 C        2.909    -0.035    28.864     8.810
    43   6 C        2.923    -0.029    28.713     8.787
    44   6 C        2.920    -0.031    28.778     8.797
    45   6 C        2.912    -0.028    28.710     8.786
    46   6 C        3.065    -0.010    28.208     8.709
    47   6 C        3.064    -0.010    28.197     8.707
    48   6 C        2.912    -0.028    28.697     8.784
    49   6 C        2.920    -0.032    28.787     8.798
    50   6 C        2.922    -0.030    28.753     8.793
    51   6 C        2.909    -0.041    29.021     8.834
    52   6 C        3.074     0.049    26.824     8.492
    53   6 C        2.924    -0.058    29.451     8.900
    54   6 C        3.210    -0.058    28.776     8.732
    55   6 C        2.839     0.260    22.627     7.795
    56   8 O        0.857    -0.499    23.762     6.536
    57   1 H        0.925     0.034     2.535     2.490
    58   1 H        0.925     0.037     2.492     2.469
    59   1 H        0.925     0.036     2.496     2.471
    60   1 H        0.924     0.030     2.586     2.515
    61   1 H        0.924     0.017     2.783     2.609
    62   1 H        0.924     0.015     2.810     2.621
    63   1 H        0.924     0.031     2.575     2.509
    64   1 H        0.924     0.030     2.589     2.516
    65   1 H        0.924     0.020     2.728     2.583
    66   1 H        0.924     0.024     2.670     2.555
    67   1 H        0.924     0.029     2.596     2.520
    68   1 H        0.924     0.037     2.484     2.465
    69   1 H        0.924     0.034     2.526     2.486
    70   1 H        0.924     0.041     2.441     2.443
    71   1 H        0.924     0.050     2.323     2.383
    72   1 H        0.924     0.037     2.492     2.469
    73   1 H        0.924     0.059     2.216     2.328
    74   1 H        0.926     0.055     2.263     2.352
    75   1 H        0.926     0.051     2.313     2.378
    76   1 H        0.926     0.052     2.300     2.372
    77   1 H        0.926     0.039     2.459     2.452
    78   1 H        0.926     0.041     2.437     2.441
    79   1 H        0.926     0.044     2.397     2.421
    80   1 H        0.926     0.047     2.358     2.401
    81   1 H        0.926     0.046     2.371     2.408
    82   1 H        0.926     0.044     2.393     2.419
    83   1 H        0.926     0.045     2.388     2.416
    84   1 H        0.926     0.045     2.387     2.416
    85   1 H        0.926     0.071     2.079     2.255
    86   1 H        0.926     0.053     2.286     2.365
    87   1 H        0.926     0.050     2.325     2.385
    88   1 H        0.926     0.050     2.315     2.379
    89   1 H        0.926     0.039     2.458     2.452
    90   1 H        0.926     0.041     2.431     2.438
    91   1 H        0.926     0.044     2.394     2.420
    92   1 H        0.926     0.047     2.355     2.400
    93   1 H        0.926     0.046     2.368     2.406
    94   1 H        0.926     0.044     2.390     2.417
    95   1 H        0.926     0.045     2.386     2.416
    96   1 H        0.926     0.045     2.389     2.417
    97   1 H        0.926     0.069     2.097     2.264

molecular dipole:
                 x           y           z       tot (Debye)
 q only:       -0.120      -1.338       1.262
   full:       -0.102      -1.096       0.988       3.758

 projected vibrational frequencies (cm⁻¹)
eigval :       -0.00    -0.00    -0.00     0.00     0.00     0.00
eigval :        9.58    12.55    17.36    19.23    20.53    29.16
eigval :       31.17    34.18    39.46    48.70    54.88    70.72
eigval :       72.57    75.33    77.04    90.92    92.77    95.29
eigval :      110.21   112.98   117.47   125.62   131.67   137.89
eigval :      147.08   150.12   159.45   167.34   172.82   193.33
eigval :      201.66   211.31   225.96   228.05   234.29   243.70
eigval :      246.21   261.78   267.63   269.63   269.81   270.57
eigval :      294.01   299.16   319.77   322.26   324.94   336.48
eigval :      344.08   367.16   370.37   373.78   388.80   391.41
eigval :      392.58   413.85   415.84   419.35   420.01   430.85
eigval :      432.45   434.57   435.96   454.18   483.66   491.22
eigval :      512.59   513.11   513.77   528.54   532.12   534.00
eigval :      534.17   547.27   557.03   577.01   581.22   585.37
eigval :      589.53   608.64   609.99   612.06   614.39   639.60
eigval :      645.47   647.30   650.70   673.32   673.65   676.02
eigval :      690.29   697.34   708.80   710.69   722.13   752.44
eigval :      754.75   764.68   766.24   767.48   767.93   772.40
eigval :      773.44   775.95   777.32   781.39   785.22   798.46
eigval :      834.30   849.77   857.13   860.85   863.33   864.90
eigval :      872.69   873.66   889.57   891.92   893.99   896.78
eigval :      898.12   899.05   902.91   903.86   904.00   906.71
eigval :      907.99   913.88   915.53   919.02   920.40   922.05
eigval :      922.43   927.87   941.36   961.45   974.14   984.18
eigval :      990.36  1001.13  1008.26  1010.21  1014.94  1030.23
eigval :     1051.64  1057.62  1066.20  1066.45  1069.55  1070.11
eigval :     1081.04  1096.72  1113.60  1113.65  1114.04  1127.49
eigval :     1128.27  1130.74  1138.18  1138.43  1144.55  1152.26
eigval :     1169.93  1171.88  1175.31  1176.10  1178.61  1179.52
eigval :     1181.78  1187.63  1194.15  1212.71  1217.87  1226.52
eigval :     1227.18  1230.37  1239.37  1244.80  1246.18  1258.95
eigval :     1261.90  1264.60  1277.33  1278.65  1279.06  1282.72
eigval :     1286.92  1287.72  1288.42  1294.64  1313.26  1320.89
eigval :     1326.17  1328.11  1328.36  1329.88  1333.55  1336.39
eigval :     1339.46  1342.81  1347.17  1351.95  1359.53  1361.09
eigval :     1362.10  1369.72  1379.94  1400.49  1401.47  1406.49
eigval :     1407.55  1411.25  1414.81  1424.76  1435.13  1441.05
eigval :     1442.75  1454.70  1457.78  1458.24  1477.30  1477.77
eigval :     1479.27  1486.89  1496.36  1498.24  1498.64  1500.55
eigval :     1502.12  1502.82  1505.14  1507.65  1540.90  1547.42
eigval :     1561.76  1562.07  1571.64  1571.94  1576.96  1577.12
eigval :     1596.76  1599.74  1630.88  1637.34  2918.44  2943.78
eigval :     2952.46  2954.83  2955.51  2963.24  2964.07  2967.41
eigval :     2970.62  2972.00  2976.38  2996.32  3008.50  3014.89
eigval :     3024.87  3027.62  3033.53  3081.96  3082.00  3082.26
eigval :     3082.28  3082.52  3084.25  3087.92  3088.23  3089.08
eigval :     3089.31  3093.69  3095.11  3095.42  3095.71  3096.84
eigval :     3097.14  3100.19  3100.62  3103.05  3103.96  3104.25
eigval :     3104.57  3122.49  3123.53

   temp. (K)  partition function   enthalpy   heat capacity  entropy
                                   cal/mol     cal/K/mol   cal/K/mol   J/K/mol
 298.15  VIB  0.229E+23            28489.011    176.118    178.185
         ROT  0.125E+09              888.752      2.981     40.025
         INT  0.286E+31            29377.763    179.099    218.210
         TR   0.198E+29             1481.254      4.968     45.695
         TOT                       30859.0172   184.0670   263.9047  1104.1772

       T/K    H(0)-H(T)+PV         H(T)/Eh          T*S/Eh         G(T)/Eh
   ------------------------------------------------------------------------
    298.15    0.491770E-01    0.808636E+00    0.125390E+00    0.683246E+00
   ------------------------------------------------------------------------

         :::::::::::::::::::::::::::::::::::::::::::::::::::::
         ::                  THERMODYNAMIC                  ::
         :::::::::::::::::::::::::::::::::::::::::::::::::::::
         :: total free energy        -147.577202392476 Eh   ::
         ::.................................................::
         :: total energy             -148.260448306567 Eh   ::
         :: zero point energy           0.759458566682 Eh   ::
         :: G(RRHO) w/o ZPVE           -0.076212652591 Eh   ::
         :: G(RRHO) contrib.            0.683245914091 Eh   ::
         :::::::::::::::::::::::::::::::::::::::::::::::::::::

           -------------------------------------------------
          | TOTAL ENERGY             -148.260448306567 Eh   |
          | TOTAL ENTHALPY           -147.451812765787 Eh   |
          | TOTAL FREE ENERGY        -147.577202392476 Eh   |
          | GRADIENT NORM               0.000040357671 Eh/α |
          | HOMO-LUMO GAP               0.018600283188 eV   |
           -------------------------------------------------

 * finished run on 2025/08/30 at 04:03:39.728
