   * xtb version 6.7.1 (edcfbbe) compiled by 'albert@albert-system' on 2024-07-22

   ID    Z sym.   atoms
    1    9 F      1, 4, 8, 10, 12, 14, 16, 19, 21, 23, 25, 27, 31, 33, 35,
                  37, 39, 42, 44, 46, 48, 50, 54, 56, 58, 60, 62
    2    6 C      2, 3, 5-7, 9, 11, 13, 15, 17, 18, 20, 22, 24, 26, 28-30,
                  32, 34, 36, 38, 40, 41, 43, 45, 47, 49, 52, 53, 55, 57, 59,
                  61
    3    5 B      51

          program call               : xtb data2507/gas/Et3SiH/Et3SiH_gas_T1_crest.xyz --gfn 2 --spinpol --tblite --uhf 2 --ohess vtight --parallel 40 --molden --ceasefiles --namespace data2507/gas/Et3SiH/Et3SiH_gas_T1_finalOpt
 * total energy  :  -201.5326749 Eh     change       -0.1004702E-07 Eh
 * total energy  :  -201.5327751 Eh     change       -0.1001945E-03 Eh
 * total energy  :  -201.5328785 Eh     change       -0.1033338E-03 Eh
 * total energy  :  -201.5328911 Eh     change       -0.1267003E-04 Eh
 * total energy  :  -201.5329037 Eh     change       -0.1260905E-04 Eh
 * total energy  :  -201.5329069 Eh     change       -0.3197395E-05 Eh
 * total energy  :  -201.5329087 Eh     change       -0.1791268E-05 Eh
 * total energy  :  -201.5329103 Eh     change       -0.1539823E-05 Eh
 * total energy  :  -201.5329121 Eh     change       -0.1816256E-05 Eh
 * total energy  :  -201.5329137 Eh     change       -0.1581278E-05 Eh
 * total energy  :  -201.5329147 Eh     change       -0.1053408E-05 Eh
 * total energy  :  -201.5329154 Eh     change       -0.6725452E-06 Eh
 * total energy  :  -201.5329159 Eh     change       -0.5081035E-06 Eh
 * total energy  :  -201.5329163 Eh     change       -0.3910281E-06 Eh
 * total energy  :  -201.5329166 Eh     change       -0.3060451E-06 Eh
 * total energy  :  -201.5329167 Eh     change       -0.6426569E-07 Eh
   *** GEOMETRY OPTIMIZATION CONVERGED AFTER 16 ITERATIONS ***

 final structure:
================
62
 xtb: 6.7.1 (edcfbbe)
F           -0.87252617262329       -0.68903257389433        3.80523796972236
C           -0.55225070332727       -0.35220385984448        2.57324274056605
C            0.68372933187999        0.30757116404230        2.34896833415350
F            1.60270935938709        0.52211589846254        3.28482007177309
C            0.98011821833366        0.62271725877727        0.90558053267029
C            0.67681445950944        2.09369583482007        0.59440607055109
C            0.75669100206935        2.60956243515776       -0.70234379054112
F            1.17396078834832        1.84407861668676       -1.71298731224978
C            0.44691080266343        3.93002407051745       -1.00907532575660
F            0.51853401714692        4.33609685360854       -2.27376492215440
C            0.05302126783114        4.80757782532828       -0.00532410768082
F           -0.24495946905691        6.06745719352641       -0.28505679434424
C           -0.01690832314773        4.33123377554113        1.29850774354488
F           -0.37818330196424        5.13910923916358        2.28803671310462
C            0.28598329915644        3.00037591610614        1.58130886900641
F            0.16539620910369        2.62942421857885        2.85523558244107
C            2.48710460366880        0.34618114306136        0.76907290118861
C            3.46235882541459        1.24657896644399        0.33143683252930
F            3.18843262516107        2.50610521063075       -0.01188361914889
C            4.81353144462995        0.90465004269735        0.25462208925905
F            5.67524377712355        1.81117089557054       -0.18991934565133
C            5.26070568582277       -0.34997321104221        0.64842673059860
F            6.54062118295213       -0.67761710548307        0.56401004095973
C            4.32674276119289       -1.23883524551161        1.16965706476241
F            4.69713611214199       -2.44013736445273        1.60278459254380
C            2.98871799296900       -0.87463701994361        1.24310144177237
F            2.16860950865487       -1.75759555061564        1.83520577157915
C           -0.03889444625348       -0.39468156437443        0.11383413140030
C           -0.78385021450285        0.22533902311928       -1.05826890169732
C           -1.67832335689087        1.28115395228457       -0.82768970869432
F           -1.90629397854314        1.71848520492380        0.42526503087473
C           -2.40257624161493        1.92041311067618       -1.82431628946751
F           -3.19794097361693        2.93737086501965       -1.49566303518311
C           -2.29867613344459        1.49552894213973       -3.14429774149389
F           -2.97991637967332        2.09334608763217       -4.11051795926899
C           -1.48522733634187        0.40056769001685       -3.40521185592844
F           -1.39224788669677       -0.08003851876387       -4.63893274570153
C           -0.76310606108044       -0.22352917527968       -2.38719763244185
F           -0.08357721470198       -1.29893757849558       -2.78127233306996
C            0.68923681740321       -1.66266235568604       -0.31045318583892
C            1.80046005914559       -1.62931892690041       -1.16224511250242
F            2.21902385213226       -0.46946280138287       -1.67909729177149
C            2.50206951788411       -2.76451028742422       -1.54945128096013
F            3.56524747878396       -2.63366292985849       -2.34000580529234
C            2.10270855839477       -4.01815345413045       -1.10120850815328
F            2.76082645598003       -5.11040762904474       -1.46092219049631
C            0.99705853821793       -4.09243096605561       -0.26292246291191
F            0.57945083886501       -5.26957114082280        0.19073941231372
C            0.32004366406025       -2.93757624134223        0.12380670027453
F           -0.69436339717504       -3.12233489510250        0.96990138725711
B           -1.22212579536235       -0.69062495866853        1.27104532549675
C           -2.68485608519216       -1.07460503053052        1.04322258564202
C           -3.67719797071508       -0.74984670959334        2.00463199681655
F           -3.32847638107054       -0.04244342152476        3.07768012299212
C           -5.00604189739575       -1.11201635137521        1.87492235090339
F           -5.88940875516218       -0.78258571427745        2.81513313978714
C           -5.43421428422956       -1.81242831201717        0.74195523923038
F           -6.70868658146297       -2.15605906909333        0.59839755222841
C           -4.49642892901372       -2.13262129951355       -0.24791804750410
F           -4.88557449301067       -2.79048950138459       -1.33910182624449
C           -3.17482730145347       -1.76515974485728       -0.08826345351272
F           -2.31275480840523       -2.11376284794754       -1.05837167538165

 projected vibrational frequencies (cm⁻¹)
eigval :       -0.00    -0.00     0.00     0.00     0.00     0.00
eigval :       16.08    22.34    24.79    31.19    34.09    36.75
eigval :       39.92    42.51    43.81    50.56    53.44    62.33
eigval :       74.41    80.40    91.88    98.31   107.91   112.08
eigval :      115.21   118.67   123.03   127.24   134.10   136.70
eigval :      138.81   143.59   144.17   147.38   151.08   157.37
eigval :      166.94   170.20   173.44   179.78   190.06   192.91
eigval :      199.91   210.47   228.00   239.04   241.04   241.93
eigval :      242.63   243.48   244.68   244.79   246.76   248.97
eigval :      251.03   256.16   260.32   260.85   266.75   283.27
eigval :      291.50   295.34   297.95   302.04   305.50   308.19
eigval :      332.51   336.76   338.79   342.64   347.28   349.80
eigval :      371.21   392.50   396.24   404.66   406.06   410.46
eigval :      410.89   413.90   414.99   417.57   421.88   423.13
eigval :      426.26   433.32   442.83   444.68   446.11   453.08
eigval :      468.13   472.35   474.29   533.81   555.51   561.11
eigval :      565.38   565.70   566.73   567.14   569.98   577.18
eigval :      582.27   584.20   585.60   587.44   590.30   592.12
eigval :      593.58   611.20   621.93   626.65   633.29   638.50
eigval :      645.15   650.82   671.79   694.62   698.21   703.96
eigval :      709.02   733.47   745.48   757.71   769.55   810.10
eigval :      860.54   910.72   937.15   955.41   960.94   965.86
eigval :      972.27   979.66   981.77   984.39  1008.93  1048.35
eigval :     1090.05  1095.84  1097.48  1107.54  1108.49  1112.33
eigval :     1117.16  1119.12  1133.50  1139.64  1151.85  1219.19
eigval :     1220.67  1224.28  1224.79  1227.91  1269.72  1285.80
eigval :     1287.49  1288.87  1290.57  1309.62  1333.94  1362.35
eigval :     1375.98  1393.42  1398.71  1405.10  1409.61  1436.97
eigval :     1444.55  1447.35  1448.82  1457.09  1473.21  1484.29
eigval :     1486.38  1487.65  1489.41  1496.62  1536.49  1545.46
eigval :     1547.82  1554.47  1558.59  1561.19  1564.53  1565.14

   temp. (K)  partition function   enthalpy   heat capacity  entropy
                                   cal/mol     cal/K/mol   cal/K/mol   J/K/mol
 298.15  VIB  0.579E+24            32581.415    185.577    202.905
         ROT  0.967E+08              888.752      2.981     39.520
         INT  0.560E+32            33470.167    188.558    242.425
         TR   0.275E+29             1481.254      4.968     46.351
         TOT                       34951.4212   193.5264   288.7762  1208.2398

       T/K    H(0)-H(T)+PV         H(T)/Eh          T*S/Eh         G(T)/Eh
   ------------------------------------------------------------------------
    298.15    0.556986E-01    0.324042E+00    0.137207E+00    0.186835E+00
   ------------------------------------------------------------------------

         :::::::::::::::::::::::::::::::::::::::::::::::::::::
         ::                  THERMODYNAMIC                  ::
         :::::::::::::::::::::::::::::::::::::::::::::::::::::
         :: total free energy        -201.346081814203 Eh   ::
         ::.................................................::
         :: total energy             -201.532916582848 Eh   ::
         :: zero point energy           0.268343048024 Eh   ::
         :: G(RRHO) w/o ZPVE           -0.081508279379 Eh   ::
         :: G(RRHO) contrib.            0.186834768645 Eh   ::
         :::::::::::::::::::::::::::::::::::::::::::::::::::::

           -------------------------------------------------
          | TOTAL ENERGY             -201.532916582848 Eh   |
          | TOTAL ENTHALPY           -201.208874899850 Eh   |
          | TOTAL FREE ENERGY        -201.346081814203 Eh   |
          | GRADIENT NORM               0.000174170290 Eh/α |
           -------------------------------------------------

 * finished run on 2025/09/09 at 22:30:07.354
