   * xtb version 6.7.1 (edcfbbe) compiled by 'albert@albert-system' on 2024-07-22

   ID    Z sym.   atoms
    1    9 F      1, 4, 8, 10, 12, 14, 16, 19, 21, 23, 25, 27, 31, 33, 35,
                  37, 39, 42, 44, 46, 48, 50, 54, 56, 58, 60, 62
    2    6 C      2, 3, 5-7, 9, 11, 13, 15, 17, 18, 20, 22, 24, 26, 28-30,
                  32, 34, 36, 38, 40, 41, 43, 45, 47, 49, 52, 53, 55, 57, 59,
                  61
    3    5 B      51

          program call               : xtb data2507/gas/Et3SiH/Et3SiH.xyz --gfn 2 --ohess vtight --parallel 40 --molden --ceasefiles --namespace data2507/gas/Et3SiH/Et3SiH_gas_S0_preOpt
          :  Hamiltonian                  GFN2-xTB          :
 * total energy  :  -201.4496015 Eh     change       -0.2903562E-09 Eh
 * total energy  :  -201.5218418 Eh     change       -0.7224024E-01 Eh
 * total energy  :  -201.5503678 Eh     change       -0.2852609E-01 Eh
 * total energy  :  -201.5595984 Eh     change       -0.9230542E-02 Eh
 * total energy  :  -201.5650462 Eh     change       -0.5447833E-02 Eh
 * total energy  :  -201.5684440 Eh     change       -0.3397780E-02 Eh
 * total energy  :  -201.5715737 Eh     change       -0.3129699E-02 Eh
 * total energy  :  -201.5750126 Eh     change       -0.3438876E-02 Eh
 * total energy  :  -201.5788028 Eh     change       -0.3790239E-02 Eh
 * total energy  :  -201.5827378 Eh     change       -0.3934958E-02 Eh
 * total energy  :  -201.6242338 Eh     change       -0.2160077E-05 Eh
 * total energy  :  -201.6242364 Eh     change       -0.2530298E-05 Eh
 * total energy  :  -201.6242394 Eh     change       -0.2991229E-05 Eh
 * total energy  :  -201.6242428 Eh     change       -0.3451518E-05 Eh
 * total energy  :  -201.6242462 Eh     change       -0.3366197E-05 Eh
 * total energy  :  -201.6242487 Eh     change       -0.2571580E-05 Eh
 * total energy  :  -201.6242504 Eh     change       -0.1707378E-05 Eh
 * total energy  :  -201.6242516 Eh     change       -0.1177492E-05 Eh
 * total energy  :  -201.6242516 Eh     change       -0.8344841E-08 Eh
   *** GEOMETRY OPTIMIZATION CONVERGED AFTER 94 ITERATIONS ***

 final structure:
================
62
 xtb: 6.7.1 (edcfbbe)
F           -1.06596354872919        1.78869243741316       -3.18692605855018
C           -0.56454421863421        1.22840253966167       -2.08364279162429
C            0.72958305301315        1.33972700014508       -1.74097142868336
F            1.66453564532023        2.01395683952595       -2.38958762875406
C            1.04760934646120        0.81545747899517       -0.34468953501837
C            2.44840003450120        0.21928415496201       -0.27459846301852
C            3.30166819768401        0.31182363274871        0.82741636236577
F            2.96403624186065        0.99853130344425        1.91238530648839
C            4.56622381860981       -0.27450740648798        0.84046365964739
F            5.32635090972873       -0.14909009841246        1.92140440566713
C            5.03179445053537       -0.97937398025000       -0.26338541834699
F            6.22925628007036       -1.54600105888630       -0.25249781387576
C            4.21248993820019       -1.07122268184481       -1.38291594855992
F            4.61000742126104       -1.74131617325483       -2.46125963062503
C            2.95743436893156       -0.47381960885691       -1.37567958892787
F            2.22480027505480       -0.60475465074776       -2.49151993393083
C            0.93372093351800        2.16827433372284        0.37390952555577
C            1.99690408457741        3.07644632300691        0.32367461129794
F            3.15675378028657        2.75030062932916       -0.25383811577426
C            1.91172795087202        4.36089735107643        0.85421699135122
F            2.96857887268438        5.16197757444891        0.78867478911248
C            0.72859624943806        4.80512348189569        1.43258666892397
F            0.63696229589798        6.02660724611511        1.93843390993798
C           -0.36068514136298        3.94061649022366        1.45717526612165
F           -1.51499621078910        4.32378000517688        1.99028054093221
C           -0.24999594825174        2.66304617470612        0.92194264796964
F           -1.34428025627025        1.89218819058162        0.99222124012802
C           -0.11575684430667       -0.26980890144800       -0.10853865152448
C            0.37730166461084       -1.60525801820454       -0.68891399689614
C           -0.03123207858311       -2.09604762837714       -1.92677586645002
F           -0.85855520855295       -1.37930820544398       -2.68729581443530
C            0.39309063909318       -3.32411824637221       -2.42718065108513
F           -0.03109249291627       -3.73182535029342       -3.61412928987454
C            1.26210528933042       -4.11606548721086       -1.68244209802687
F            1.68026319302040       -5.28416833416471       -2.14538020467477
C            1.68573288764981       -3.65625198307141       -0.43930090211462
F            2.52613469428358       -4.37693852922112        0.29831689117309
C            1.23845047690953       -2.42913706960500        0.03752803050263
F            1.68014131257091       -2.04519727005346        1.24656354120759
C           -0.56036274635720       -0.62087802640639        1.31975527720764
C           -0.18636721788768       -0.05520091506270        2.53830398762286
F            0.68376102732570        0.94785327804247        2.62969804344934
C           -0.69383488608997       -0.48083311018521        3.76732796362562
F           -0.28184513676679        0.13652703862675        4.87018208835516
C           -1.60700926775979       -1.52090031526259        3.84541770561855
F           -2.09477877266362       -1.92457600072227        5.01050639870724
C           -1.98678492814725       -2.12991554588068        2.65551502682022
F           -2.84792229215288       -3.14387037894850        2.65668776334026
C           -1.46317265547744       -1.68532777795895        1.44838035315739
F           -1.85794031363187       -2.35997457425029        0.36427525748635
B           -1.30658711290216        0.31312552319988       -1.09859194703396
C           -2.87456402468953        0.24145549230065       -1.13223248942098
C           -3.56626769841179        1.45424743307209       -1.01273456231021
F           -2.87867248572205        2.58796352919621       -0.84201623237424
C           -4.95107056364782        1.54838990102142       -1.06518944588026
F           -5.54845734683136        2.72838617228318       -0.91492548901589
C           -5.70983412533556        0.40353130365444       -1.29331181891211
F           -7.03471892289249        0.47292585266086       -1.34941203537930
C           -5.05615741865246       -0.80816279493143       -1.48726206232297
F           -5.75699695229573       -1.90853520435123       -1.75186706582814
C           -3.66644081090994       -0.87459316478650       -1.41212824869743
F           -3.10753270570121       -2.05255922036468       -1.68210002580288

          :  Hamiltonian                  GFN2-xTB          :
         :: gradient norm              0.000067326480 Eh/a0 ::
         :: HOMO-LUMO gap              2.822804442171 eV    ::
         :: SCC energy              -203.082188704961 Eh    ::
         :: -> dispersion             -0.108394949238 Eh    ::
         :: repulsion energy           1.457937072110 Eh    ::

    * Orbital Energies and Occupations

         #    Occupation            Energy/Eh            Energy/eV
      -------------------------------------------------------------
         1        2.0000           -0.9143581             -24.8810
       ...           ...                  ...                  ...
       152        2.0000           -0.5119868             -13.9319
       153        2.0000           -0.5023562             -13.6698
       154        2.0000           -0.4961547             -13.5011
       155        2.0000           -0.4942909             -13.4503
       156        2.0000           -0.4925464             -13.4029
       157        2.0000           -0.4877760             -13.2731
       158        2.0000           -0.4855374             -13.2121
       159        2.0000           -0.4831851             -13.1481
       160        2.0000           -0.4826576             -13.1338
       161        2.0000           -0.4796069             -13.0508
       162        2.0000           -0.4760316             -12.9535
       163        2.0000           -0.4720279             -12.8445
       164        2.0000           -0.4695983             -12.7784 (HOMO)
       165                         -0.3658622              -9.9556 (LUMO)
       166                         -0.3410244              -9.2797
       167                         -0.3354348              -9.1276
       168                         -0.3332569              -9.0684
       169                         -0.3314608              -9.0195
       170                         -0.3269679              -8.8973
       171                         -0.3247207              -8.8361
       172                         -0.3245100              -8.8304
       173                         -0.3214444              -8.7469
       174                         -0.3128570              -8.5133
       175                         -0.3106677              -8.4537
       ...                                ...                  ...
       248                          0.5695587              15.4985
      -------------------------------------------------------------
                  HL-Gap            0.1037361 Eh            2.8228 eV

     #   Z          covCN         q      C6AA      α(0)
     1   9 F        0.786    -0.174    10.971     3.913
     2   6 C        2.687     0.074    26.326     8.397
     3   6 C        2.854     0.162    24.496     8.112
     4   9 F        0.785    -0.146    10.695     3.863
     5   6 C        3.915     0.042    19.806     6.325
     6   6 C        2.960    -0.018    28.452     8.749
     7   6 C        2.786     0.162    24.487     8.106
     8   9 F        0.789    -0.151    10.737     3.871
     9   6 C        2.778     0.146    24.811     8.158
    10   9 F        0.788    -0.136    10.599     3.846
    11   6 C        2.776     0.150    24.720     8.143
    12   9 F        0.787    -0.133    10.565     3.840
    13   6 C        2.777     0.139    24.955     8.182
    14   9 F        0.787    -0.145    10.687     3.862
    15   6 C        2.790     0.139    24.952     8.182
    16   9 F        0.788    -0.179    11.020     3.921
    17   6 C        3.023    -0.014    28.331     8.731
    18   6 C        2.789     0.156    24.611     8.126
    19   9 F        0.788    -0.163    10.859     3.892
    20   6 C        2.777     0.147    24.794     8.155
    21   9 F        0.788    -0.137    10.601     3.846
    22   6 C        2.776     0.150    24.729     8.145
    23   9 F        0.787    -0.132    10.561     3.839
    24   6 C        2.777     0.148    24.771     8.152
    25   9 F        0.788    -0.138    10.616     3.849
    26   6 C        2.789     0.148    24.771     8.153
    27   9 F        0.788    -0.177    11.001     3.918
    28   6 C        3.814    -0.025    21.009     6.524
    29   6 C        2.970    -0.020    28.495     8.756
    30   6 C        2.788     0.155    24.637     8.131
    31   9 F        0.790    -0.140    10.637     3.853
    32   6 C        2.776     0.152    24.684     8.137
    33   9 F        0.788    -0.130    10.533     3.834
    34   6 C        2.777     0.151    24.709     8.142
    35   9 F        0.787    -0.129    10.532     3.833
    36   6 C        2.775     0.139    24.956     8.182
    37   9 F        0.787    -0.144    10.671     3.859
    38   6 C        2.789     0.136    25.021     8.194
    39   9 F        0.787    -0.185    11.085     3.933
    40   6 C        2.962    -0.014    28.367     8.736
    41   6 C        2.794     0.154    24.650     8.133
    42   9 F        0.790    -0.166    10.892     3.899
    43   6 C        2.783     0.143    24.882     8.170
    44   9 F        0.788    -0.141    10.644     3.854
    45   6 C        2.775     0.147    24.793     8.155
    46   9 F        0.787    -0.137    10.609     3.847
    47   6 C        2.780     0.141    24.921     8.177
    48   9 F        0.787    -0.145    10.681     3.861
    49   6 C        2.801     0.137    25.007     8.192
    50   9 F        0.789    -0.175    10.983     3.915
    51   5 B        2.733     0.286    17.171     6.940
    52   6 C        2.880    -0.086    30.161     9.003
    53   6 C        2.791     0.155    24.636     8.131
    54   9 F        0.788    -0.172    10.945     3.908
    55   6 C        2.774     0.142    24.892     8.171
    56   9 F        0.787    -0.147    10.706     3.865
    57   6 C        2.777     0.148    24.780     8.153
    58   9 F        0.787    -0.141    10.643     3.854
    59   6 C        2.775     0.141    24.911     8.175
    60   9 F        0.787    -0.147    10.700     3.864
    61   6 C        2.786     0.159    24.558     8.117
    62   9 F        0.788    -0.159    10.821     3.886

molecular dipole:
                 x           y           z       tot (Debye)
 q only:        0.122      -0.017       0.113
   full:        0.227      -0.040       0.100       0.639

 projected vibrational frequencies (cm⁻¹)
eigval :       -0.00    -0.00    -0.00     0.00     0.00     0.00
eigval :        4.73    17.07    21.90    23.87    32.89    34.00
eigval :       34.80    38.49    49.83    60.43    61.72    65.23
eigval :       81.06    82.68    95.46    98.58   112.51   116.11
eigval :      120.52   123.01   127.33   130.95   133.73   141.19
eigval :      143.02   144.51   147.14   148.79   159.41   161.99
eigval :      166.99   168.90   172.75   178.90   188.58   191.36
eigval :      209.68   220.39   231.27   232.93   238.25   242.31
eigval :      242.71   243.35   243.75   244.62   245.54   248.00
eigval :      253.41   254.95   258.10   261.73   264.53   282.09
eigval :      294.48   296.28   297.73   301.93   305.50   318.19
eigval :      333.12   338.08   338.76   345.77   354.30   360.73
eigval :      392.81   404.74   407.88   409.19   409.72   410.64
eigval :      414.44   416.33   418.29   419.21   421.22   421.69
eigval :      432.98   439.09   449.41   451.09   456.32   460.94
eigval :      470.48   472.66   506.60   555.80   565.24   565.71
eigval :      566.52   567.43   568.83   575.46   582.33   584.14
eigval :      586.34   588.67   588.70   589.35   589.66   596.03
eigval :      600.30   616.19   629.05   629.44   643.25   645.59
eigval :      651.44   670.03   673.64   689.93   707.52   711.12
eigval :      720.67   734.02   746.15   767.22   779.75   856.13
eigval :      884.66   947.04   954.43   960.25   962.43   970.57
eigval :      984.74   993.86   998.78  1011.76  1028.26  1054.48
eigval :     1101.58  1105.72  1109.27  1111.69  1114.16  1115.41
eigval :     1117.59  1124.88  1128.98  1148.24  1210.41  1221.45
eigval :     1223.50  1224.72  1229.36  1237.42  1283.22  1288.67
eigval :     1289.94  1292.90  1293.71  1295.41  1387.09  1406.57
eigval :     1408.68  1413.15  1414.20  1440.69  1447.70  1453.53
eigval :     1457.39  1461.07  1484.47  1488.08  1489.64  1492.71
eigval :     1498.95  1545.05  1552.02  1554.31  1556.16  1557.74
eigval :     1563.54  1566.98  1567.99  1569.87  1573.63  1642.63

   temp. (K)  partition function   enthalpy   heat capacity  entropy
                                   cal/mol     cal/K/mol   cal/K/mol   J/K/mol
 298.15  VIB  0.170E+25            32310.805    184.291    202.224
         ROT  0.993E+08              888.752      2.981     39.573
         INT  0.168E+33            33199.557    187.271    241.797
         TR   0.275E+29             1481.254      4.968     46.351
         TOT                       34680.8108   192.2396   288.1480  1205.6113

       T/K    H(0)-H(T)+PV         H(T)/Eh          T*S/Eh         G(T)/Eh
   ------------------------------------------------------------------------
    298.15    0.552674E-01    0.327107E+00    0.136908E+00    0.190198E+00
   ------------------------------------------------------------------------

         :::::::::::::::::::::::::::::::::::::::::::::::::::::
         ::                  THERMODYNAMIC                  ::
         :::::::::::::::::::::::::::::::::::::::::::::::::::::
         :: total free energy        -201.434053256606 Eh   ::
         ::.................................................::
         :: total energy             -201.624251632844 Eh   ::
         :: zero point energy           0.271839407016 Eh   ::
         :: G(RRHO) w/o ZPVE           -0.081641030777 Eh   ::
         :: G(RRHO) contrib.            0.190198376238 Eh   ::
         :::::::::::::::::::::::::::::::::::::::::::::::::::::

           -------------------------------------------------
          | TOTAL ENERGY             -201.624251632844 Eh   |
          | TOTAL ENTHALPY           -201.297144835878 Eh   |
          | TOTAL FREE ENERGY        -201.434053256606 Eh   |
          | GRADIENT NORM               0.000067261779 Eh/α |
          | HOMO-LUMO GAP               2.822804240972 eV   |
           -------------------------------------------------

 * finished run on 2025/09/09 at 22:21:06.273
