   * xtb version 6.7.1 (edcfbbe) compiled by 'albert@albert-system' on 2024-07-22

   ID    Z sym.   atoms
    1    9 F      1, 4, 8, 10, 12, 14, 16, 19, 21, 23, 25, 27, 31, 33, 35,
                  37, 39, 42, 44, 46, 48, 50, 54, 56, 58, 60, 62
    2    6 C      2, 3, 5-7, 9, 11, 13, 15, 17, 18, 20, 22, 24, 26, 28-30,
                  32, 34, 36, 38, 40, 41, 43, 45, 47, 49, 52, 53, 55, 57, 59,
                  61
    3    5 B      51

          program call               : xtb data2507/gas/Et3SiH/Et3SiH_gas_S0_finalOpt.xtbopt.xyz --gfn 2 --spinpol --tblite --uhf 2 --ohess vtight --parallel 40 --molden --ceasefiles --namespace data2507/gas/Et3SiH/Et3SiH_gas_T1_preOpt
 * total energy  :  -201.5236838 Eh     change       -0.3323453E-07 Eh
 * total energy  :  -201.5300925 Eh     change       -0.6408637E-02 Eh
 * total energy  :  -201.5320063 Eh     change       -0.1913820E-02 Eh
 * total energy  :  -201.5323208 Eh     change       -0.3144811E-03 Eh
 * total energy  :  -201.5325586 Eh     change       -0.2378749E-03 Eh
 * total energy  :  -201.5326718 Eh     change       -0.1131366E-03 Eh
 * total energy  :  -201.5327378 Eh     change       -0.6599228E-04 Eh
 * total energy  :  -201.5327730 Eh     change       -0.3523452E-04 Eh
 * total energy  :  -201.5327941 Eh     change       -0.2112080E-04 Eh
 * total energy  :  -201.5328114 Eh     change       -0.1725991E-04 Eh
 * total energy  :  -201.5329076 Eh     change       -0.7562857E-06 Eh
 * total energy  :  -201.5329082 Eh     change       -0.6596499E-06 Eh
 * total energy  :  -201.5329088 Eh     change       -0.5813538E-06 Eh
 * total energy  :  -201.5329094 Eh     change       -0.6225328E-06 Eh
 * total energy  :  -201.5329099 Eh     change       -0.5279531E-06 Eh
 * total energy  :  -201.5329106 Eh     change       -0.6100332E-06 Eh
 * total energy  :  -201.5329111 Eh     change       -0.5554967E-06 Eh
 * total energy  :  -201.5329116 Eh     change       -0.5240277E-06 Eh
 * total energy  :  -201.5329116 Eh     change       -0.6985431E-08 Eh
   *** GEOMETRY OPTIMIZATION CONVERGED AFTER 44 ITERATIONS ***

 final structure:
================
62
 xtb: 6.7.1 (edcfbbe)
F           -0.85310446005964       -0.73634176613265        3.80012397768567
C           -0.53774219586154       -0.38511554402938        2.57086196686032
C            0.70058261091470        0.27010963094563        2.34776779310303
F            1.62567196765378        0.46957535502485        3.28085287041764
C            0.98921447567286        0.60328738206916        0.90684352866445
C            0.68821187631081        2.07881597395825        0.61632018991277
C            0.76272173948631        2.61046930261741       -0.67435550545281
F            1.17408888615434        1.85658305225324       -1.69620741769232
C            0.45364766885847        3.93511917288732       -0.96306863588264
F            0.51912071411620        4.35673489256912       -2.22301123117787
C            0.06670133140653        4.80084607039547        0.05363071980158
F           -0.23054266954730        6.06457735264754       -0.20896077830361
C            0.00311097463458        4.30869611458060        1.35189438751413
F           -0.35080689128617        5.10503730104465        2.35334391833596
C            0.30471672692366        2.97382076782248        1.61655701577870
F            0.19058623144772        2.58723360680071        2.88642074773777
C            2.49469053874534        0.32467740768120        0.75794630631219
C            3.46964393763967        1.22869099254748        0.32708504924496
F            3.19698324708464        2.49353470782017        0.00269482667924
C            4.81957599186788        0.88485291736001        0.23819188774837
F            5.68086272143448        1.79542326870155       -0.19885220025075
C            5.26603192572434       -0.37593298688815        0.61260606254881
F            6.54468350605010       -0.70530808797935        0.51654424036203
C            4.33297084863005       -1.26948064177445        1.12738602808805
F            4.70308165427230       -2.47719057129677        1.54254821617657
C            2.99620744147852       -0.90332642107436        1.21324888776645
F            2.17752975802081       -1.79203909552455        1.79879670874799
C           -0.03853480942290       -0.39986923330470        0.10822028660591
C           -0.78460975624011        0.23543929305896       -1.05498361611335
C           -1.67427462556712        1.29243604563456       -0.81142543978549
F           -1.89680980988426        1.71875534996970        0.44633996970314
C           -2.39940665210013        1.94393302988174       -1.79949902693270
F           -3.19032380104651        2.96018854293718       -1.45820567429898
C           -2.30098891102453        1.53201137848079       -3.12397949936280
F           -2.98272015533908        2.14199310051035       -4.08217161296060
C           -1.49255057088953        0.43658124783846       -3.39805998356745
F           -1.40479201738046       -0.03218786937462       -4.63668749344243
C           -0.77020162929406       -0.20055302828131       -2.38836014381487
F           -0.09756594876957       -1.27553743720166       -2.79533176153872
C            0.68138853250172       -1.66679868290449       -0.33247593973672
C            1.79021746800649       -1.62932982514430       -1.18727942359089
F            2.21153050587150       -0.46590444695834       -1.69403126317191
C            2.48569765075254       -2.76350462434115       -1.58814925934105
F            3.54751632037503       -2.62919756804208       -2.37994959786924
C            2.08158333006022       -4.01995173800926       -1.15209440719472
F            2.73394911585872       -5.11130929097997       -1.52477799818252
C            0.97709418108709       -4.09825350362626       -0.31261741362019
F            0.55465001686816       -5.27843737764583        0.12849828267465
C            0.30639265602060       -2.94449646107441        0.08816521865774
F           -0.70808940158447       -3.13312331469295        0.93330197858964
B           -1.21762866451561       -0.70184535699617        1.26835639781084
C           -2.68533223778101       -1.06887115670464        1.04499915563384
C           -3.66849884933128       -0.74401743922640        2.01580215622173
F           -3.30583805374653       -0.05324948299246        3.09505172640972
C           -5.00220375047444       -1.08895894556461        1.88922974799796
F           -5.87650141183900       -0.76027865749481        2.83814641680416
C           -5.44474528649524       -1.77056504012173        0.75034658899888
F           -6.72402604999415       -2.09714726907542        0.60966847001928
C           -4.51618630928246       -2.09003420737799       -0.24846303106467
F           -4.91925555464653       -2.72996055224570       -1.34526998681230
C           -3.18940467907596       -1.74034295722715       -0.09175470398115
F           -2.33650298928623       -2.08745693368850       -1.07047310369773

 projected vibrational frequencies (cm⁻¹)
eigval :       -0.00    -0.00     0.00     0.00     0.00     0.00
eigval :       15.98    21.64    24.57    30.99    33.99    36.63
eigval :       39.76    42.09    43.89    50.26    53.09    62.05
eigval :       74.08    79.98    91.84    97.98   107.46   112.08
eigval :      115.16   118.48   122.57   127.01   133.99   136.70
eigval :      138.84   143.58   144.01   147.25   151.10   157.32
eigval :      166.87   170.11   173.29   179.75   189.92   193.10
eigval :      200.10   210.41   227.92   239.08   241.00   241.74
eigval :      242.45   243.35   244.64   244.75   246.60   248.84
eigval :      250.84   256.08   260.16   260.84   266.72   283.38
eigval :      291.34   295.25   297.81   301.93   305.57   308.18
eigval :      332.13   336.68   338.87   342.51   347.04   349.90
eigval :      371.19   392.44   396.20   404.62   406.00   410.40
eigval :      410.91   413.88   414.96   417.58   421.82   423.09
eigval :      426.30   433.64   442.76   444.79   446.12   453.14
eigval :      468.05   472.37   474.30   533.75   555.41   561.05
eigval :      565.22   565.55   566.67   567.08   569.84   577.16
eigval :      582.27   584.13   585.51   587.43   590.29   591.93
eigval :      593.50   611.30   621.89   626.50   633.23   638.37
eigval :      645.23   650.80   671.79   694.47   698.12   703.79
eigval :      708.94   733.29   745.32   757.65   769.40   809.91
eigval :      860.64   910.30   936.93   955.41   960.99   965.70
eigval :      972.13   979.28   981.37   983.95  1008.84  1048.29
eigval :     1089.86  1095.58  1097.70  1107.30  1108.34  1112.01
eigval :     1117.05  1118.85  1133.07  1139.37  1151.57  1218.13
eigval :     1219.57  1223.75  1223.95  1226.84  1269.69  1285.75
eigval :     1287.51  1288.86  1290.50  1309.78  1333.84  1361.94
eigval :     1375.87  1393.12  1398.62  1405.30  1409.17  1436.77
eigval :     1444.17  1447.55  1448.73  1456.99  1473.18  1484.04
eigval :     1485.96  1487.54  1489.20  1496.96  1536.16  1545.29
eigval :     1547.37  1554.26  1558.26  1560.87  1564.31  1564.91

   temp. (K)  partition function   enthalpy   heat capacity  entropy
                                   cal/mol     cal/K/mol   cal/K/mol   J/K/mol
 298.15  VIB  0.646E+24            32592.282    185.551    203.021
         ROT  0.966E+08              888.752      2.981     39.520
         INT  0.625E+32            33481.034    188.532    242.541
         TR   0.275E+29             1481.254      4.968     46.351
         TOT                       34962.2882   193.5003   288.8919  1208.7238

       T/K    H(0)-H(T)+PV         H(T)/Eh          T*S/Eh         G(T)/Eh
   ------------------------------------------------------------------------
    298.15    0.557160E-01    0.324002E+00    0.137262E+00    0.186740E+00
   ------------------------------------------------------------------------

         :::::::::::::::::::::::::::::::::::::::::::::::::::::
         ::                  THERMODYNAMIC                  ::
         :::::::::::::::::::::::::::::::::::::::::::::::::::::
         :: total free energy        -201.346171176005 Eh   ::
         ::.................................................::
         :: total energy             -201.532911642326 Eh   ::
         :: zero point energy           0.268286389660 Eh   ::
         :: G(RRHO) w/o ZPVE           -0.081545923339 Eh   ::
         :: G(RRHO) contrib.            0.186740466321 Eh   ::
         :::::::::::::::::::::::::::::::::::::::::::::::::::::

           -------------------------------------------------
          | TOTAL ENERGY             -201.532911642326 Eh   |
          | TOTAL ENTHALPY           -201.208909300000 Eh   |
          | TOTAL FREE ENERGY        -201.346171176005 Eh   |
          | GRADIENT NORM               0.000053157851 Eh/α |
           -------------------------------------------------

 * finished run on 2025/09/09 at 22:25:19.267
