   * xtb version 6.7.1 (edcfbbe) compiled by 'albert@albert-system' on 2024-07-22

   ID    Z sym.   atoms
    1    9 F      1, 4, 8, 10, 12, 14, 16, 19, 21, 23, 25, 27, 31, 33, 35,
                  37, 39, 42, 44, 46, 48, 50, 54, 56, 58, 60, 62
    2    6 C      2, 3, 5-7, 9, 11, 13, 15, 17, 18, 20, 22, 24, 26, 28-30,
                  32, 34, 36, 38, 40, 41, 43, 45, 47, 49, 52, 53, 55, 57, 59,
                  61
    3    5 B      51

          program call               : xtb data2507/gas/Et3SiH/Et3SiH_gas_S0_crest.xyz --gfn 2 --ohess vtight --parallel 40 --molden --ceasefiles --namespace data2507/gas/Et3SiH/Et3SiH_gas_S0_finalOpt
          :  Hamiltonian                  GFN2-xTB          :
 * total energy  :  -201.6305074 Eh     change       -0.3641105E-09 Eh
 * total energy  :  -201.6305265 Eh     change       -0.1904222E-04 Eh
 * total energy  :  -201.6305465 Eh     change       -0.2000747E-04 Eh
 * total energy  :  -201.6305676 Eh     change       -0.2116552E-04 Eh
 * total energy  :  -201.6305885 Eh     change       -0.2087481E-04 Eh
 * total energy  :  -201.6306083 Eh     change       -0.1979947E-04 Eh
 * total energy  :  -201.6306270 Eh     change       -0.1868644E-04 Eh
 * total energy  :  -201.6306444 Eh     change       -0.1736076E-04 Eh
 * total energy  :  -201.6306602 Eh     change       -0.1583026E-04 Eh
 * total energy  :  -201.6306744 Eh     change       -0.1422143E-04 Eh
 * total energy  :  -201.6308613 Eh     change       -0.6323939E-06 Eh
 * total energy  :  -201.6308619 Eh     change       -0.5996303E-06 Eh
 * total energy  :  -201.6308625 Eh     change       -0.5652990E-06 Eh
 * total energy  :  -201.6308630 Eh     change       -0.5294138E-06 Eh
 * total energy  :  -201.6308635 Eh     change       -0.4969897E-06 Eh
 * total energy  :  -201.6308640 Eh     change       -0.4664426E-06 Eh
 * total energy  :  -201.6308644 Eh     change       -0.4374900E-06 Eh
 * total energy  :  -201.6308648 Eh     change       -0.4109131E-06 Eh
 * total energy  :  -201.6308648 Eh     change       -0.4456211E-08 Eh
   *** GEOMETRY OPTIMIZATION CONVERGED AFTER 68 ITERATIONS ***

 final structure:
================
62
 xtb: 6.7.1 (edcfbbe)
F           -0.79008155519602       -0.90944774062572        3.78924746068162
C           -0.42629195849039       -0.52068262407632        2.56932773707314
C            0.70112821666220        0.17772235910764        2.34846537929643
F            1.59361227719755        0.53204175865032        3.26453997357599
C            0.99835665613955        0.56497319105132        0.91032787190067
C            0.65568159211533        2.03188784840440        0.65364867207183
C            0.74900294878441        2.57780736063099       -0.63045349979816
F            1.20493372800344        1.83681316935046       -1.64424739636918
C            0.41902199826943        3.89648636235187       -0.91815599386344
F            0.50685457543308        4.33106143877867       -2.17282175441254
C           -0.01289051660324        4.74339914218856        0.09658891820028
F           -0.33205477275380        6.00285573255670       -0.16275522985366
C           -0.10153511816726        4.23691389158370        1.38742105636424
F           -0.50395238693071        5.01608274758829        2.38419344723780
C            0.22066609415534        2.90559430597694        1.65159641079923
F            0.07037413535510        2.50741358877218        2.91104445726033
C            2.50786678037509        0.31998264346042        0.75468015988417
C            3.46241611511312        1.25299763518349        0.34012676210088
F            3.16452772330701        2.52024623505850        0.04884937037197
C            4.81992533349727        0.94333412764493        0.23860537563186
F            5.65745655338689        1.88316605368442       -0.18259554684282
C            5.29733623142181       -0.31368865072287        0.58459478685093
F            6.58240782036628       -0.61228645849534        0.47583314933174
C            4.38640195585661       -1.23702697277385        1.08400428233084
F            4.78457192992944       -2.44443767187875        1.47405371126492
C            3.04100543676718       -0.90416469582483        1.18294204934897
F            2.25464646641665       -1.83196029748871        1.75114770284341
C           -0.02467056707937       -0.41994578765638        0.08262112923621
C           -0.76948395755693        0.21667918392697       -1.08634364110478
C           -1.69937616590467        1.22576455830674       -0.80668060964547
F           -1.92639966325868        1.59320991765875        0.47020594480131
C           -2.45702512134913        1.87734533163554       -1.77019537883434
F           -3.29447280197206        2.84300051882653       -1.39597503519070
C           -2.34289475518529        1.50914585338426       -3.10588475759878
F           -3.05338340719840        2.11703035760389       -4.04426468244581
C           -1.48751892297754        0.46003287096397       -3.41673582766516
F           -1.38486632105384        0.03536441621640       -4.66973239589427
C           -0.73274157247092       -0.17572153886824       -2.42870133196118
F           -0.01186076175689       -1.20685507373974       -2.86481141763735
C            0.71452505046969       -1.67527585560189       -0.35938531671679
C            1.81664134299281       -1.66565959630773       -1.21730287260084
F            2.26916033914160       -0.51925163004431       -1.73103922829141
C            2.48108974267669       -2.82898303034607       -1.59349948886070
F            3.53954243241164       -2.74274968122424       -2.39440079768933
C            2.05289900045993       -4.06560381819375       -1.12325428323192
F            2.67859202896711       -5.17751230267113       -1.47970570039466
C            0.96023969501916       -4.10897632248451       -0.26290124760008
F            0.52609739597760       -5.26871738103440        0.21621404117102
C            0.32729133797949       -2.92836349560494        0.10861262651645
F           -0.67994696463086       -3.01974883811291        0.98698569922172
B           -1.13247820932759       -0.78790702171602        1.23769483363457
C           -2.65510022506373       -1.06950173686235        1.02705139666654
C           -3.59947054853789       -0.64489341436698        1.97025072798203
F           -3.20491176406235        0.04967279717675        3.02952744666917
C           -4.96270746423958       -0.88868247447978        1.82440018378592
F           -5.82203317701885       -0.46081553585598        2.74421520558581
C           -5.42816314617574       -1.58268441885194        0.71058466569577
F           -6.72351086655802       -1.82527438448667        0.56194973015602
C           -4.51827942854587       -2.01090606409244       -0.25407459203326
F           -4.94398207237659       -2.66028711031746       -1.33616428296158
C           -3.16663571044292       -1.74486620171976       -0.08475171862033
F           -2.32408592206967       -2.17164340397871       -1.03742337773181

          :  Hamiltonian                  GFN2-xTB          :
         :: gradient norm              0.000050216147 Eh/a0 ::
         :: HOMO-LUMO gap              2.796280473635 eV    ::
         :: SCC energy              -203.087669436898 Eh    ::
         :: -> dispersion             -0.110923126486 Eh    ::
         :: repulsion energy           1.456804592101 Eh    ::

    * Orbital Energies and Occupations

         #    Occupation            Energy/Eh            Energy/eV
      -------------------------------------------------------------
         1        2.0000           -0.9151465             -24.9024
       ...           ...                  ...                  ...
       152        2.0000           -0.5138170             -13.9817
       153        2.0000           -0.5019651             -13.6592
       154        2.0000           -0.4942417             -13.4490
       155        2.0000           -0.4919864             -13.3876
       156        2.0000           -0.4908317             -13.3562
       157        2.0000           -0.4900407             -13.3347
       158        2.0000           -0.4895862             -13.3223
       159        2.0000           -0.4857588             -13.2182
       160        2.0000           -0.4832464             -13.1498
       161        2.0000           -0.4811681             -13.0932
       162        2.0000           -0.4790397             -13.0353
       163        2.0000           -0.4778869             -13.0040
       164        2.0000           -0.4703282             -12.7983 (HOMO)
       165                         -0.3675668             -10.0020 (LUMO)
       166                         -0.3454546              -9.4003
       167                         -0.3354042              -9.1268
       168                         -0.3345716              -9.1042
       169                         -0.3334603              -9.0739
       170                         -0.3314499              -9.0192
       171                         -0.3293741              -8.9627
       172                         -0.3214844              -8.7480
       173                         -0.3203557              -8.7173
       174                         -0.3183053              -8.6615
       175                         -0.3118887              -8.4869
       ...                                ...                  ...
       248                          0.5654878              15.3877
      -------------------------------------------------------------
                  HL-Gap            0.1027614 Eh            2.7963 eV

     #   Z          covCN         q      C6AA      α(0)
     1   9 F        0.786    -0.164    10.871     3.895
     2   6 C        2.681     0.085    26.079     8.357
     3   6 C        2.808     0.167    24.395     8.092
     4   9 F        0.786    -0.153    10.758     3.874
     5   6 C        3.896     0.039    19.860     6.335
     6   6 C        2.961    -0.022    28.559     8.766
     7   6 C        2.789     0.147    24.785     8.155
     8   9 F        0.788    -0.168    10.915     3.903
     9   6 C        2.777     0.138    24.969     8.184
    10   9 F        0.787    -0.146    10.690     3.862
    11   6 C        2.776     0.151    24.712     8.142
    12   9 F        0.787    -0.133    10.565     3.839
    13   6 C        2.778     0.146    24.818     8.160
    14   9 F        0.788    -0.136    10.600     3.846
    15   6 C        2.786     0.154    24.658     8.134
    16   9 F        0.789    -0.148    10.708     3.865
    17   6 C        2.968    -0.013    28.329     8.730
    18   6 C        2.788     0.160    24.539     8.114
    19   9 F        0.789    -0.164    10.874     3.895
    20   6 C        2.781     0.147    24.792     8.155
    21   9 F        0.788    -0.136    10.593     3.845
    22   6 C        2.775     0.152    24.690     8.138
    23   9 F        0.787    -0.131    10.545     3.836
    24   6 C        2.778     0.141    24.914     8.175
    25   9 F        0.787    -0.144    10.673     3.859
    26   6 C        2.793     0.139    24.952     8.183
    27   9 F        0.788    -0.184    11.069     3.930
    28   6 C        3.809    -0.030    21.098     6.538
    29   6 C        2.958    -0.014    28.362     8.735
    30   6 C        2.796     0.123    25.292     8.238
    31   9 F        0.788    -0.194    11.173     3.948
    32   6 C        2.778     0.135    25.028     8.194
    33   9 F        0.787    -0.149    10.725     3.868
    34   6 C        2.775     0.149    24.758     8.149
    35   9 F        0.787    -0.133    10.561     3.839
    36   6 C        2.781     0.147    24.796     8.156
    37   9 F        0.788    -0.134    10.576     3.842
    38   6 C        2.789     0.161    24.504     8.109
    39   9 F        0.789    -0.158    10.813     3.884
    40   6 C        2.961    -0.015    28.389     8.739
    41   6 C        2.789     0.151    24.714     8.143
    42   9 F        0.788    -0.167    10.897     3.899
    43   6 C        2.776     0.140    24.923     8.177
    44   9 F        0.787    -0.143    10.665     3.858
    45   6 C        2.777     0.152    24.692     8.139
    46   9 F        0.787    -0.131    10.552     3.837
    47   6 C        2.776     0.149    24.758     8.150
    48   9 F        0.787    -0.138    10.615     3.848
    49   6 C        2.791     0.149    24.748     8.149
    50   9 F        0.795    -0.147    10.702     3.864
    51   5 B        2.749     0.277    17.271     6.956
    52   6 C        2.881    -0.089    30.229     9.014
    53   6 C        2.786     0.163    24.478     8.104
    54   9 F        0.788    -0.144    10.676     3.860
    55   6 C        2.773     0.143    24.866     8.167
    56   9 F        0.787    -0.142    10.655     3.856
    57   6 C        2.778     0.150    24.724     8.144
    58   9 F        0.787    -0.136    10.593     3.844
    59   6 C        2.773     0.140    24.939     8.179
    60   9 F        0.787    -0.150    10.729     3.869
    61   6 C        2.787     0.147    24.790     8.156
    62   9 F        0.788    -0.186    11.087     3.933

molecular dipole:
                 x           y           z       tot (Debye)
 q only:        0.118      -0.207       0.034
   full:        0.187      -0.206      -0.032       0.711

 projected vibrational frequencies (cm⁻¹)
eigval :       -0.00    -0.00    -0.00     0.00     0.00     0.00
eigval :       16.60    23.29    23.94    31.00    34.45    37.57
eigval :       39.06    41.32    44.56    50.98    55.07    63.99
eigval :       76.84    83.60    96.22   102.22   109.72   114.36
eigval :      117.40   121.76   126.31   133.70   136.11   139.23
eigval :      143.65   144.45   148.19   150.79   155.27   160.43
eigval :      168.59   171.19   177.96   181.15   189.56   195.14
eigval :      200.60   220.08   229.57   240.27   241.76   242.41
eigval :      242.88   243.71   244.51   245.35   247.26   250.02
eigval :      251.26   254.13   258.84   260.98   267.65   291.95
eigval :      292.35   296.25   298.25   303.19   306.77   309.26
eigval :      330.58   339.73   341.88   345.96   348.80   366.00
eigval :      394.77   406.93   407.21   408.24   411.04   413.68
eigval :      415.67   417.31   418.32   421.46   424.19   425.92
eigval :      435.46   442.46   444.69   447.57   458.79   465.44
eigval :      472.86   475.24   509.71   553.70   565.97   566.54
eigval :      566.63   567.25   569.59   576.93   584.52   587.61
eigval :      588.86   590.38   591.23   591.88   593.16   594.16
eigval :      595.29   616.77   632.05   634.03   639.68   642.37
eigval :      654.05   663.35   679.03   700.22   706.24   712.37
eigval :      721.10   745.46   752.54   767.60   779.14   845.29
eigval :      890.04   926.49   955.02   964.76   965.57   970.08
eigval :      974.36   985.51   992.30  1013.17  1028.25  1058.36
eigval :     1098.38  1101.70  1107.55  1111.00  1113.91  1115.62
eigval :     1119.56  1124.80  1144.34  1145.52  1214.19  1221.19
eigval :     1222.12  1225.72  1230.18  1233.40  1285.93  1286.86
eigval :     1290.02  1292.22  1293.17  1316.07  1385.11  1397.66
eigval :     1400.57  1412.79  1414.59  1441.35  1443.92  1448.94
eigval :     1454.63  1460.39  1482.16  1488.43  1490.23  1492.15
eigval :     1498.08  1542.77  1547.73  1550.17  1554.76  1555.74
eigval :     1563.25  1565.61  1568.04  1568.58  1572.24  1641.40

   temp. (K)  partition function   enthalpy   heat capacity  entropy
                                   cal/mol     cal/K/mol   cal/K/mol   J/K/mol
 298.15  VIB  0.270E+24            32245.669    184.123    200.454
         ROT  0.955E+08              888.752      2.981     39.496
         INT  0.258E+32            33134.421    187.104    239.950
         TR   0.275E+29             1481.254      4.968     46.351
         TOT                       34615.6749   192.0724   286.3010  1197.8835

       T/K    H(0)-H(T)+PV         H(T)/Eh          T*S/Eh         G(T)/Eh
   ------------------------------------------------------------------------
    298.15    0.551636E-01    0.327105E+00    0.136031E+00    0.191074E+00
   ------------------------------------------------------------------------

         :::::::::::::::::::::::::::::::::::::::::::::::::::::
         ::                  THERMODYNAMIC                  ::
         :::::::::::::::::::::::::::::::::::::::::::::::::::::
         :: total free energy        -201.439790493679 Eh   ::
         ::.................................................::
         :: total energy             -201.630864844798 Eh   ::
         :: zero point energy           0.271941618801 Eh   ::
         :: G(RRHO) w/o ZPVE           -0.080867267681 Eh   ::
         :: G(RRHO) contrib.            0.191074351119 Eh   ::
         :::::::::::::::::::::::::::::::::::::::::::::::::::::

           -------------------------------------------------
          | TOTAL ENERGY             -201.630864844798 Eh   |
          | TOTAL ENTHALPY           -201.303759636689 Eh   |
          | TOTAL FREE ENERGY        -201.439790493679 Eh   |
          | GRADIENT NORM               0.000050221177 Eh/α |
          | HOMO-LUMO GAP               2.796280000026 eV   |
           -------------------------------------------------

 * finished run on 2025/09/09 at 22:25:08.715
