   * xtb version 6.7.1 (edcfbbe) compiled by 'albert@albert-system' on 2024-07-22

   ID    Z sym.   atoms
    1    6 C      1-6, 8-28, 30-39
    2    7 N      7, 29
    3    8 O      40, 41
    4    1 H      42-69

          program call               : xtb data2507/toluene/IDAC-MCO/IDAC-MCO_toluene_S0_finalOpt.xtbopt.xyz --gfn 2 --uhf 2 --gbsa toluene --ohess vtight --parallel 40 --molden --ceasefiles --namespace data2507/toluene/IDAC-MCO/IDAC-MCO_toluene_T1_preOpt
      * Solvation model:               GBSA
        Solvent                        toluene
        Solvent mass                       9.2140E+01 g/mol
          :  Hamiltonian                  GFN2-xTB          :
 * total energy  :  -107.5431519 Eh     change       -0.6531337E-08 Eh
 * total energy  :  -107.5467233 Eh     change       -0.3571408E-02 Eh
 * total energy  :  -107.5478564 Eh     change       -0.1133047E-02 Eh
 * total energy  :  -107.5479546 Eh     change       -0.9818844E-04 Eh
 * total energy  :  -107.5480044 Eh     change       -0.4987756E-04 Eh
 * total energy  :  -107.5480148 Eh     change       -0.1036975E-04 Eh
 * total energy  :  -107.5480221 Eh     change       -0.7343383E-05 Eh
 * total energy  :  -107.5480250 Eh     change       -0.2885169E-05 Eh
 * total energy  :  -107.5480283 Eh     change       -0.3272239E-05 Eh
 * total energy  :  -107.5480300 Eh     change       -0.1736186E-05 Eh
 * total energy  :  -107.5480328 Eh     change       -0.5952682E-06 Eh
 * total energy  :  -107.5480327 Eh     change        0.5027570E-07 Eh
 * total energy  :  -107.5480332 Eh     change       -0.4839807E-06 Eh
 * total energy  :  -107.5480337 Eh     change       -0.4666496E-06 Eh
 * total energy  :  -107.5480341 Eh     change       -0.3653370E-06 Eh
 * total energy  :  -107.5480344 Eh     change       -0.3683994E-06 Eh
 * total energy  :  -107.5480347 Eh     change       -0.3109857E-06 Eh
 * total energy  :  -107.5480349 Eh     change       -0.1521091E-06 Eh
 * total energy  :  -107.5480349 Eh     change       -0.1072952E-07 Eh
   *** GEOMETRY OPTIMIZATION CONVERGED AFTER 22 ITERATIONS ***

 final structure:
================
69
 xtb: 6.7.1 (edcfbbe)
C            8.54214753252582       -0.19335278912451        1.84438998235890
C            7.28816014873290       -0.40640714595423        1.05768512692225
C            6.16115769948250        0.30939819486906        1.20089681165398
C            5.01112085989306        0.02389266254767        0.38774218857630
C            3.82888852772375        0.72713154285525        0.48304322602839
C            2.72983700290255        0.39734145492427       -0.32776294533512
N            1.53809774060270        1.10992118833997       -0.22547394431437
C            1.42713339803221        2.50112622112019       -0.19626907493869
C            2.41175903349679        3.46145804098284       -0.30377749064025
C            2.02457205968771        4.79941551692737       -0.27348982174763
C            0.68660802787134        5.15827514818566       -0.14311150572469
C           -0.30905633320633        4.20070931351372       -0.05937279495362
C            0.05444664033154        2.85634496887661       -0.09915228442957
C           -0.68045709218184        1.63504050030470       -0.08479096332739
C           -2.02283765251659        1.32044526429991       -0.01926190542942
C           -2.42215187432733       -0.02432873918272        0.00582425587643
C           -1.45542314086987       -1.07532503254840       -0.01022286078581
C           -0.11265817596102       -0.75298588201643       -0.09500975499616
C            0.28675775406212        0.57522848580719       -0.15846266902032
C           -1.86122347172317       -2.53078290780034        0.07491471885359
C           -1.33550408082237       -3.26699299716453       -1.17414038554554
C           -1.24094703999037       -3.14375140968635        1.34696423002169
C           -3.36190652818257       -2.70606142830778        0.13973882144801
C           -3.90740766238077       -3.98073692745395        0.21479656430290
C           -5.27333203672873       -4.19021632213103        0.26990189061590
C           -6.13525891012398       -3.10306275816542        0.24750944497695
C           -5.62468375312872       -1.82698957281904        0.17700089209317
C           -4.23933567896965       -1.61043699059575        0.12642768753018
N           -3.75562555923203       -0.31789359666750        0.06481020597398
C           -4.69645468640195        0.75874211002169        0.06561879476645
C           -5.15717131977476        1.27162387296957        1.27151681701359
C           -6.06518280334735        2.31655257745914        1.26642106707953
C           -6.51179476136980        2.84530185138918        0.06608505688785
C           -6.05088894597880        2.32943038724624       -1.13446957572482
C           -5.14243476331458        1.28482624789275       -1.13998770270798
C            2.84710980439338       -0.66364428927787       -1.25495006445559
C            4.01157591830882       -1.36264536899228       -1.36676844171607
C            5.13189736910470       -1.04883876460906       -0.54836114837055
C            6.33682886288519       -1.78256694741890       -0.66913620159014
O            6.55341111942063       -2.72497491918066       -1.43921199522380
O            7.40875623748716       -1.42385222012694        0.15949331707876
H            9.36645056061233        0.03123564570733        1.16883248397459
H            8.79761073164351       -1.10509198966440        2.38275096599033
H            8.41349314248240        0.62249753462032        2.54800676371622
H            6.11360213169930        1.10661047990669        1.92446108935704
H            3.73289007574213        1.51170059017538        1.21894805795517
H            3.44983138267535        3.19247550630142       -0.42426568632449
H            2.77831858974562        5.56732578204793       -0.35826238391259
H            0.42269348392919        6.20550541807854       -0.11710087329222
H           -1.34646530046574        4.48499086270001        0.02877167516983
H           -2.75685930086110        2.10800117974064        0.01868534812757
H            0.63634798954902       -1.52799432339588       -0.09804435883641
H           -1.61179257875673       -4.31676095666933       -1.15059848918725
H           -1.75316439669783       -2.82067757716892       -2.07475807685274
H           -0.25268434614549       -3.20487416376561       -1.22880104395088
H           -1.48497942564048       -4.19884028259822        1.42682694068431
H           -0.15935483574014       -3.04549369481700        1.33099787645915
H           -1.61951531721303       -2.63344243257534        2.23060798324852
H           -3.25283367726777       -4.83782805670679        0.23117462359075
H           -5.66314064824636       -5.19482416767163        0.32753884297284
H           -7.20344105357609       -3.25194855325990        0.28587370185566
H           -6.29704396283452       -0.98427546050280        0.15963006941896
H           -4.80125183960922        0.85282971482357        2.20087112294401
H           -6.42289177293933        2.71723659414042        2.20271070519619
H           -7.21957618071071        3.66027855967535        0.06617123275104
H           -6.39792829010918        2.73962587196401       -2.07064905973272
H           -4.77533068912500        0.87636932592697       -2.06958754344427
H            2.01623076039496       -0.87855921634514       -1.91079332308848
H            4.12654810957757       -2.16213489953737       -2.08349518302227

          :  Hamiltonian                  GFN2-xTB          :
         :: gradient norm              0.000068986783 Eh/a0 ::
         :: HOMO-LUMO gap              0.233167715698 eV    ::
         :: SCC energy              -109.385912318980 Eh    ::
         :: -> dispersion             -0.094455050600 Eh    ::
         :: -> Gsolv                  -0.063392217687 Eh    ::
         :: repulsion energy           1.837877423404 Eh    ::

    * Orbital Energies and Occupations

         #    Occupation            Energy/Eh            Energy/eV
      -------------------------------------------------------------
         1        2.0000           -0.7207676             -19.6131
       ...           ...                  ...                  ...
        88        2.0000           -0.4241106             -11.5406
        89        2.0000           -0.4208175             -11.4510
        90        2.0000           -0.4196886             -11.4203
        91        2.0000           -0.4183516             -11.3839
        92        2.0000           -0.4159360             -11.3182
        93        2.0000           -0.4122907             -11.2190
        94        2.0000           -0.4012554             -10.9187
        95        2.0000           -0.3897746             -10.6063
        96        2.0000           -0.3841160             -10.4523
        97        2.0000           -0.3781574             -10.2902
        98        1.9997           -0.3711382             -10.0992
        99        1.0003           -0.3559293              -9.6853
       100        0.9891           -0.2615754              -7.1178 (HOMO)
       101        0.0109           -0.2530061              -6.8846 (LUMO)
       102        0.0000           -0.2465410              -6.7087
       103        0.0000           -0.2439268              -6.6376
       104                         -0.2415766              -6.5736
       105                         -0.2385886              -6.4923
       106                         -0.2361620              -6.4263
       107                         -0.2201952              -5.9918
       108                         -0.1997835              -5.4364
       109                         -0.1922050              -5.2302
       110                         -0.1754625              -4.7746
       111                         -0.1588385              -4.3222
       ...                                ...                  ...
       192                          0.7405398              20.1511
      -------------------------------------------------------------
                  HL-Gap            0.0085692 Eh            0.2332 eV

     #   Z          covCN         q      C6AA      α(0)
     1   6 C        3.755    -0.120    22.854     6.816
     2   6 C        2.841     0.141    24.918     8.181
     3   6 C        2.905    -0.088    30.218     9.014
     4   6 C        2.980     0.007    27.854     8.657
     5   6 C        2.917    -0.059    29.466     8.901
     6   6 C        2.909     0.029    27.350     8.575
     7   7 N        2.795     0.004    21.184     6.836
     8   6 C        3.076     0.040    27.035     8.525
     9   6 C        2.908    -0.041    29.009     8.832
    10   6 C        2.922    -0.041    29.026     8.835
    11   6 C        2.918    -0.034    28.851     8.808
    12   6 C        2.911    -0.035    28.874     8.811
    13   6 C        3.054    -0.020    28.456     8.748
    14   6 C        3.060    -0.015    28.318     8.727
    15   6 C        2.913    -0.056    29.395     8.891
    16   6 C        2.927     0.060    26.663     8.468
    17   6 C        2.976    -0.017    28.421     8.745
    18   6 C        2.912    -0.048    29.196     8.860
    19   6 C        3.063     0.043    26.963     8.515
    20   6 C        3.909     0.025    20.089     6.371
    21   6 C        3.761    -0.106    22.578     6.774
    22   6 C        3.761    -0.107    22.584     6.774
    23   6 C        2.978     0.001    27.993     8.679
    24   6 C        2.925    -0.031    28.781     8.798
    25   6 C        2.917    -0.030    28.756     8.794
    26   6 C        2.918    -0.028    28.691     8.784
    27   6 C        2.922    -0.047    29.166     8.856
    28   6 C        2.930     0.056    26.746     8.481
    29   7 N        2.756    -0.002    21.297     6.854
    30   6 C        2.933     0.059    26.676     8.470
    31   6 C        2.920    -0.034    28.853     8.809
    32   6 C        2.920    -0.024    28.596     8.769
    33   6 C        2.919    -0.026    28.640     8.776
    34   6 C        2.920    -0.024    28.595     8.769
    35   6 C        2.920    -0.034    28.849     8.808
    36   6 C        2.913    -0.047    29.161     8.855
    37   6 C        2.915    -0.039    28.971     8.826
    38   6 C        2.973    -0.061    29.522     8.912
    39   6 C        2.714     0.304    21.832     7.648
    40   8 O        0.857    -0.542    24.741     6.669
    41   8 O        1.706    -0.299    18.977     5.882
    42   1 H        0.925     0.067     2.118     2.276
    43   1 H        0.925     0.067     2.115     2.274
    44   1 H        0.925     0.065     2.138     2.286
    45   1 H        0.926     0.046     2.371     2.408
    46   1 H        0.926     0.036     2.501     2.473
    47   1 H        0.926     0.036     2.504     2.475
    48   1 H        0.926     0.032     2.560     2.502
    49   1 H        0.926     0.034     2.524     2.484
    50   1 H        0.926     0.037     2.486     2.466
    51   1 H        0.926     0.049     2.338     2.391
    52   1 H        0.926     0.048     2.341     2.393
    53   1 H        0.925     0.050     2.320     2.382
    54   1 H        0.925     0.038     2.478     2.462
    55   1 H        0.925     0.047     2.361     2.403
    56   1 H        0.925     0.050     2.314     2.379
    57   1 H        0.925     0.047     2.362     2.403
    58   1 H        0.925     0.038     2.471     2.458
    59   1 H        0.926     0.049     2.336     2.390
    60   1 H        0.926     0.044     2.392     2.419
    61   1 H        0.926     0.045     2.381     2.413
    62   1 H        0.926     0.046     2.366     2.405
    63   1 H        0.926     0.050     2.321     2.382
    64   1 H        0.926     0.051     2.305     2.374
    65   1 H        0.926     0.049     2.328     2.386
    66   1 H        0.926     0.051     2.308     2.376
    67   1 H        0.926     0.049     2.327     2.385
    68   1 H        0.926     0.035     2.512     2.478
    69   1 H        0.926     0.026     2.648     2.544

molecular dipole:
                 x           y           z       tot (Debye)
 q only:       -8.226       2.175       1.727
   full:       -8.043       2.185       1.731      21.637

 projected vibrational frequencies (cm⁻¹)
eigval :       -0.00    -0.00    -0.00    -0.00    -0.00     0.00
eigval :       11.91    21.45    27.11    32.40    35.43    49.43
eigval :       53.47    57.14    81.77    92.90    99.83   108.15
eigval :      112.35   126.76   135.95   136.96   150.13   157.74
eigval :      161.84   203.92   205.35   214.08   219.70   241.54
eigval :      251.30   257.41   272.28   275.83   289.51   293.61
eigval :      321.72   334.01   336.64   363.33   369.74   372.59
eigval :      386.45   395.84   413.26   421.48   426.87   432.34
eigval :      448.28   475.03   483.80   495.44   505.24   520.92
eigval :      525.95   529.52   537.99   542.25   555.51   556.58
eigval :      572.85   578.24   589.11   592.84   610.66   623.99
eigval :      629.43   657.54   662.40   666.47   668.63   672.51
eigval :      674.85   688.46   696.40   710.00   749.93   761.72
eigval :      762.70   774.12   786.89   801.03   813.41   820.05
eigval :      821.35   843.63   857.21   859.64   869.94   873.95
eigval :      874.81   898.73   900.72   904.38   909.00   909.29
eigval :      917.57   918.04   924.48   928.24   932.96   938.33
eigval :      941.46   953.23   958.24   970.69   991.61  1006.35
eigval :     1011.93  1024.90  1027.66  1064.32  1074.67  1077.66
eigval :     1082.53  1101.62  1108.25  1113.15  1132.23  1139.31
eigval :     1142.72  1151.68  1158.48  1171.95  1176.02  1176.42
eigval :     1183.29  1191.49  1202.83  1209.58  1223.26  1226.40
eigval :     1231.52  1239.84  1249.02  1254.09  1256.31  1271.18
eigval :     1276.92  1285.51  1300.50  1305.92  1306.69  1328.44
eigval :     1335.37  1348.35  1353.14  1376.13  1386.17  1391.50
eigval :     1399.31  1401.74  1409.91  1417.42  1422.94  1428.30
eigval :     1438.46  1442.15  1448.62  1456.60  1459.73  1462.98
eigval :     1466.10  1466.95  1481.92  1484.28  1486.32  1494.83
eigval :     1497.49  1506.67  1532.49  1550.17  1568.42  1573.70
eigval :     1577.33  1578.60  1585.82  1604.81  1651.87  3005.48
eigval :     3020.77  3026.51  3028.80  3046.29  3048.50  3054.49
eigval :     3058.79  3063.48  3074.89  3075.50  3081.20  3084.79
eigval :     3084.99  3086.60  3086.80  3089.09  3090.55  3092.63
eigval :     3093.81  3097.12  3098.20  3102.59  3103.54  3104.70
eigval :     3107.60  3111.53  3118.12

   temp. (K)  partition function   enthalpy   heat capacity  entropy
                                   cal/mol     cal/K/mol   cal/K/mol   J/K/mol
 298.15  VIB  0.258E+15            19764.099    126.258    121.193
         ROT  0.534E+08              888.752      2.981     38.342
         INT  0.138E+23            20652.852    129.239    159.536
         TR   0.119E+29             1481.254      4.968     44.684
         TOT                       22134.1056   134.2067   204.2193   854.4534

       T/K    H(0)-H(T)+PV         H(T)/Eh          T*S/Eh         G(T)/Eh
   ------------------------------------------------------------------------
    298.15    0.352729E-01    0.567677E+00    0.970312E-01    0.470646E+00
   ------------------------------------------------------------------------

         :::::::::::::::::::::::::::::::::::::::::::::::::::::
         ::                  THERMODYNAMIC                  ::
         :::::::::::::::::::::::::::::::::::::::::::::::::::::
         :: total free energy        -107.077389162077 Eh   ::
         ::.................................................::
         :: total energy             -107.548034897235 Eh   ::
         :: zero point energy           0.532403957355 Eh   ::
         :: G(RRHO) w/o ZPVE           -0.061758222197 Eh   ::
         :: G(RRHO) contrib.            0.470645735158 Eh   ::
         :::::::::::::::::::::::::::::::::::::::::::::::::::::

           -------------------------------------------------
          | TOTAL ENERGY             -107.548034897235 Eh   |
          | TOTAL ENTHALPY           -106.980357997322 Eh   |
          | TOTAL FREE ENERGY        -107.077389162077 Eh   |
          | GRADIENT NORM               0.000061859447 Eh/α |
          | HOMO-LUMO GAP               0.233180946204 eV   |
           -------------------------------------------------

 * finished run on 2025/08/29 at 14:10:31.599
