   * xtb version 6.7.1 (edcfbbe) compiled by 'albert@albert-system' on 2024-07-22

   ID    Z sym.   atoms
    1    6 C      1-6, 8-28, 30-39
    2    7 N      7, 29
    3    8 O      40, 41
    4    1 H      42-69

          program call               : xtb data2507/toluene/IDAC-MCO/IDAC-MCO.xyz --gfn 2 --gbsa toluene --ohess vtight --parallel 40 --molden --ceasefiles --namespace data2507/toluene/IDAC-MCO/IDAC-MCO_toluene_S0_preOpt
      * Solvation model:               GBSA
        Solvent                        toluene
        Solvent mass                       9.2140E+01 g/mol
          :  Hamiltonian                  GFN2-xTB          :
 * total energy  :  -107.6077676 Eh     change       -0.1250370E-08 Eh
 * total energy  :  -107.6243077 Eh     change       -0.1654016E-01 Eh
 * total energy  :  -107.6303035 Eh     change       -0.5995725E-02 Eh
 * total energy  :  -107.6313245 Eh     change       -0.1021033E-02 Eh
 * total energy  :  -107.6316440 Eh     change       -0.3194870E-03 Eh
 * total energy  :  -107.6317172 Eh     change       -0.7324548E-04 Eh
 * total energy  :  -107.6317459 Eh     change       -0.2864346E-04 Eh
 * total energy  :  -107.6317669 Eh     change       -0.2099226E-04 Eh
 * total energy  :  -107.6317806 Eh     change       -0.1376916E-04 Eh
 * total energy  :  -107.6317941 Eh     change       -0.1343225E-04 Eh
 * total energy  :  -107.6318399 Eh     change       -0.2628646E-06 Eh
 * total energy  :  -107.6318401 Eh     change       -0.2458703E-06 Eh
 * total energy  :  -107.6318404 Eh     change       -0.2339373E-06 Eh
 * total energy  :  -107.6318406 Eh     change       -0.1963228E-06 Eh
 * total energy  :  -107.6318407 Eh     change       -0.1413183E-06 Eh
 * total energy  :  -107.6318408 Eh     change       -0.1181217E-06 Eh
 * total energy  :  -107.6318409 Eh     change       -0.1163549E-06 Eh
 * total energy  :  -107.6318411 Eh     change       -0.1518726E-06 Eh
 * total energy  :  -107.6318411 Eh     change       -0.2847372E-08 Eh
   *** GEOMETRY OPTIMIZATION CONVERGED AFTER 44 ITERATIONS ***

 final structure:
================
69
 xtb: 6.7.1 (edcfbbe)
C            8.82408240218197       -0.70880135994970        1.44634714650999
C            7.52651583174228       -0.83895844039359        0.72307872368470
C            6.45432788826948       -0.04352563794339        0.89563852970812
C            5.26364887056083       -0.27396520617419        0.13218879292861
C            4.11875083994487        0.51180748374900        0.26463812933535
C            2.99152181379644        0.24979808734010       -0.50028659219701
N            1.85424496539075        1.04151231028964       -0.37533284410091
C            1.81987532352193        2.42616672885716       -0.35448190394629
C            2.85301472479749        3.34190842438889       -0.49314754829616
C            2.53365842476150        4.68737948807876       -0.47786760461499
C            1.21772174902417        5.12197992019308       -0.33976675807140
C            0.18089361147564        4.21554287731038       -0.23184710854860
C            0.47815509516429        2.85967059826282       -0.24429122238376
C           -0.33165492759955        1.67388739523516       -0.18643038161279
C           -1.69168092122205        1.45760170306141       -0.05389748641091
C           -2.18039901874478        0.15249210634286       -0.00378055551426
C           -1.29553917638637       -0.94140257571014       -0.05147711422795
C            0.06681080896872       -0.71553017416736       -0.18226882022420
C            0.54778701285429        0.57838614532969       -0.27664676569436
C           -1.78330748544390       -2.37595552445029        0.04920308769123
C           -1.34390367362177       -3.13716273388193       -1.21642289129440
C           -1.15823360512908       -3.02284167615088        1.30027021468768
C           -3.29399329539765       -2.45838483213233        0.16677514880014
C           -3.90731781766561       -3.70051130712734        0.25651330270728
C           -5.27976585525283       -3.83769771702610        0.35935498346178
C           -6.07312258922392       -2.70423610864396        0.37122826130819
C           -5.49023529469278       -1.45746384999098        0.28709846126618
C           -4.10186465197177       -1.31602195638614        0.18970622650558
N           -3.54733674418894       -0.05142699832910        0.11281811805200
C           -4.40938230542568        1.08342026166955        0.14447001072300
C           -4.81254696896582        1.61567169081269        1.36298052443641
C           -5.65010242462900        2.71728618888928        1.38985062584541
C           -6.08410163785901        3.29022729632780        0.20538843151382
C           -5.68202722311693        2.75934797362304       -1.00953887808815
C           -4.84611568518987        1.65668914913627       -1.04345729580362
C            3.00033582769300       -0.82082986015434       -1.41180752140630
C            4.11626752670555       -1.60784310176407       -1.54321968472357
C            5.25966090500612       -1.34816221842217       -0.77882796417396
C            6.44138285233380       -2.17915416969729       -0.93067566644821
O            6.54272665859968       -3.12574157693228       -1.68831932486434
O            7.52403564997217       -1.87168946828227       -0.16232344345266
H            9.04246057255044       -1.63290991096828        1.97925050830253
H            8.78651271179205        0.11710739661150        2.14821354799877
H            9.62941676968153       -0.54594117634175        0.73169597771254
H            6.48344800404670        0.76743203520473        1.60283649175277
H            4.10913548302196        1.31617420451551        0.98379875228094
H            3.87520559748718        3.02223529992997       -0.62626222533131
H            3.32352870506379        5.41719133801555       -0.58060707280935
H            1.00864130549298        6.18163083691553       -0.32970362727220
H           -0.84266795434203        4.54877916069641       -0.14644337155640
H           -2.36471275836765        2.29676821937643        0.01677434002310
H            0.75326416921094       -1.54658512507616       -0.19729537079185
H           -1.70110378910938       -4.16282141752233       -1.19491049878342
H           -1.75091467704857       -2.65181638838505       -2.10199636362536
H           -0.26107297403046       -3.15969457832232       -1.30162947780067
H           -1.47299068745148       -4.05815288642285        1.39733522532429
H           -0.07297131917847       -3.00100318203893        1.25008443603030
H           -1.47224295621985       -2.48366973723091        2.19247689521955
H           -3.30156812245378       -4.59431549567051        0.24634226133836
H           -5.72324105409771       -4.81986499815832        0.42763445530979
H           -7.14763480218580       -2.78781761134040        0.44631814624646
H           -6.11503803480658       -0.57743919473079        0.29537864508659
H           -4.46835083753769        1.16077590515496        2.28040905641420
H           -5.96354432730550        3.12903082036156        2.33784944128980
H           -6.73636843391606        4.15057694381431        0.22917061156783
H           -6.02063347817377        3.20353971122377       -1.93394875630683
H           -4.52641014179124        1.23454156131366       -1.98504368699615
H            2.13162990330361       -0.99764542051325       -2.02628704545585
H            4.14543664532100       -2.42957564560492       -2.24288063823233

          :  Hamiltonian                  GFN2-xTB          :
         :: gradient norm              0.000031877520 Eh/a0 ::
         :: HOMO-LUMO gap              1.663726007686 eV    ::
         :: SCC energy              -109.485759137226 Eh    ::
         :: -> dispersion             -0.094806711524 Eh    ::
         :: -> Gsolv                  -0.048258937019 Eh    ::
         :: repulsion energy           1.853918055521 Eh    ::

    * Orbital Energies and Occupations

         #    Occupation            Energy/Eh            Energy/eV
      -------------------------------------------------------------
         1        2.0000           -0.7569031             -20.5964
       ...           ...                  ...                  ...
        87        2.0000           -0.4209911             -11.4558
        88        2.0000           -0.4174195             -11.3586
        89        2.0000           -0.4158017             -11.3145
        90        2.0000           -0.4152938             -11.3007
        91        2.0000           -0.4143211             -11.2743
        92        2.0000           -0.4061176             -11.0510
        93        2.0000           -0.4054383             -11.0325
        94        2.0000           -0.4051395             -11.0244
        95        2.0000           -0.3958486             -10.7716
        96        2.0000           -0.3929183             -10.6919
        97        2.0000           -0.3817487             -10.3879
        98        2.0000           -0.3706395             -10.0856
        99        2.0000           -0.3394454              -9.2368 (HOMO)
       100                         -0.2783046              -7.5731 (LUMO)
       101                         -0.2654440              -7.2231
       102                         -0.2452039              -6.6723
       103                         -0.2337946              -6.3619
       104                         -0.2325707              -6.3286
       105                         -0.2240459              -6.0966
       106                         -0.2161541              -5.8819
       107                         -0.2118463              -5.7646
       108                         -0.2047622              -5.5719
       109                         -0.1941572              -5.2833
       110                         -0.1817986              -4.9470
       ...                                ...                  ...
       192                          0.7461887              20.3048
      -------------------------------------------------------------
                  HL-Gap            0.0611408 Eh            1.6637 eV

     #   Z          covCN         q      C6AA      α(0)
     1   6 C        3.756    -0.129    23.022     6.841
     2   6 C        2.846     0.152    24.701     8.145
     3   6 C        2.905    -0.080    29.992     8.980
     4   6 C        2.985     0.029    27.348     8.578
     5   6 C        2.923    -0.054    29.340     8.883
     6   6 C        2.909     0.076    26.307     8.410
     7   7 N        2.800    -0.039    21.993     6.965
     8   6 C        3.069     0.046    26.907     8.506
     9   6 C        2.910    -0.052    29.298     8.876
    10   6 C        2.923    -0.035    28.866     8.811
    11   6 C        2.920    -0.042    29.032     8.836
    12   6 C        2.912    -0.034    28.850     8.808
    13   6 C        3.068    -0.016    28.338     8.729
    14   6 C        3.063    -0.018    28.398     8.739
    15   6 C        2.918    -0.065    29.611     8.923
    16   6 C        2.925     0.053    26.818     8.493
    17   6 C        2.980    -0.014    28.359     8.735
    18   6 C        2.917    -0.057    29.427     8.896
    19   6 C        3.067     0.034    27.184     8.549
    20   6 C        3.909     0.022    20.150     6.380
    21   6 C        3.761    -0.103    22.518     6.765
    22   6 C        3.761    -0.103    22.516     6.764
    23   6 C        2.979    -0.016    28.402     8.742
    24   6 C        2.927    -0.038    28.953     8.824
    25   6 C        2.917    -0.048    29.192     8.860
    26   6 C        2.919    -0.035    28.883     8.813
    27   6 C        2.924    -0.061    29.513     8.909
    28   6 C        2.927     0.059    26.669     8.469
    29   7 N        2.755    -0.075    22.701     7.076
    30   6 C        2.928     0.069    26.448     8.434
    31   6 C        2.921    -0.038    28.938     8.822
    32   6 C        2.920    -0.028    28.699     8.785
    33   6 C        2.919    -0.030    28.759     8.794
    34   6 C        2.920    -0.028    28.697     8.785
    35   6 C        2.921    -0.038    28.937     8.821
    36   6 C        2.920    -0.043    29.057     8.840
    37   6 C        2.918    -0.019    28.478     8.751
    38   6 C        2.979    -0.043    29.058     8.842
    39   6 C        2.718     0.339    21.237     7.544
    40   8 O        0.857    -0.466    23.045     6.436
    41   8 O        1.709    -0.239    17.952     5.721
    42   1 H        0.925     0.082     1.956     2.187
    43   1 H        0.925     0.079     1.992     2.207
    44   1 H        0.925     0.082     1.955     2.186
    45   1 H        0.926     0.071     2.074     2.252
    46   1 H        0.926     0.060     2.201     2.320
    47   1 H        0.926     0.032     2.553     2.499
    48   1 H        0.926     0.032     2.560     2.502
    49   1 H        0.926     0.029     2.595     2.519
    50   1 H        0.926     0.031     2.567     2.506
    51   1 H        0.926     0.030     2.586     2.515
    52   1 H        0.926     0.036     2.500     2.472
    53   1 H        0.925     0.041     2.434     2.440
    54   1 H        0.925     0.031     2.579     2.511
    55   1 H        0.925     0.040     2.450     2.448
    56   1 H        0.925     0.041     2.429     2.437
    57   1 H        0.925     0.039     2.457     2.451
    58   1 H        0.925     0.031     2.579     2.511
    59   1 H        0.926     0.030     2.592     2.518
    60   1 H        0.926     0.023     2.688     2.564
    61   1 H        0.926     0.025     2.664     2.552
    62   1 H        0.926     0.024     2.676     2.558
    63   1 H        0.926     0.041     2.439     2.442
    64   1 H        0.926     0.042     2.425     2.435
    65   1 H        0.926     0.041     2.431     2.438
    66   1 H        0.926     0.042     2.426     2.436
    67   1 H        0.926     0.041     2.442     2.444
    68   1 H        0.926     0.057     2.236     2.338
    69   1 H        0.926     0.054     2.266     2.354

molecular dipole:
                 x           y           z       tot (Debye)
 q only:       -0.667       2.130       1.472
   full:       -0.675       2.128       1.456       6.775

 projected vibrational frequencies (cm⁻¹)
eigval :       -0.00    -0.00    -0.00    -0.00     0.00     0.00
eigval :       11.09    20.65    24.57    27.77    35.05    47.57
eigval :       49.81    57.12    82.88    94.02   105.30   111.25
eigval :      117.08   126.84   133.14   150.64   158.76   161.86
eigval :      164.35   194.72   209.16   215.19   220.11   242.41
eigval :      253.15   262.64   274.77   277.23   295.09   298.86
eigval :      326.35   339.59   340.62   365.73   377.82   382.12
eigval :      388.33   404.60   421.76   426.64   433.00   438.01
eigval :      453.48   476.97   492.76   502.25   507.56   518.21
eigval :      532.27   534.33   540.35   544.01   562.80   572.97
eigval :      579.90   589.54   591.62   620.41   628.01   637.01
eigval :      649.49   665.19   669.67   671.76   675.75   677.46
eigval :      690.78   704.49   719.84   735.05   760.52   768.11
eigval :      775.16   775.89   788.75   823.80   830.31   834.08
eigval :      849.72   863.79   865.85   871.92   875.32   882.62
eigval :      890.19   900.96   905.60   907.69   913.03   919.68
eigval :      920.09   923.60   928.23   934.74   935.17   937.19
eigval :      956.11   971.32   985.31   994.81  1005.22  1012.56
eigval :     1022.66  1024.02  1058.51  1072.22  1076.98  1082.00
eigval :     1087.98  1112.37  1114.96  1118.45  1132.80  1142.63
eigval :     1153.88  1156.15  1166.77  1177.86  1178.09  1178.76
eigval :     1183.32  1192.52  1208.56  1215.27  1230.82  1234.93
eigval :     1239.41  1243.87  1252.86  1262.43  1272.90  1277.18
eigval :     1290.48  1305.05  1306.57  1323.02  1328.39  1335.38
eigval :     1347.37  1359.20  1365.72  1383.77  1389.23  1400.25
eigval :     1415.01  1419.41  1430.77  1438.84  1441.12  1442.13
eigval :     1446.90  1451.25  1457.27  1467.67  1470.29  1481.97
eigval :     1486.88  1488.85  1490.40  1498.29  1502.87  1532.85
eigval :     1564.33  1575.06  1580.75  1581.31  1587.27  1592.50
eigval :     1596.33  1600.27  1616.04  1627.27  1681.50  3013.22
eigval :     3021.11  3023.69  3028.29  3037.26  3039.63  3047.39
eigval :     3051.70  3069.66  3072.79  3074.44  3075.31  3076.25
eigval :     3077.14  3078.88  3084.42  3086.85  3087.40  3088.21
eigval :     3093.15  3094.15  3095.52  3096.65  3100.34  3100.61
eigval :     3104.75  3108.12  3125.93

   temp. (K)  partition function   enthalpy   heat capacity  entropy
                                   cal/mol     cal/K/mol   cal/K/mol   J/K/mol
 298.15  VIB  0.264E+15            19521.170    124.457    119.742
         ROT  0.535E+08              888.752      2.981     38.345
         INT  0.141E+23            20409.922    127.437    158.087
         TR   0.119E+29             1481.254      4.968     44.684
         TOT                       21891.1758   132.4055   202.7704   848.3913

       T/K    H(0)-H(T)+PV         H(T)/Eh          T*S/Eh         G(T)/Eh
   ------------------------------------------------------------------------
    298.15    0.348858E-01    0.571036E+00    0.963428E-01    0.474693E+00
   ------------------------------------------------------------------------

         :::::::::::::::::::::::::::::::::::::::::::::::::::::
         ::                  THERMODYNAMIC                  ::
         :::::::::::::::::::::::::::::::::::::::::::::::::::::
         :: total free energy        -107.157147605255 Eh   ::
         ::.................................................::
         :: total energy             -107.631841080450 Eh   ::
         :: zero point energy           0.536150423248 Eh   ::
         :: G(RRHO) w/o ZPVE           -0.061456948053 Eh   ::
         :: G(RRHO) contrib.            0.474693475195 Eh   ::
         :::::::::::::::::::::::::::::::::::::::::::::::::::::

           -------------------------------------------------
          | TOTAL ENERGY             -107.631841080450 Eh   |
          | TOTAL ENTHALPY           -107.060804848025 Eh   |
          | TOTAL FREE ENERGY        -107.157147605255 Eh   |
          | GRADIENT NORM               0.000031864346 Eh/α |
          | HOMO-LUMO GAP               1.663725852879 eV   |
           -------------------------------------------------

 * finished run on 2025/08/29 at 14:07:24.886
