   * xtb version 6.7.1 (edcfbbe) compiled by 'albert@albert-system' on 2024-07-22

   ID    Z sym.   atoms
    1    6 C      1-6, 8-28, 30-39
    2    7 N      7, 29
    3    8 O      40, 41
    4    1 H      42-69

          program call               : xtb data2507/toluene/IDAC-MCO/IDAC-MCO_toluene_S0_crest.xyz --gfn 2 --gbsa toluene --ohess vtight --parallel 40 --molden --ceasefiles --namespace data2507/toluene/IDAC-MCO/IDAC-MCO_toluene_S0_finalOpt
      * Solvation model:               GBSA
        Solvent                        toluene
        Solvent mass                       9.2140E+01 g/mol
          :  Hamiltonian                  GFN2-xTB          :
 * total energy  :  -107.6316772 Eh     change       -0.1138091E-08 Eh
 * total energy  :  -107.6317707 Eh     change       -0.9355205E-04 Eh
 * total energy  :  -107.6317971 Eh     change       -0.2633657E-04 Eh
 * total energy  :  -107.6318013 Eh     change       -0.4224874E-05 Eh
 * total energy  :  -107.6318042 Eh     change       -0.2918485E-05 Eh
 * total energy  :  -107.6318082 Eh     change       -0.3944552E-05 Eh
 * total energy  :  -107.6318127 Eh     change       -0.4568145E-05 Eh
 * total energy  :  -107.6318173 Eh     change       -0.4606509E-05 Eh
 * total energy  :  -107.6318208 Eh     change       -0.3491554E-05 Eh
 * total energy  :  -107.6318231 Eh     change       -0.2239152E-05 Eh
 * total energy  :  -107.6318345 Eh     change       -0.1005918E-05 Eh
 * total energy  :  -107.6318352 Eh     change       -0.7290351E-06 Eh
 * total energy  :  -107.6318356 Eh     change       -0.3218154E-06 Eh
 * total energy  :  -107.6318361 Eh     change       -0.5108055E-06 Eh
 * total energy  :  -107.6318362 Eh     change       -0.1673772E-06 Eh
 * total energy  :  -107.6318362 Eh     change       -0.3525344E-08 Eh
 * total energy  :  -107.6318365 Eh     change       -0.2272314E-06 Eh
 * total energy  :  -107.6318366 Eh     change       -0.1795356E-06 Eh
 * total energy  :  -107.6318367 Eh     change       -0.9134666E-07 Eh
   *** GEOMETRY OPTIMIZATION CONVERGED AFTER 28 ITERATIONS ***

 final structure:
================
69
 xtb: 6.7.1 (edcfbbe)
C            8.56084832423570       -0.19524138215254        1.82731018549460
C            7.30073522014938       -0.40200127366300        1.05718928096260
C            6.17271931092337        0.31861577205211        1.19999333843495
C            5.02690055222877        0.01915364663280        0.39326020451671
C            3.82879433953008        0.72648086782323        0.49253309106143
C            2.74807832284036        0.39947406983462       -0.31339802656267
N            1.55880486829450        1.11579819725739       -0.22247775041777
C            1.43646564919045        2.49526587115217       -0.19172172667430
C            2.41387222593595        3.47521370336100       -0.28991167094111
C            2.01019983968589        4.79778539793993       -0.27358522131081
C            0.66577118596710        5.14758666230442       -0.17398390061441
C           -0.31485990466655        4.17700898013489       -0.10637619534987
C            0.06740751920928        2.84258442134971       -0.12070775732473
C           -0.66727932266169        1.60773418536528       -0.09905189029526
C           -2.01448742913575        1.30532968837380       -0.01319743991983
C           -2.42152366962483       -0.02818214245715        0.01149476735129
C           -1.46830895203590       -1.06386129114424       -0.01354989303388
C           -0.11940488779199       -0.75188407996983       -0.09951325064924
C            0.28181175710909        0.57046138298577       -0.16948616116467
C           -1.86790240686702       -2.52675871742700        0.06461133398492
C           -1.34677011848716       -3.24969379621743       -1.19233203705183
C           -1.23891054383675       -3.14242939076182        1.32943015558861
C           -3.37315843895273       -2.70441233480741        0.13820199281235
C           -3.90930332049858       -3.98300693283305        0.20701088955670
C           -5.27263140810927       -4.20685380846033        0.27049760735131
C           -6.13596830352031       -3.12565816908256        0.26222907076476
C           -5.63074883942326       -1.84434050895779        0.19715007469964
C           -4.25191848923266       -1.61537071094553        0.13935739182133
N           -3.77619633385472       -0.31817643063170        0.08070461204684
C           -4.70747220871095        0.76114964646816        0.07782243910708
C           -5.18750322895361        1.26869448456830        1.27892440502032
C           -6.08731513930478        2.32038445731934        1.27151579614866
C           -6.50831104916436        2.86728592580559        0.07017108514241
C           -6.03035961283847        2.36051481888029       -1.12737457929827
C           -5.13168265957452        1.30785880108901       -1.12709430958249
C            2.85773016049499       -0.65935390862666       -1.23206771735410
C            4.02757003683422       -1.36899835337186       -1.33225383564061
C            5.12496708753634       -1.04254333801797       -0.52712092214705
C            6.36377999373292       -1.79163331190620       -0.64572872951489
O            6.55384775707303       -2.72040890055326       -1.40835676210417
O            7.39704822763859       -1.42209976307011        0.16245850128070
H            9.38078632337944        0.01498419181882        1.14237342215271
H            8.81364893925232       -1.10472059171283        2.37017395351243
H            8.44843754541001        0.62680171661238        2.52572470917282
H            6.12394689916731        1.12168461280809        1.91509023753899
H            3.74144434441561        1.52080894504322        1.21761106196613
H            3.45780093776475        3.22131579594160       -0.39286506889468
H            2.75522347328987        5.57679560716725       -0.34521915516376
H            0.39036879032503        6.19197750456679       -0.16176533844491
H           -1.35956531091350        4.44470404733347       -0.05111248147797
H           -2.74067362466550        2.10009578549885        0.04140770888859
H            0.61820584844707       -1.53811436106928       -0.09889677500813
H           -1.63519329241534       -4.29697509200778       -1.18372044363748
H           -1.76319287238982       -2.78757434882364       -2.08596854277980
H           -0.26304395056745       -3.19932706169802       -1.24997975511104
H           -1.49434236371531       -4.19499893350882        1.41419456288769
H           -0.15587545196990       -3.05651838200230        1.30835225007366
H           -1.60776000811974       -2.62761000173236        2.21503446354080
H           -3.24828238019339       -4.83679935090044        0.21189949960075
H           -5.65478503712420       -5.21540158270405        0.32351290484723
H           -7.20472919609958       -3.27726674845000        0.30660794442207
H           -6.30957089618498       -1.00524283796026        0.18961587283589
H           -4.85215095715576        0.83502055788538        2.20978599348562
H           -6.45957429349187        2.71357852498259        2.20602943645730
H           -7.20969964483202        3.68838191634067        0.06712719829715
H           -6.35844234794816        2.78452574221200       -2.06496761603779
H           -4.75217870642094        0.90541911278438       -2.05497320631403
H            2.02310529699327       -0.88717090679524       -1.87634094643656
H            4.13504233419618       -2.17964584906720       -2.03726879576622

          :  Hamiltonian                  GFN2-xTB          :
         :: gradient norm              0.000125167614 Eh/a0 ::
         :: HOMO-LUMO gap              1.662878184694 eV    ::
         :: SCC energy              -109.485790252090 Eh    ::
         :: -> dispersion             -0.094802424843 Eh    ::
         :: -> Gsolv                  -0.048258846032 Eh    ::
         :: repulsion energy           1.853953512870 Eh    ::

    * Orbital Energies and Occupations

         #    Occupation            Energy/Eh            Energy/eV
      -------------------------------------------------------------
         1        2.0000           -0.7568969             -20.5962
       ...           ...                  ...                  ...
        87        2.0000           -0.4209883             -11.4557
        88        2.0000           -0.4174433             -11.3592
        89        2.0000           -0.4158122             -11.3148
        90        2.0000           -0.4153129             -11.3012
        91        2.0000           -0.4143164             -11.2741
        92        2.0000           -0.4060779             -11.0499
        93        2.0000           -0.4054572             -11.0331
        94        2.0000           -0.4051381             -11.0244
        95        2.0000           -0.3958583             -10.7719
        96        2.0000           -0.3929207             -10.6919
        97        2.0000           -0.3817449             -10.3878
        98        2.0000           -0.3706401             -10.0856
        99        2.0000           -0.3394439              -9.2367 (HOMO)
       100                         -0.2783343              -7.5739 (LUMO)
       101                         -0.2654627              -7.2236
       102                         -0.2452041              -6.6723
       103                         -0.2337978              -6.3620
       104                         -0.2325591              -6.3283
       105                         -0.2240459              -6.0966
       106                         -0.2161423              -5.8815
       107                         -0.2118467              -5.7646
       108                         -0.2047619              -5.5719
       109                         -0.1941485              -5.2830
       110                         -0.1818069              -4.9472
       ...                                ...                  ...
       192                          0.7462476              20.3064
      -------------------------------------------------------------
                  HL-Gap            0.0611097 Eh            1.6629 eV

     #   Z          covCN         q      C6AA      α(0)
     1   6 C        3.756    -0.129    23.023     6.841
     2   6 C        2.846     0.152    24.701     8.145
     3   6 C        2.905    -0.080    29.992     8.980
     4   6 C        2.985     0.029    27.348     8.578
     5   6 C        2.923    -0.054    29.340     8.883
     6   6 C        2.909     0.076    26.307     8.410
     7   7 N        2.800    -0.039    21.993     6.965
     8   6 C        3.069     0.046    26.907     8.505
     9   6 C        2.910    -0.052    29.297     8.875
    10   6 C        2.923    -0.035    28.866     8.811
    11   6 C        2.920    -0.042    29.032     8.836
    12   6 C        2.912    -0.034    28.850     8.808
    13   6 C        3.067    -0.016    28.338     8.729
    14   6 C        3.064    -0.018    28.398     8.739
    15   6 C        2.918    -0.065    29.611     8.923
    16   6 C        2.926     0.053    26.818     8.493
    17   6 C        2.980    -0.014    28.359     8.735
    18   6 C        2.917    -0.057    29.426     8.895
    19   6 C        3.067     0.034    27.183     8.549
    20   6 C        3.909     0.022    20.150     6.380
    21   6 C        3.761    -0.103    22.517     6.765
    22   6 C        3.761    -0.103    22.516     6.764
    23   6 C        2.979    -0.016    28.403     8.742
    24   6 C        2.927    -0.038    28.953     8.824
    25   6 C        2.917    -0.048    29.193     8.860
    26   6 C        2.919    -0.035    28.882     8.813
    27   6 C        2.924    -0.061    29.512     8.909
    28   6 C        2.927     0.059    26.669     8.469
    29   7 N        2.755    -0.075    22.702     7.077
    30   6 C        2.928     0.069    26.449     8.434
    31   6 C        2.921    -0.038    28.938     8.822
    32   6 C        2.920    -0.028    28.700     8.785
    33   6 C        2.919    -0.030    28.759     8.794
    34   6 C        2.920    -0.028    28.697     8.785
    35   6 C        2.921    -0.038    28.937     8.821
    36   6 C        2.920    -0.043    29.056     8.840
    37   6 C        2.918    -0.019    28.477     8.751
    38   6 C        2.979    -0.043    29.058     8.842
    39   6 C        2.718     0.339    21.237     7.544
    40   8 O        0.857    -0.466    23.044     6.436
    41   8 O        1.709    -0.239    17.952     5.721
    42   1 H        0.925     0.082     1.956     2.187
    43   1 H        0.925     0.082     1.955     2.187
    44   1 H        0.925     0.079     1.992     2.207
    45   1 H        0.926     0.071     2.074     2.252
    46   1 H        0.926     0.060     2.201     2.320
    47   1 H        0.926     0.032     2.554     2.499
    48   1 H        0.926     0.032     2.560     2.502
    49   1 H        0.926     0.029     2.595     2.519
    50   1 H        0.926     0.031     2.568     2.506
    51   1 H        0.926     0.030     2.586     2.515
    52   1 H        0.926     0.036     2.500     2.473
    53   1 H        0.925     0.041     2.434     2.440
    54   1 H        0.925     0.031     2.579     2.511
    55   1 H        0.925     0.040     2.450     2.448
    56   1 H        0.925     0.041     2.430     2.437
    57   1 H        0.925     0.039     2.456     2.451
    58   1 H        0.925     0.031     2.579     2.511
    59   1 H        0.926     0.030     2.592     2.518
    60   1 H        0.926     0.023     2.688     2.564
    61   1 H        0.926     0.025     2.664     2.552
    62   1 H        0.926     0.024     2.676     2.558
    63   1 H        0.926     0.041     2.438     2.442
    64   1 H        0.926     0.042     2.425     2.435
    65   1 H        0.926     0.041     2.431     2.438
    66   1 H        0.926     0.042     2.427     2.436
    67   1 H        0.926     0.040     2.443     2.444
    68   1 H        0.926     0.057     2.236     2.338
    69   1 H        0.926     0.054     2.266     2.354

molecular dipole:
                 x           y           z       tot (Debye)
 q only:       -0.853       2.066       1.461
   full:       -0.861       2.063       1.446       6.766

 projected vibrational frequencies (cm⁻¹)
eigval :       -0.00    -0.00     0.00     0.00     0.00     0.00
eigval :       12.20    21.36    22.55    30.58    36.93    49.25
eigval :       52.34    56.41    83.17    86.80    95.63   108.31
eigval :      112.80   127.15   135.93   151.31   159.04   161.46
eigval :      166.44   198.71   208.68   214.67   221.21   242.75
eigval :      252.30   263.00   275.09   277.93   295.81   299.44
eigval :      327.71   339.36   341.44   366.65   374.47   384.45
eigval :      388.20   406.34   422.93   427.18   434.29   438.95
eigval :      452.39   476.43   492.35   502.34   507.64   518.76
eigval :      532.39   534.16   542.98   544.23   562.69   573.32
eigval :      579.71   589.75   591.48   620.85   627.61   638.60
eigval :      650.01   665.26   669.73   672.22   674.93   678.70
eigval :      690.07   706.36   719.92   735.24   762.17   768.77
eigval :      775.96   776.69   788.86   823.14   831.17   833.14
eigval :      848.46   863.58   866.33   872.00   876.65   882.23
eigval :      889.00   902.96   905.66   907.97   913.20   920.31
eigval :      921.04   924.74   929.29   935.94   936.69   937.89
eigval :      956.53   971.00   984.85   994.31  1004.96  1013.52
eigval :     1023.99  1024.57  1057.95  1071.96  1077.08  1082.27
eigval :     1088.14  1112.42  1115.53  1119.03  1135.38  1142.55
eigval :     1154.64  1156.22  1165.81  1177.00  1177.69  1178.62
eigval :     1186.17  1192.64  1208.86  1215.29  1231.40  1234.08
eigval :     1239.90  1242.94  1252.27  1262.09  1272.87  1277.03
eigval :     1289.98  1304.69  1306.50  1322.89  1328.42  1335.53
eigval :     1347.73  1359.74  1365.83  1384.24  1390.26  1400.73
eigval :     1415.00  1419.77  1430.41  1439.21  1439.38  1442.25
eigval :     1446.92  1451.17  1457.32  1468.09  1470.54  1482.09
eigval :     1487.49  1488.99  1490.40  1498.51  1503.35  1533.04
eigval :     1564.49  1575.14  1580.90  1581.33  1587.42  1592.35
eigval :     1596.10  1600.38  1616.58  1627.10  1681.23  3013.19
eigval :     3020.90  3023.57  3028.24  3037.12  3039.57  3047.33
eigval :     3051.45  3070.16  3072.03  3073.77  3075.77  3075.94
eigval :     3077.41  3077.57  3084.87  3086.08  3086.99  3088.82
eigval :     3093.13  3093.49  3096.06  3096.62  3100.52  3100.69
eigval :     3107.85  3109.36  3125.54

   temp. (K)  partition function   enthalpy   heat capacity  entropy
                                   cal/mol     cal/K/mol   cal/K/mol   J/K/mol
 298.15  VIB  0.236E+15            19518.587    124.488    119.867
         ROT  0.535E+08              888.752      2.981     38.345
         INT  0.126E+23            20407.339    127.469    158.212
         TR   0.119E+29             1481.254      4.968     44.684
         TOT                       21888.5930   132.4370   202.8957   848.9157

       T/K    H(0)-H(T)+PV         H(T)/Eh          T*S/Eh         G(T)/Eh
   ------------------------------------------------------------------------
    298.15    0.348817E-01    0.571104E+00    0.964023E-01    0.474702E+00
   ------------------------------------------------------------------------

         :::::::::::::::::::::::::::::::::::::::::::::::::::::
         ::                  THERMODYNAMIC                  ::
         :::::::::::::::::::::::::::::::::::::::::::::::::::::
         :: total free energy        -107.157135173875 Eh   ::
         ::.................................................::
         :: total energy             -107.631836740763 Eh   ::
         :: zero point energy           0.536222176177 Eh   ::
         :: G(RRHO) w/o ZPVE           -0.061520609289 Eh   ::
         :: G(RRHO) contrib.            0.474701566888 Eh   ::
         :::::::::::::::::::::::::::::::::::::::::::::::::::::

           -------------------------------------------------
          | TOTAL ENERGY             -107.631836740763 Eh   |
          | TOTAL ENTHALPY           -107.060732871311 Eh   |
          | TOTAL FREE ENERGY        -107.157135173875 Eh   |
          | GRADIENT NORM               0.000125111588 Eh/α |
          | HOMO-LUMO GAP               1.662878292029 eV   |
           -------------------------------------------------

 * finished run on 2025/08/29 at 14:10:27.328
