   * xtb version 6.7.1 (edcfbbe) compiled by 'albert@albert-system' on 2024-07-22

   ID    Z sym.   atoms
    1    6 C      1-6, 8-28, 30-39
    2    7 N      7, 29
    3    8 O      40, 41
    4    1 H      42-69

          program call               : xtb data2507/toluene/IDAC-MCO/IDAC-MCO_toluene_T1_crest.xyz --gfn 2 --uhf 2 --gbsa toluene --ohess vtight --parallel 40 --molden --ceasefiles --namespace data2507/toluene/IDAC-MCO/IDAC-MCO_toluene_T1_finalOpt
      * Solvation model:               GBSA
        Solvent                        toluene
        Solvent mass                       9.2140E+01 g/mol
          :  Hamiltonian                  GFN2-xTB          :
 * total energy  :  -107.5474294 Eh     change       -0.9643017E-08 Eh
 * total energy  :  -107.5478175 Eh     change       -0.3880766E-03 Eh
 * total energy  :  -107.5479640 Eh     change       -0.1464574E-03 Eh
 * total energy  :  -107.5479762 Eh     change       -0.1224491E-04 Eh
 * total energy  :  -107.5479849 Eh     change       -0.8662731E-05 Eh
 * total energy  :  -107.5479909 Eh     change       -0.5990049E-05 Eh
 * total energy  :  -107.5479979 Eh     change       -0.7044568E-05 Eh
 * total energy  :  -107.5480064 Eh     change       -0.8490456E-05 Eh
 * total energy  :  -107.5480131 Eh     change       -0.6740918E-05 Eh
 * total energy  :  -107.5480182 Eh     change       -0.5040723E-05 Eh
 * total energy  :  -107.5480261 Eh     change       -0.1310321E-05 Eh
 * total energy  :  -107.5480270 Eh     change       -0.8840162E-06 Eh
 * total energy  :  -107.5480280 Eh     change       -0.1003989E-05 Eh
 * total energy  :  -107.5480293 Eh     change       -0.1291585E-05 Eh
 * total energy  :  -107.5480305 Eh     change       -0.1125399E-05 Eh
 * total energy  :  -107.5480313 Eh     change       -0.8935989E-06 Eh
 * total energy  :  -107.5480320 Eh     change       -0.6371066E-06 Eh
 * total energy  :  -107.5480324 Eh     change       -0.4076999E-06 Eh
 * total energy  :  -107.5480324 Eh     change       -0.8526172E-08 Eh
   *** GEOMETRY OPTIMIZATION CONVERGED AFTER 22 ITERATIONS ***

 final structure:
================
69
 xtb: 6.7.1 (edcfbbe)
C            8.55730725735135       -0.18072023332179        1.81001660241018
C            7.29776196904155       -0.39551949202251        1.03275661149396
C            6.17005516143217        0.31726684598258        1.18555144716934
C            5.01507167721384        0.03115880110317        0.37962165073368
C            3.83238427864349        0.73260766456813        0.48333561363058
C            2.72926205147222        0.40275487413807       -0.32176675149861
N            1.53719518362146        1.11402648451374       -0.21406150387863
C            1.42320567618285        2.50506129273329       -0.18971586113220
C            2.40588588795418        3.46703733415200       -0.29967800377885
C            2.01577604359254        4.80429031569288       -0.27523249240062
C            0.67687049760367        5.16070122105573       -0.14810661219127
C           -0.31680133800810        4.20131913075916       -0.06118012339981
C            0.04961933959997        2.85755401869108       -0.09479247800502
C           -0.68263038113117        1.63466750553799       -0.07598907467977
C           -2.02433202949197        1.31672232216652       -0.01190371769922
C           -2.42009532988342       -0.02904010761785        0.01787289627864
C           -1.45049513290428       -1.07755173143956        0.01126438662507
C           -0.10857228428818       -0.75202777679008       -0.07391953570333
C            0.28712615031360        0.57689299447164       -0.14461655376418
C           -1.85227649370750       -2.53333864747384        0.10883707566541
C           -1.32065249023437       -3.28065458005145       -1.13110718302110
C           -1.23412627564059       -3.13183166973068        1.38878772183628
C           -3.35266033943540       -2.71239478112468        0.16942681418057
C           -3.89474346305071       -3.98791886052122        0.25413416880946
C           -5.26036725514887       -4.20110842771765        0.30172502715194
C           -6.12548363149828       -3.11703193055763        0.26063671495728
C           -5.61831022374528       -1.84009380039412        0.18150824135846
C           -4.23327407539596       -1.61962487982059        0.14009366450587
N           -3.75301407851097       -0.32610493830875        0.07185375858410
C           -4.69681240046501        0.74781359699015        0.05991992218580
C           -5.17063690508702        1.26339279643306        1.25957639453668
C           -6.08110674796248        2.30604759300596        1.24218207514207
C           -6.51716232832250        2.82984388433205        0.03580635443690
C           -6.04326834969148        2.31123480559586       -1.15849455300918
C           -5.13222859921028        1.26890170545218       -1.15170788021989
C            2.84241146830661       -0.65665577732784       -1.25131601070870
C            4.00706770483101       -1.35385547211722       -1.37132783334410
C            5.13180804557239       -1.03959814604101       -0.55923569356226
C            6.33725169286182       -1.77090646915419       -0.68932905031261
O            6.55000906798395       -2.71192609205128       -1.46212233966246
O            7.41422286898643       -1.41122673813694        0.13207872031424
H            8.81794356263824       -1.09200729961744        2.34668913541108
H            8.43318342872429        0.63521591026583        2.51433203126814
H            9.37616405824599        0.04451188733793        1.12805064163690
H            6.12589007212153        1.11289074041249        1.91105398002262
H            3.73964469979128        1.51591841808559        1.22100929351553
H            3.44465693903926        3.19974205488895       -0.41779785896805
H            2.76794599391280        5.57349557446003       -0.36221945213901
H            0.41059164355859        6.20744532945781       -0.12697894482320
H           -1.35488331811826        4.48382827463316        0.02470501123273
H           -2.76059861841507        2.10240447173712        0.02090161776476
H            0.64293843451371       -1.52466522685955       -0.07141371658224
H           -1.58956888242885       -4.33198681880397       -1.09503942824152
H           -1.74113431126590       -2.84808176832581       -2.03710526306724
H           -0.23828379780262       -3.21164543996123       -1.18623963127410
H           -1.47436026202992       -4.18706575342219        1.47783247382688
H           -0.15287426852243       -3.02946976588052        1.37536520284182
H           -1.61752877450475       -2.61470720110395        2.26635548688345
H           -3.23763208421548       -4.84269356566756        0.28397511455771
H           -5.64749437092384       -5.20626633460159        0.36723204102839
H           -7.19348197140499       -3.26895592688036        0.29153665481464
H           -6.29309405467552       -0.99972119918182        0.15006383202917
H           -4.82269955587793        0.84852643370103        2.19370075533923
H           -6.44904983464045        2.70881210823915        2.17360040720514
H           -7.22691270922301        3.64305368841537        0.02625730401826
H           -6.38207925904455        2.71757689527316       -2.09935935983891
H           -4.75487204986475        0.85843039769845       -2.07629927949590
H            2.00788788951653       -0.87142806035175       -1.90255272409755
H            4.11895529154486       -2.15178308399852       -2.09026137230433

          :  Hamiltonian                  GFN2-xTB          :
         :: gradient norm              0.000077377860 Eh/a0 ::
         :: HOMO-LUMO gap              0.233035680473 eV    ::
         :: SCC energy              -109.385918637848 Eh    ::
         :: -> dispersion             -0.094456407250 Eh    ::
         :: -> Gsolv                  -0.063379151027 Eh    ::
         :: repulsion energy           1.837886220302 Eh    ::

    * Orbital Energies and Occupations

         #    Occupation            Energy/Eh            Energy/eV
      -------------------------------------------------------------
         1        2.0000           -0.7208039             -19.6141
       ...           ...                  ...                  ...
        88        2.0000           -0.4241225             -11.5410
        89        2.0000           -0.4208165             -11.4510
        90        2.0000           -0.4196995             -11.4206
        91        2.0000           -0.4183526             -11.3840
        92        2.0000           -0.4159231             -11.3178
        93        2.0000           -0.4122843             -11.2188
        94        2.0000           -0.4012327             -10.9181
        95        2.0000           -0.3897782             -10.6064
        96        2.0000           -0.3841167             -10.4523
        97        2.0000           -0.3781769             -10.2907
        98        1.9997           -0.3711418             -10.0993
        99        1.0003           -0.3559231              -9.6852
       100        0.9891           -0.2615703              -7.1177 (HOMO)
       101        0.0109           -0.2530074              -6.8847 (LUMO)
       102        0.0000           -0.2465427              -6.7088
       103        0.0000           -0.2439217              -6.6374
       104                         -0.2415797              -6.5737
       105                         -0.2385999              -6.4926
       106                         -0.2361575              -6.4262
       107                         -0.2201845              -5.9915
       108                         -0.1997751              -5.4362
       109                         -0.1922139              -5.2304
       110                         -0.1754691              -4.7748
       111                         -0.1588691              -4.3230
       ...                                ...                  ...
       192                          0.7405329              20.1509
      -------------------------------------------------------------
                  HL-Gap            0.0085629 Eh            0.2330 eV

     #   Z          covCN         q      C6AA      α(0)
     1   6 C        3.755    -0.120    22.854     6.816
     2   6 C        2.841     0.141    24.919     8.181
     3   6 C        2.905    -0.088    30.218     9.014
     4   6 C        2.980     0.007    27.854     8.657
     5   6 C        2.917    -0.059    29.466     8.901
     6   6 C        2.909     0.029    27.351     8.576
     7   7 N        2.795     0.004    21.185     6.836
     8   6 C        3.076     0.040    27.034     8.525
     9   6 C        2.908    -0.041    29.010     8.832
    10   6 C        2.922    -0.041    29.026     8.835
    11   6 C        2.918    -0.034    28.851     8.808
    12   6 C        2.911    -0.035    28.875     8.811
    13   6 C        3.054    -0.020    28.456     8.748
    14   6 C        3.060    -0.015    28.318     8.727
    15   6 C        2.913    -0.056    29.395     8.890
    16   6 C        2.927     0.060    26.663     8.468
    17   6 C        2.976    -0.017    28.421     8.745
    18   6 C        2.912    -0.048    29.195     8.860
    19   6 C        3.064     0.043    26.963     8.515
    20   6 C        3.909     0.025    20.089     6.371
    21   6 C        3.761    -0.106    22.578     6.774
    22   6 C        3.761    -0.107    22.584     6.774
    23   6 C        2.978     0.001    27.993     8.679
    24   6 C        2.925    -0.031    28.781     8.798
    25   6 C        2.917    -0.030    28.756     8.794
    26   6 C        2.918    -0.028    28.691     8.784
    27   6 C        2.922    -0.047    29.166     8.856
    28   6 C        2.930     0.056    26.746     8.481
    29   7 N        2.756    -0.002    21.297     6.854
    30   6 C        2.933     0.059    26.676     8.470
    31   6 C        2.920    -0.034    28.854     8.809
    32   6 C        2.920    -0.024    28.596     8.769
    33   6 C        2.919    -0.026    28.640     8.776
    34   6 C        2.920    -0.024    28.595     8.769
    35   6 C        2.920    -0.034    28.848     8.808
    36   6 C        2.913    -0.047    29.160     8.855
    37   6 C        2.915    -0.039    28.972     8.826
    38   6 C        2.973    -0.061    29.522     8.913
    39   6 C        2.714     0.304    21.831     7.648
    40   8 O        0.857    -0.542    24.741     6.669
    41   8 O        1.706    -0.299    18.976     5.881
    42   1 H        0.925     0.067     2.115     2.274
    43   1 H        0.925     0.065     2.138     2.286
    44   1 H        0.925     0.067     2.118     2.276
    45   1 H        0.926     0.046     2.371     2.408
    46   1 H        0.926     0.036     2.501     2.473
    47   1 H        0.926     0.036     2.504     2.475
    48   1 H        0.926     0.032     2.560     2.502
    49   1 H        0.926     0.034     2.524     2.484
    50   1 H        0.926     0.037     2.486     2.466
    51   1 H        0.926     0.049     2.338     2.391
    52   1 H        0.926     0.048     2.342     2.393
    53   1 H        0.925     0.050     2.320     2.382
    54   1 H        0.925     0.038     2.478     2.462
    55   1 H        0.925     0.047     2.361     2.403
    56   1 H        0.925     0.050     2.314     2.379
    57   1 H        0.925     0.047     2.361     2.403
    58   1 H        0.925     0.038     2.470     2.458
    59   1 H        0.926     0.049     2.335     2.390
    60   1 H        0.926     0.044     2.392     2.419
    61   1 H        0.926     0.045     2.381     2.413
    62   1 H        0.926     0.046     2.366     2.405
    63   1 H        0.926     0.050     2.321     2.382
    64   1 H        0.926     0.051     2.305     2.374
    65   1 H        0.926     0.049     2.328     2.386
    66   1 H        0.926     0.051     2.308     2.376
    67   1 H        0.926     0.049     2.327     2.386
    68   1 H        0.926     0.035     2.513     2.479
    69   1 H        0.926     0.026     2.647     2.544

molecular dipole:
                 x           y           z       tot (Debye)
 q only:       -8.216       2.157       1.753
   full:       -8.033       2.167       1.756      21.613

 projected vibrational frequencies (cm⁻¹)
eigval :       -0.00    -0.00    -0.00    -0.00     0.00     0.00
eigval :       12.16    21.58    25.86    31.77    34.62    49.17
eigval :       53.07    56.80    82.37    93.40   100.79   108.17
eigval :      112.39   126.50   135.76   136.22   150.38   157.45
eigval :      162.03   203.14   205.72   213.95   219.72   241.33
eigval :      251.20   257.30   272.31   276.05   289.61   293.70
eigval :      321.56   333.87   336.61   363.10   369.42   372.14
eigval :      386.38   395.56   412.98   421.37   426.82   432.28
eigval :      448.24   474.89   484.05   495.36   505.20   520.75
eigval :      526.65   529.56   538.05   542.29   555.47   556.58
eigval :      572.83   578.13   589.25   592.84   610.74   623.89
eigval :      629.13   657.54   662.30   666.44   668.31   672.25
eigval :      674.89   687.97   696.25   709.97   749.93   761.59
eigval :      762.36   774.74   786.77   800.61   813.07   818.81
eigval :      820.70   843.07   856.60   859.79   871.08   873.64
eigval :      874.42   898.30   900.80   904.15   909.43   909.91
eigval :      917.32   919.13   924.93   928.00   933.02   938.23
eigval :      941.56   953.36   958.46   970.77   991.55  1006.29
eigval :     1011.62  1025.10  1027.96  1064.29  1074.56  1077.60
eigval :     1082.45  1101.70  1108.01  1113.04  1132.74  1139.37
eigval :     1142.76  1151.69  1158.45  1172.06  1176.05  1176.43
eigval :     1183.04  1191.46  1202.74  1209.49  1222.87  1225.97
eigval :     1231.36  1239.87  1248.88  1254.33  1256.42  1271.05
eigval :     1276.78  1285.13  1300.46  1305.88  1306.68  1328.37
eigval :     1335.35  1348.27  1353.43  1376.07  1386.37  1391.54
eigval :     1399.11  1401.74  1409.87  1417.25  1422.81  1428.26
eigval :     1438.46  1442.25  1448.73  1456.51  1459.71  1463.00
eigval :     1466.16  1466.81  1481.95  1484.51  1486.46  1494.74
eigval :     1497.60  1506.62  1532.51  1550.19  1568.43  1573.65
eigval :     1577.22  1578.59  1585.78  1604.79  1651.80  3005.36
eigval :     3020.67  3026.34  3028.87  3046.34  3048.41  3054.65
eigval :     3058.91  3063.60  3074.98  3075.50  3081.04  3084.83
eigval :     3085.01  3086.61  3086.81  3089.17  3090.59  3092.63
eigval :     3093.80  3097.12  3098.26  3102.65  3103.55  3104.68
eigval :     3107.21  3111.53  3118.10

   temp. (K)  partition function   enthalpy   heat capacity  entropy
                                   cal/mol     cal/K/mol   cal/K/mol   J/K/mol
 298.15  VIB  0.276E+15            19769.670    126.221    121.205
         ROT  0.534E+08              888.752      2.981     38.342
         INT  0.147E+23            20658.423    129.202    159.547
         TR   0.119E+29             1481.254      4.968     44.684
         TOT                       22139.6767   134.1700   204.2301   854.4988

       T/K    H(0)-H(T)+PV         H(T)/Eh          T*S/Eh         G(T)/Eh
   ------------------------------------------------------------------------
    298.15    0.352818E-01    0.567665E+00    0.970363E-01    0.470629E+00
   ------------------------------------------------------------------------

         :::::::::::::::::::::::::::::::::::::::::::::::::::::
         ::                  THERMODYNAMIC                  ::
         :::::::::::::::::::::::::::::::::::::::::::::::::::::
         :: total free energy        -107.077403775828 Eh   ::
         ::.................................................::
         :: total energy             -107.548032419124 Eh   ::
         :: zero point energy           0.532383137654 Eh   ::
         :: G(RRHO) w/o ZPVE           -0.061754494359 Eh   ::
         :: G(RRHO) contrib.            0.470628643296 Eh   ::
         :::::::::::::::::::::::::::::::::::::::::::::::::::::

           -------------------------------------------------
          | TOTAL ENERGY             -107.548032419124 Eh   |
          | TOTAL ENTHALPY           -106.980367460866 Eh   |
          | TOTAL FREE ENERGY        -107.077403775828 Eh   |
          | GRADIENT NORM               0.000071801703 Eh/α |
          | HOMO-LUMO GAP               0.233008467507 eV   |
           -------------------------------------------------

 * finished run on 2025/08/29 at 14:14:18.663
