   * xtb version 6.7.1 (edcfbbe) compiled by 'albert@albert-system' on 2024-07-22

   ID    Z sym.   atoms
    1    6 C      1, 3-14, 18-21, 23-28, 31, 32
    2    8 O      2
    3    9 F      15-17
    4    7 N      22, 29
    5   16 S      30
    6    1 H      33-49

          program call               : xtb data2507/gas/3ca/3ca.xyz --gfn 2 --ohess vtight --parallel 40 --molden --ceasefiles --namespace data2507/gas/3ca/3ca_gas_S0_preOpt
          :  Hamiltonian                  GFN2-xTB          :
 * total energy  :   -89.5833564 Eh     change       -0.1103388E-08 Eh
 * total energy  :   -89.5907906 Eh     change       -0.7434152E-02 Eh
 * total energy  :   -89.5923937 Eh     change       -0.1603123E-02 Eh
 * total energy  :   -89.5926888 Eh     change       -0.2951310E-03 Eh
 * total energy  :   -89.5929135 Eh     change       -0.2247221E-03 Eh
 * total energy  :   -89.5930561 Eh     change       -0.1426021E-03 Eh
 * total energy  :   -89.5932249 Eh     change       -0.1687283E-03 Eh
 * total energy  :   -89.5934505 Eh     change       -0.2255875E-03 Eh
 * total energy  :   -89.5937012 Eh     change       -0.2507586E-03 Eh
 * total energy  :   -89.5939458 Eh     change       -0.2446299E-03 Eh
 * total energy  :   -89.5963005 Eh     change       -0.2122354E-06 Eh
 * total energy  :   -89.5963006 Eh     change       -0.1503140E-06 Eh
 * total energy  :   -89.5963008 Eh     change       -0.1654619E-06 Eh
 * total energy  :   -89.5963009 Eh     change       -0.1615481E-06 Eh
 * total energy  :   -89.5963011 Eh     change       -0.1618910E-06 Eh
 * total energy  :   -89.5963013 Eh     change       -0.1953180E-06 Eh
 * total energy  :   -89.5963015 Eh     change       -0.2370004E-06 Eh
 * total energy  :   -89.5963017 Eh     change       -0.1822587E-06 Eh
 * total energy  :   -89.5963018 Eh     change       -0.3369816E-07 Eh
   *** GEOMETRY OPTIMIZATION CONVERGED AFTER 81 ITERATIONS ***

 final structure:
================
49
 xtb: 6.7.1 (edcfbbe)
C            8.41692328700148        0.75550667386408        0.05514145937251
O            7.59915208731528       -0.39016326915048        0.04206001091609
C            6.25170833535829       -0.23015884015581        0.02232155067724
C            5.49634992266522       -1.40652064442758        0.00743627292968
C            4.12326679620257       -1.36217631171914       -0.01269203203214
C            3.44505526861709       -0.13684426854800       -0.01835532010525
C            2.00134408557334       -0.07753325728015       -0.03664469914123
C            1.09124855471892       -1.10091616078299       -0.00151568074904
C           -0.25745143971786       -0.69112388282132       -0.04932898690620
C           -1.36841325065812       -1.64616691456671       -0.03126706751820
C           -2.38097635094701       -1.59125857363372       -0.98524108328373
C           -3.40866040852527       -2.51123677355431       -0.96280236504649
C           -3.42970470116026       -3.49945201299260        0.01525486456121
C           -4.56819697713329       -4.47616542415723        0.02187429022830
F           -4.41527328443793       -5.47206553252904        0.90730693835354
F           -4.74407021954043       -5.06470101503831       -1.17777274156919
F           -5.74550172707635       -3.89012856470481        0.31633104237695
C           -2.42172257139539       -3.57138485505473        0.96547187674861
C           -1.39343098977783       -2.64873061537343        0.93414234940010
C           -0.38534653682602        0.68223903582022       -0.10748780560782
C           -1.57151211271284        1.47940979302948       -0.07993636012424
N           -2.79700367060989        1.01941979701951       -0.01929313860357
C           -3.60959672895147        2.11523762547799        0.00909115657495
C           -4.99735974335810        2.20359144189912        0.07068563889525
C           -5.55632301272398        3.46311924500434        0.08269096157171
C           -4.77109245889594        4.61837101887590        0.03507911785738
C           -3.39330059306834        4.55603395285254       -0.02665489190726
C           -2.82319060804528        3.29418444531117       -0.03921658613760
N           -1.52863031211777        2.85499918278210       -0.09585542186649
S            1.17506975367258        1.45235478478203       -0.11036930243487
C            4.20877571360719        1.02983615907115       -0.00483773112166
C            5.58865414301160        0.99372283613747        0.01527055262759
H            9.44087417356542        0.38584260280075        0.06824588582544
H            8.26517484175342        1.36763137457962       -0.83959229981126
H            8.24115173263447        1.36433242621023        0.94774334924592
H            6.02099221106594       -2.34873601341828        0.01126983481449
H            3.56810150433104       -2.28631983518962       -0.02721818580626
H            1.36779069344073       -2.13880987769049        0.03849432817053
H           -2.35792994331399       -0.82880218505728       -1.74559993519514
H           -4.19585207205170       -2.47182666720118       -1.70011250266299
H           -2.44274232206676       -4.34188222219551        1.72091989564423
H           -0.61158026390764       -2.69494891447514        1.67758197047255
H           -5.59907799312730        1.31013439881875        0.10850682056403
H           -6.63012192207606        3.56738688759483        0.13031241631902
H           -5.25622597114389        5.58301621418806        0.04728131332497
H           -2.78737610736395        5.44917243590359       -0.06271331545727
H           -0.69766164475199        3.42124471729004       -0.13284752726458
H            3.70840544412661        1.98791291573860       -0.00887788648854
H            6.13528738881808        1.92335066666801        0.02571596936965

          :  Hamiltonian                  GFN2-xTB          :
         :: gradient norm              0.000072810441 Eh/a0 ::
         :: HOMO-LUMO gap              2.158448934968 eV    ::
         :: SCC energy               -90.868347726946 Eh    ::
         :: -> dispersion             -0.061121337387 Eh    ::
         :: repulsion energy           1.272045967773 Eh    ::

    * Orbital Energies and Occupations

         #    Occupation            Energy/Eh            Energy/eV
      -------------------------------------------------------------
         1        2.0000           -0.8657501             -23.5583
       ...           ...                  ...                  ...
        68        2.0000           -0.4417429             -12.0204
        69        2.0000           -0.4380794             -11.9207
        70        2.0000           -0.4326903             -11.7741
        71        2.0000           -0.4325253             -11.7696
        72        2.0000           -0.4290039             -11.6738
        73        2.0000           -0.4242859             -11.5454
        74        2.0000           -0.4230914             -11.5129
        75        2.0000           -0.4206328             -11.4460
        76        2.0000           -0.4048213             -11.0157
        77        2.0000           -0.3946656             -10.7394
        78        2.0000           -0.3891995             -10.5907
        79        2.0000           -0.3808474             -10.3634
        80        2.0000           -0.3697162             -10.0605 (HOMO)
        81                         -0.2903946              -7.9020 (LUMO)
        82                         -0.2575340              -7.0079
        83                         -0.2413715              -6.5681
        84                         -0.2376606              -6.4671
        85                         -0.2357729              -6.4157
        86                         -0.2196514              -5.9770
        87                         -0.2111073              -5.7445
        88                         -0.2050777              -5.5804
        89                         -0.1801638              -4.9025
        90                         -0.1491786              -4.0594
        91                         -0.1406968              -3.8286
       ...                                ...                  ...
       150                          0.6980210              18.9941
      -------------------------------------------------------------
                  HL-Gap            0.0793215 Eh            2.1584 eV

     #   Z          covCN         q      C6AA      α(0)
     1   6 C        3.644     0.036    20.311     6.478
     2   8 O        1.706    -0.261    18.328     5.780
     3   6 C        2.866     0.147    24.806     8.164
     4   6 C        2.918    -0.052    29.302     8.877
     5   6 C        2.924    -0.033    28.822     8.804
     6   6 C        2.999    -0.001    28.047     8.687
     7   6 C        2.983     0.028    27.366     8.581
     8   6 C        3.120    -0.055    29.189     8.848
     9   6 C        3.146     0.001    27.745     8.618
    10   6 C        2.975     0.030    27.320     8.574
    11   6 C        2.924    -0.016    28.415     8.742
    12   6 C        2.921    -0.019    28.473     8.750
    13   6 C        2.977    -0.027    28.666     8.782
    14   6 C        3.336     0.485    17.297     6.586
    15   9 F        0.791    -0.208    11.317     3.974
    16   9 F        0.791    -0.212    11.363     3.982
    17   9 F        0.791    -0.211    11.347     3.979
    18   6 C        2.918    -0.025    28.619     8.773
    19   6 C        2.927    -0.028    28.693     8.785
    20   6 C        2.991     0.002    27.964     8.674
    21   6 C        3.207     0.142    24.354     8.036
    22   7 N        1.886    -0.293    28.458     7.908
    23   6 C        3.201     0.070    25.897     8.292
    24   6 C        2.910    -0.041    29.024     8.834
    25   6 C        2.923    -0.038    28.945     8.823
    26   6 C        2.927    -0.035    28.862     8.810
    27   6 C        2.907    -0.054    29.331     8.880
    28   6 C        3.079     0.045    26.915     8.505
    29   7 N        2.780    -0.127    23.763     7.240
    30  16 S        2.362    -0.061   143.597    20.169
    31   6 C        2.928    -0.033    28.827     8.805
    32   6 C        2.915    -0.065    29.610     8.923
    33   1 H        0.925     0.065     2.137     2.286
    34   1 H        0.924     0.043     2.409     2.427
    35   1 H        0.924     0.043     2.409     2.427
    36   1 H        0.926     0.054     2.274     2.358
    37   1 H        0.926     0.042     2.417     2.431
    38   1 H        0.926     0.042     2.421     2.433
    39   1 H        0.926     0.060     2.198     2.318
    40   1 H        0.926     0.058     2.225     2.333
    41   1 H        0.926     0.058     2.222     2.331
    42   1 H        0.926     0.049     2.332     2.388
    43   1 H        0.926     0.047     2.359     2.402
    44   1 H        0.926     0.035     2.513     2.479
    45   1 H        0.926     0.034     2.527     2.486
    46   1 H        0.926     0.028     2.619     2.531
    47   1 H        0.860     0.167     1.291     1.780
    48   1 H        0.926     0.045     2.388     2.416
    49   1 H        0.926     0.039     2.456     2.451

molecular dipole:
                 x           y           z       tot (Debye)
 q only:        2.681       1.818      -0.068
   full:        2.918       2.132      -0.044       9.185

 projected vibrational frequencies (cm⁻¹)
eigval :       -0.00    -0.00    -0.00    -0.00     0.00     0.00
eigval :        7.35    12.78    18.72    23.41    24.80    36.04
eigval :       49.30    60.77    77.24    91.03   104.07   127.65
eigval :      137.79   154.99   167.91   190.59   206.41   222.81
eigval :      237.51   238.55   243.76   278.58   310.14   324.53
eigval :      346.80   366.42   372.05   374.23   376.51   391.74
eigval :      414.52   436.35   447.20   465.73   472.13   476.38
eigval :      509.92   520.37   526.26   540.86   542.74   548.27
eigval :      561.56   592.11   599.35   605.74   611.78   621.77
eigval :      635.47   664.50   676.76   695.74   705.77   712.68
eigval :      738.91   772.49   799.13   805.62   809.14   820.22
eigval :      832.79   851.66   860.25   866.09   869.08   876.67
eigval :      898.58   898.79   912.23   913.47   922.18   922.32
eigval :      924.81   948.79   997.29  1016.41  1027.00  1054.72
eigval :     1055.89  1063.72  1067.37  1077.17  1109.97  1120.85
eigval :     1132.17  1137.13  1143.54  1156.51  1169.40  1178.13
eigval :     1193.61  1194.74  1205.44  1222.23  1234.63  1258.01
eigval :     1269.00  1272.81  1278.23  1291.93  1301.50  1327.28
eigval :     1332.78  1346.59  1368.25  1379.71  1401.74  1405.44
eigval :     1405.96  1414.78  1449.52  1470.86  1475.25  1481.98
eigval :     1491.01  1502.43  1508.86  1557.58  1562.09  1576.13
eigval :     1592.19  1596.49  1599.33  1621.31  2934.80  2947.64
eigval :     3030.19  3075.56  3075.78  3082.87  3087.18  3094.14
eigval :     3097.36  3101.14  3101.65  3105.37  3111.28  3112.44
eigval :     3122.23  3137.11  3474.59

   temp. (K)  partition function   enthalpy   heat capacity  entropy
                                   cal/mol     cal/K/mol   cal/K/mol   J/K/mol
 298.15  VIB  0.145E+14            15550.361     93.919     98.115
         ROT  0.415E+08              888.752      2.981     37.838
         INT  0.600E+21            16439.113     96.900    135.954
         TR   0.925E+28             1481.254      4.968     44.184
         TOT                       17920.3671   101.8679   180.1380   753.6976

       T/K    H(0)-H(T)+PV         H(T)/Eh          T*S/Eh         G(T)/Eh
   ------------------------------------------------------------------------
    298.15    0.285579E-01    0.379828E+00    0.855894E-01    0.294239E+00
   ------------------------------------------------------------------------

         :::::::::::::::::::::::::::::::::::::::::::::::::::::
         ::                  THERMODYNAMIC                  ::
         :::::::::::::::::::::::::::::::::::::::::::::::::::::
         :: total free energy         -89.302062717076 Eh   ::
         ::.................................................::
         :: total energy              -89.596301759173 Eh   ::
         :: zero point energy           0.351270518116 Eh   ::
         :: G(RRHO) w/o ZPVE           -0.057031476019 Eh   ::
         :: G(RRHO) contrib.            0.294239042097 Eh   ::
         :::::::::::::::::::::::::::::::::::::::::::::::::::::

           -------------------------------------------------
          | TOTAL ENERGY              -89.596301759173 Eh   |
          | TOTAL ENTHALPY            -89.216473318366 Eh   |
          | TOTAL FREE ENERGY         -89.302062717076 Eh   |
          | GRADIENT NORM               0.000072754098 Eh/α |
          | HOMO-LUMO GAP               2.158448780805 eV   |
           -------------------------------------------------

 * finished run on 2025/08/25 at 16:05:37.824
