   * xtb version 6.7.1 (edcfbbe) compiled by 'albert@albert-system' on 2024-07-22

   ID    Z sym.   atoms
    1    6 C      1, 3-14, 18-21, 23-28, 31, 32
    2    8 O      2
    3    9 F      15-17
    4    7 N      22, 29
    5   16 S      30
    6    1 H      33-49

          program call               : xtb data2507/gas/3ca/3ca_gas_S0_crest.xyz --gfn 2 --ohess vtight --parallel 40 --molden --ceasefiles --namespace data2507/gas/3ca/3ca_gas_S0_finalOpt
          :  Hamiltonian                  GFN2-xTB          :
 * total energy  :   -89.5963519 Eh     change       -0.7184582E-09 Eh
 * total energy  :   -89.5963532 Eh     change       -0.1336036E-05 Eh
 * total energy  :   -89.5963547 Eh     change       -0.1510512E-05 Eh
 * total energy  :   -89.5963573 Eh     change       -0.2546097E-05 Eh
 * total energy  :   -89.5963587 Eh     change       -0.1484684E-05 Eh
 * total energy  :   -89.5963599 Eh     change       -0.1112277E-05 Eh
 * total energy  :   -89.5963612 Eh     change       -0.1356919E-05 Eh
 * total energy  :   -89.5963626 Eh     change       -0.1347084E-05 Eh
 * total energy  :   -89.5963635 Eh     change       -0.9222616E-06 Eh
 * total energy  :   -89.5963642 Eh     change       -0.7072522E-06 Eh
 * total energy  :   -89.5963649 Eh     change       -0.7379316E-06 Eh
 * total energy  :   -89.5963658 Eh     change       -0.8578504E-06 Eh
 * total energy  :   -89.5963667 Eh     change       -0.9500779E-06 Eh
 * total energy  :   -89.5963676 Eh     change       -0.8744329E-06 Eh
 * total energy  :   -89.5963682 Eh     change       -0.5704143E-06 Eh
 * total energy  :   -89.5963685 Eh     change       -0.2817322E-06 Eh
 * total energy  :   -89.5963686 Eh     change       -0.1407478E-06 Eh
 * total energy  :   -89.5963686 Eh     change       -0.6753410E-08 Eh
   *** GEOMETRY OPTIMIZATION CONVERGED AFTER 18 ITERATIONS ***

 final structure:
================
49
 xtb: 6.7.1 (edcfbbe)
C            8.67832032222992       -2.00816391083757       -0.02424179459455
O            8.09795670021203       -0.72580528646133       -0.01807561446920
C            6.74496325677217       -0.62101243938149       -0.00841535703319
C            6.23210968012712        0.67930749758918        0.00209436311296
C            4.87562930884616        0.89483503391205        0.01290476647635
C            3.97219930302956       -0.17395312732401        0.01366132948944
C            2.54646189283579        0.06172921901546        0.02472265413294
C            1.51724525814119       -0.84245882797022        0.00386753895871
C            0.22929356003050       -0.26913790067707        0.04072761412754
C           -0.99012478430076       -1.08127693373607        0.03534515801940
C           -1.13614920388645       -2.08976419522748       -0.91379699207276
C           -2.26884586377177       -2.87969850461573       -0.93104863885564
C           -3.26515989838108       -2.66581470126110        0.01215899664627
C           -4.47950645635772       -3.54630231149186        0.01264582380199
F           -4.84448805262651       -3.93702344448494       -1.21993493229237
F           -5.55659008319265       -2.96447242958555        0.56077557352837
F           -4.27835512190407       -4.68540468798046        0.71284833784767
C           -3.12256582064150       -1.67559257924652        0.97603542374834
C           -1.98916809976800       -0.88776797109333        0.98475058796576
C            0.27169678087956        1.11040705061861        0.07489327419622
C           -0.80745974429116        2.04685270606877        0.03150976881295
N           -2.08063695965594        1.73988043524270       -0.01527586318834
C           -2.75242518721015        2.92650478410741       -0.06556578197202
C           -4.11917640813029        3.18354286356910       -0.12373355288305
C           -4.51927546471492        4.50165335740608       -0.16167810576552
C           -3.59766954629662        5.55225037233605       -0.14297499232830
C           -2.23762105194854        5.32227235363433       -0.08503629565944
C           -1.82673398362944        4.00045681450984       -0.04638659750892
N           -0.59574278780891        3.40660790336104        0.01625619661458
S            1.91503785887125        1.68243758193352        0.06953106542516
C            4.49441758682416       -1.46802276728149        0.00315278721379
C            5.85685198368661       -1.69312199468204       -0.00789778564596
H            9.75456295262373       -1.84386839451556       -0.02850893048872
H            8.40340843012355       -2.57786367314284        0.86912686002657
H            8.39564073960590       -2.57299017251279       -0.91828343575413
H            6.92731533644224        1.50355610905956        0.00137392739394
H            4.49673319933691        1.90669604883207        0.02049888004208
H            1.66332951068045       -1.90720315990041       -0.01580921850097
H           -0.36486740785381       -2.24379311410234       -1.65370751654033
H           -2.38665737850047       -3.65405461768408       -1.67388596282264
H           -3.89933023142622       -1.52297619360788        1.70927666512493
H           -1.87391030485357       -0.12119987570122        1.73246535496361
H           -4.82641110508951        2.37030312934617       -0.13890732936049
H           -5.57244358724731        4.73610861132652       -0.20724010275240
H           -3.96069839144796        6.56872630002747       -0.17462618427876
H           -1.52642424007391        6.13470856924320       -0.07100159436221
H            0.29877812698993        3.86696389557499        0.03795707888982
H            3.82982677463150       -2.31748671956445        0.00563367357610
H            6.21547465038900       -2.71032251084429       -0.01539238180531

          :  Hamiltonian                  GFN2-xTB          :
         :: gradient norm              0.000138053565 Eh/a0 ::
         :: HOMO-LUMO gap              2.160015572693 eV    ::
         :: SCC energy               -90.868389372346 Eh    ::
         :: -> dispersion             -0.061113581154 Eh    ::
         :: repulsion energy           1.272020765292 Eh    ::

    * Orbital Energies and Occupations

         #    Occupation            Energy/Eh            Energy/eV
      -------------------------------------------------------------
         1        2.0000           -0.8660403             -23.5662
       ...           ...                  ...                  ...
        68        2.0000           -0.4418188             -12.0225
        69        2.0000           -0.4380329             -11.9195
        70        2.0000           -0.4327810             -11.7766
        71        2.0000           -0.4325471             -11.7702
        72        2.0000           -0.4290889             -11.6761
        73        2.0000           -0.4245929             -11.5538
        74        2.0000           -0.4225664             -11.4986
        75        2.0000           -0.4211041             -11.4588
        76        2.0000           -0.4046848             -11.0120
        77        2.0000           -0.3946357             -10.7386
        78        2.0000           -0.3891419             -10.5891
        79        2.0000           -0.3808686             -10.3640
        80        2.0000           -0.3696687             -10.0592 (HOMO)
        81                         -0.2902896              -7.8992 (LUMO)
        82                         -0.2578214              -7.0157
        83                         -0.2416369              -6.5753
        84                         -0.2377773              -6.4702
        85                         -0.2356211              -6.4116
        86                         -0.2191248              -5.9627
        87                         -0.2110838              -5.7439
        88                         -0.2050267              -5.5791
        89                         -0.1801301              -4.9016
        90                         -0.1490462              -4.0558
        91                         -0.1404065              -3.8207
       ...                                ...                  ...
       150                          0.6991190              19.0240
      -------------------------------------------------------------
                  HL-Gap            0.0793791 Eh            2.1600 eV

     #   Z          covCN         q      C6AA      α(0)
     1   6 C        3.644     0.035    20.312     6.478
     2   8 O        1.706    -0.261    18.328     5.780
     3   6 C        2.866     0.147    24.806     8.164
     4   6 C        2.918    -0.052    29.298     8.876
     5   6 C        2.926    -0.032    28.792     8.800
     6   6 C        2.999    -0.001    28.047     8.687
     7   6 C        2.983     0.028    27.372     8.582
     8   6 C        3.120    -0.056    29.195     8.849
     9   6 C        3.146     0.001    27.751     8.619
    10   6 C        2.975     0.030    27.319     8.574
    11   6 C        2.927    -0.028    28.690     8.784
    12   6 C        2.920    -0.024    28.595     8.769
    13   6 C        2.977    -0.027    28.667     8.783
    14   6 C        3.336     0.485    17.300     6.587
    15   9 F        0.791    -0.209    11.328     3.976
    16   9 F        0.791    -0.207    11.307     3.972
    17   9 F        0.791    -0.215    11.395     3.988
    18   6 C        2.920    -0.020    28.504     8.755
    19   6 C        2.925    -0.016    28.421     8.743
    20   6 C        2.991     0.002    27.970     8.675
    21   6 C        3.207     0.142    24.354     8.036
    22   7 N        1.886    -0.294    28.465     7.909
    23   6 C        3.201     0.070    25.899     8.293
    24   6 C        2.910    -0.041    29.026     8.834
    25   6 C        2.923    -0.038    28.946     8.823
    26   6 C        2.927    -0.035    28.861     8.810
    27   6 C        2.907    -0.053    29.328     8.880
    28   6 C        3.079     0.045    26.913     8.505
    29   7 N        2.780    -0.127    23.758     7.239
    30  16 S        2.363    -0.059   143.490    20.161
    31   6 C        2.926    -0.034    28.858     8.810
    32   6 C        2.915    -0.065    29.613     8.924
    33   1 H        0.925     0.065     2.137     2.286
    34   1 H        0.924     0.043     2.408     2.427
    35   1 H        0.924     0.043     2.409     2.427
    36   1 H        0.926     0.053     2.280     2.361
    37   1 H        0.926     0.048     2.346     2.395
    38   1 H        0.926     0.041     2.432     2.438
    39   1 H        0.926     0.049     2.335     2.389
    40   1 H        0.926     0.056     2.249     2.345
    41   1 H        0.926     0.060     2.198     2.318
    42   1 H        0.926     0.060     2.194     2.316
    43   1 H        0.926     0.046     2.368     2.406
    44   1 H        0.926     0.035     2.514     2.480
    45   1 H        0.926     0.034     2.526     2.485
    46   1 H        0.926     0.028     2.614     2.528
    47   1 H        0.860     0.167     1.288     1.778
    48   1 H        0.926     0.039     2.462     2.454
    49   1 H        0.926     0.040     2.450     2.448

molecular dipole:
                 x           y           z       tot (Debye)
 q only:        2.719       0.806       0.072
   full:        2.946       0.785       0.041       7.749

 projected vibrational frequencies (cm⁻¹)
eigval :       -0.00    -0.00    -0.00     0.00     0.00     0.00
eigval :       12.20    12.43    18.82    22.77    24.86    35.96
eigval :       48.28    59.82    80.12    90.93   103.89   128.92
eigval :      138.07   162.28   167.02   178.25   205.95   226.94
eigval :      237.85   238.72   247.25   278.80   305.80   322.29
eigval :      351.75   367.50   374.07   375.88   377.01   392.08
eigval :      414.27   431.59   443.38   465.62   472.30   475.52
eigval :      513.33   520.72   527.10   540.90   544.12   548.58
eigval :      561.97   592.18   599.02   607.87   611.73   621.77
eigval :      635.41   664.61   676.81   693.11   705.20   712.72
eigval :      738.29   772.39   800.84   804.59   809.08   820.21
eigval :      832.87   853.33   860.17   865.97   869.00   876.60
eigval :      895.42   898.44   912.67   915.44   921.92   922.22
eigval :      924.95   949.02   996.28  1017.09  1019.92  1054.79
eigval :     1063.89  1064.45  1067.58  1076.63  1111.91  1120.75
eigval :     1131.03  1137.13  1144.38  1158.65  1166.47  1175.51
eigval :     1191.05  1197.19  1209.29  1222.22  1233.17  1258.72
eigval :     1269.21  1275.56  1277.55  1292.05  1301.63  1326.71
eigval :     1334.32  1346.90  1368.26  1378.44  1401.14  1405.58
eigval :     1406.25  1415.12  1448.29  1470.90  1474.35  1482.49
eigval :     1491.02  1503.14  1509.13  1558.72  1560.35  1576.11
eigval :     1592.19  1596.01  1599.65  1621.29  2935.04  2947.86
eigval :     3030.15  3076.24  3079.66  3082.88  3086.71  3094.26
eigval :     3096.28  3099.15  3100.54  3108.09  3110.82  3111.01
eigval :     3122.63  3136.29  3474.41

   temp. (K)  partition function   enthalpy   heat capacity  entropy
                                   cal/mol     cal/K/mol   cal/K/mol   J/K/mol
 298.15  VIB  0.919E+13            15541.168     93.891     97.598
         ROT  0.418E+08              888.752      2.981     37.852
         INT  0.384E+21            16429.920     96.872    135.451
         TR   0.925E+28             1481.254      4.968     44.184
         TOT                       17911.1739   101.8401   179.6350   751.5927

       T/K    H(0)-H(T)+PV         H(T)/Eh          T*S/Eh         G(T)/Eh
   ------------------------------------------------------------------------
    298.15    0.285433E-01    0.379842E+00    0.853504E-01    0.294491E+00
   ------------------------------------------------------------------------

         :::::::::::::::::::::::::::::::::::::::::::::::::::::
         ::                  THERMODYNAMIC                  ::
         :::::::::::::::::::::::::::::::::::::::::::::::::::::
         :: total free energy         -89.301877203437 Eh   ::
         ::.................................................::
         :: total energy              -89.596368607053 Eh   ::
         :: zero point energy           0.351298498039 Eh   ::
         :: G(RRHO) w/o ZPVE           -0.056807094423 Eh   ::
         :: G(RRHO) contrib.            0.294491403616 Eh   ::
         :::::::::::::::::::::::::::::::::::::::::::::::::::::

           -------------------------------------------------
          | TOTAL ENERGY              -89.596368607053 Eh   |
          | TOTAL ENTHALPY            -89.216526836534 Eh   |
          | TOTAL FREE ENERGY         -89.301877203437 Eh   |
          | GRADIENT NORM               0.000138013236 Eh/α |
          | HOMO-LUMO GAP               2.160015618285 eV   |
           -------------------------------------------------

 * finished run on 2025/08/25 at 16:06:56.823
