   * xtb version 6.7.1 (edcfbbe) compiled by 'albert@albert-system' on 2024-07-22

   ID    Z sym.   atoms
    1    6 C      1, 3-14, 18-21, 23-28, 31, 32
    2    8 O      2
    3    9 F      15-17
    4    7 N      22, 29
    5   16 S      30
    6    1 H      33-49

          program call               : xtb data2507/gas/3ca/3ca_gas_S0_finalOpt.xtbopt.xyz --gfn 2 --spinpol --tblite --uhf 2 --ohess vtight --parallel 40 --molden --ceasefiles --namespace data2507/gas/3ca/3ca_gas_T1_preOpt
 * total energy  :   -89.5180264 Eh     change       -0.4345907E-08 Eh
 * total energy  :   -89.5257987 Eh     change       -0.7772337E-02 Eh
 * total energy  :   -89.5277746 Eh     change       -0.1975894E-02 Eh
 * total energy  :   -89.5278790 Eh     change       -0.1044304E-03 Eh
 * total energy  :   -89.5279664 Eh     change       -0.8740632E-04 Eh
 * total energy  :   -89.5280271 Eh     change       -0.6067129E-04 Eh
 * total energy  :   -89.5280955 Eh     change       -0.6841867E-04 Eh
 * total energy  :   -89.5281470 Eh     change       -0.5146682E-04 Eh
 * total energy  :   -89.5281808 Eh     change       -0.3382262E-04 Eh
 * total energy  :   -89.5282183 Eh     change       -0.3752881E-04 Eh
 * total energy  :   -89.5284100 Eh     change       -0.1017491E-05 Eh
 * total energy  :   -89.5284106 Eh     change       -0.5796364E-06 Eh
 * total energy  :   -89.5284109 Eh     change       -0.3140115E-06 Eh
 * total energy  :   -89.5284111 Eh     change       -0.1718084E-06 Eh
 * total energy  :   -89.5284112 Eh     change       -0.1488203E-06 Eh
 * total energy  :   -89.5284115 Eh     change       -0.2370259E-06 Eh
 * total energy  :   -89.5284117 Eh     change       -0.1993515E-06 Eh
 * total energy  :   -89.5284119 Eh     change       -0.2444719E-06 Eh
 * total energy  :   -89.5284120 Eh     change       -0.7789642E-07 Eh
   *** GEOMETRY OPTIMIZATION CONVERGED AFTER 44 ITERATIONS ***

 final structure:
================
49
 xtb: 6.7.1 (edcfbbe)
C            8.68613692353658       -1.99806517638493       -0.15224857721284
O            8.10224100770078       -0.73141715791124        0.03822807281999
C            6.75222422069060       -0.62224758811491        0.03303170704190
C            6.24074370543266        0.67021970667533        0.23170978335102
C            4.89235682409395        0.89314964289345        0.24563560570527
C            3.96895973221898       -0.16391579982140        0.06155692119367
C            2.58078754517068        0.07506927848057        0.07974660123503
C            1.51842474004589       -0.83675918301662       -0.05441539751257
C            0.25883817175107       -0.30513519702221        0.05068288516376
C           -0.96318919441790       -1.08433853506454        0.04214550722158
C           -1.09655099446005       -2.16683970252810       -0.83345059600118
C           -2.24729373251016       -2.92436657410439       -0.84910415992099
C           -3.28790109840197       -2.61210845258941        0.02010379966254
C           -4.52485649873535       -3.45716347890558        0.01748137483802
F           -4.85842403818636       -3.89516976601964       -1.20909145363119
F           -5.60445994172779       -2.82260141959994        0.49911928088871
F           -4.38342686249130       -4.56965502844619        0.77454030868734
C           -3.16200122540998       -1.55539061144072        0.91455077150403
C           -2.00979059013521       -0.79874175039485        0.92477692832063
C            0.28797380811669        1.13546268269570        0.19759763935432
C           -0.76157688032551        2.02694172261766        0.09546666305015
N           -2.04885179127755        1.70748622687801       -0.13667765981879
C           -2.72327980958665        2.86728238608038       -0.16316595916514
C           -4.08835468131000        3.10617283426928       -0.36451179358179
C           -4.51843300490640        4.41315711628480       -0.35119970444299
C           -3.63532278644393        5.47951652473597       -0.14481149089683
C           -2.27946368422842        5.27524780761858        0.05737040302220
C           -1.83315303501153        3.96872875052125        0.04869617660994
N           -0.60259253184645        3.40518890860084        0.20503371139175
S            1.94473010357205        1.71083556929728        0.32626530563901
C            4.50208779917782       -1.45689028762194       -0.13941598331114
C            5.85753260334045       -1.68054729222311       -0.15216710433232
H            9.76180735780166       -1.83638719426725       -0.10619170273558
H            8.39160617753453       -2.69817807416988        0.63579377264433
H            8.42503795632884       -2.41747114008829       -1.12890096548583
H            6.94216527207710        1.47717916532039        0.37265872197970
H            4.51213103639738        1.89197245376826        0.40034050995831
H            1.69375386042041       -1.89119195472096       -0.17156218167058
H           -0.29926994597846       -2.39278249581013       -1.52531784561041
H           -2.35229220615849       -3.74913262465885       -1.53777451283433
H           -3.96799858529438       -1.33000193948447        1.59578033169482
H           -1.90407032880363        0.00116494209563        1.63770758142812
H           -4.76284788747878        2.28057020913320       -0.52124591813488
H           -5.56530347622516        4.63024015956770       -0.50290260560028
H           -4.02184081584540        6.48761246270587       -0.14358655037639
H           -1.60304179580081        6.10181827046755        0.21463416920586
H            0.27086937553902        3.87722345954953        0.36334158054589
H            3.83523863650654       -2.29150599760940       -0.28561887222915
H            6.21879873385241       -2.68512784033377       -0.30795382983009

 projected vibrational frequencies (cm⁻¹)
eigval :       -0.00     0.00     0.00     0.00     0.00     0.00
eigval :       14.31    18.02    20.29    29.42    38.22    45.13
eigval :       52.57    57.83    85.95    99.05   103.66   122.05
eigval :      132.04   157.53   168.58   175.30   196.50   223.12
eigval :      232.95   240.43   246.38   260.97   299.74   314.16
eigval :      334.27   355.44   374.04   374.54   377.68   381.62
eigval :      406.77   414.70   430.09   442.89   458.41   461.87
eigval :      473.24   506.07   511.09   521.15   523.33   537.23
eigval :      553.63   584.26   588.71   599.93   602.80   611.28
eigval :      616.91   627.09   663.35   666.06   695.50   707.00
eigval :      726.22   757.95   783.31   795.14   801.51   812.95
eigval :      821.56   830.74   842.64   852.01   861.50   866.14
eigval :      885.48   888.06   893.77   909.70   909.94   914.12
eigval :      918.38   934.89   985.16   996.52  1014.05  1027.76
eigval :     1050.09  1059.49  1061.78  1074.69  1081.23  1117.35
eigval :     1124.13  1131.14  1145.66  1154.70  1164.07  1167.11
eigval :     1182.52  1187.42  1197.81  1210.86  1230.49  1252.68
eigval :     1257.61  1262.46  1270.67  1273.83  1292.40  1304.41
eigval :     1319.46  1331.74  1332.48  1360.09  1370.41  1398.73
eigval :     1401.35  1406.07  1418.28  1439.17  1467.44  1468.56
eigval :     1478.41  1482.56  1502.85  1505.60  1530.52  1552.55
eigval :     1567.83  1580.39  1587.40  1595.48  2937.69  2950.32
eigval :     3030.89  3079.57  3084.90  3086.36  3087.39  3095.59
eigval :     3096.52  3098.54  3098.97  3107.57  3109.25  3114.39
eigval :     3122.99  3130.38  3486.57

   temp. (K)  partition function   enthalpy   heat capacity  entropy
                                   cal/mol     cal/K/mol   cal/K/mol   J/K/mol
 298.15  VIB  0.281E+13            15771.151     96.134     98.314
         ROT  0.413E+08              888.752      2.981     37.829
         INT  0.116E+21            16659.904     99.114    136.143
         TR   0.925E+28             1481.254      4.968     44.184
         TOT                       18141.1575   104.0826   180.3273   754.4894

       T/K    H(0)-H(T)+PV         H(T)/Eh          T*S/Eh         G(T)/Eh
   ------------------------------------------------------------------------
    298.15    0.289098E-01    0.377092E+00    0.856793E-01    0.291413E+00
   ------------------------------------------------------------------------

         :::::::::::::::::::::::::::::::::::::::::::::::::::::
         ::                  THERMODYNAMIC                  ::
         :::::::::::::::::::::::::::::::::::::::::::::::::::::
         :: total free energy         -89.236998870179 Eh   ::
         ::.................................................::
         :: total energy              -89.528411960387 Eh   ::
         :: zero point energy           0.348182636545 Eh   ::
         :: G(RRHO) w/o ZPVE           -0.056769546337 Eh   ::
         :: G(RRHO) contrib.            0.291413090208 Eh   ::
         :::::::::::::::::::::::::::::::::::::::::::::::::::::

           -------------------------------------------------
          | TOTAL ENERGY              -89.528411960387 Eh   |
          | TOTAL ENTHALPY            -89.151319549219 Eh   |
          | TOTAL FREE ENERGY         -89.236998870179 Eh   |
          | GRADIENT NORM               0.000099316477 Eh/α |
           -------------------------------------------------

 * finished run on 2025/08/25 at 16:07:00.695
