   * xtb version 6.7.1 (edcfbbe) compiled by 'albert@albert-system' on 2024-07-22

   ID    Z sym.   atoms
    1    6 C      1, 3-14, 18-21, 23-28, 31, 32
    2    8 O      2
    3    9 F      15-17
    4    7 N      22, 29
    5   16 S      30
    6    1 H      33-49

          program call               : xtb data2507/gas/3ca/3ca_gas_T1_crest.xyz --gfn 2 --spinpol --tblite --uhf 2 --ohess vtight --parallel 40 --molden --ceasefiles --namespace data2507/gas/3ca/3ca_gas_T1_finalOpt
 * total energy  :   -89.5283821 Eh     change       -0.4008314E-08 Eh
 * total energy  :   -89.5283975 Eh     change       -0.1541972E-04 Eh
 * total energy  :   -89.5284028 Eh     change       -0.5286399E-05 Eh
 * total energy  :   -89.5284039 Eh     change       -0.1107852E-05 Eh
 * total energy  :   -89.5284055 Eh     change       -0.1622373E-05 Eh
 * total energy  :   -89.5284071 Eh     change       -0.1652534E-05 Eh
 * total energy  :   -89.5284088 Eh     change       -0.1639058E-05 Eh
 * total energy  :   -89.5284100 Eh     change       -0.1212215E-05 Eh
 * total energy  :   -89.5284106 Eh     change       -0.5816102E-06 Eh
 * total energy  :   -89.5284109 Eh     change       -0.3413310E-06 Eh
 * total energy  :   -89.5284112 Eh     change       -0.2970500E-06 Eh
 * total energy  :   -89.5284115 Eh     change       -0.3185729E-06 Eh
 * total energy  :   -89.5284119 Eh     change       -0.3463942E-06 Eh
 * total energy  :   -89.5284123 Eh     change       -0.4611259E-06 Eh
 * total energy  :   -89.5284126 Eh     change       -0.2338096E-06 Eh
 * total energy  :   -89.5284126 Eh     change       -0.4907650E-07 Eh
   *** GEOMETRY OPTIMIZATION CONVERGED AFTER 16 ITERATIONS ***

 final structure:
================
49
 xtb: 6.7.1 (edcfbbe)
C            8.68934544751432       -1.99743821519576       -0.24027288831040
O            8.10564516724319       -0.73140006243498       -0.04520143478841
C            6.75542221761284       -0.62484335645776       -0.03295486078199
C            6.24394257372664        0.66784833130777        0.16424638299840
C            4.89537657248361        0.88836173625988        0.19358605000083
C            3.97180585122823       -0.17156124151855        0.02759243068043
C            2.58348222625070        0.06526528423632        0.05820398820489
C            1.52153806663925       -0.84934803538778       -0.05916413649284
C            0.26189192438191       -0.31808260718884        0.04697311260013
C           -0.95975067986213       -1.09775936511155        0.05079951743336
C           -2.00514096848420       -0.80142873025471        0.93148202659286
C           -3.15821442350351       -1.55668643177097        0.93021567106714
C           -3.28638341842893       -2.62288396247635        0.04713263944465
C           -4.52682706369336       -3.46279458801211        0.05710306559789
F           -5.61324453914953       -2.80043146452181        0.48392162724672
F           -4.40842292757316       -4.53747867684494        0.87061067363143
F           -4.83629868235311       -3.95805397303542       -1.15348721348224
C           -2.24654238314639       -2.94659831475217       -0.81856435948628
C           -1.09488936119907       -2.19019756296739       -0.81202309918428
C            0.29026466506911        1.12416815310944        0.17727471472127
C           -0.76015329786674        2.01340142983782        0.06491686655774
N           -2.04740102238062        1.68968221012659       -0.16119871020508
C           -2.72275026172279        2.84844958837925       -0.20396096523142
C           -4.08810575451310        3.08339171220830       -0.40807557516384
C           -4.51896003876118        4.39017355984411       -0.41434666186991
C           -3.63641398235597        5.46007748282615       -0.22454671107879
C           -2.28033006303305        5.25974025397915       -0.01989770350408
C           -1.83322914468237        3.95350219020760       -0.00903871349697
N           -0.60211086566919        3.39313663341806        0.15467480033221
S            1.94694369262436        1.70248259940546        0.29325858401439
C            4.50492042631531       -1.46495756616560       -0.17070044087876
C            5.86052384085969       -1.68609938811430       -0.19932709119960
H            8.40797709143613       -2.69578386857708        0.55411565972333
H            8.41468388075159       -2.42031917527075       -1.21170324883072
H            9.76523705304506       -1.83343577206013       -0.21057892593745
H            6.94549002911817        1.47704218230644        0.29107584828628
H            4.51514593278983        1.88747502348668        0.34635031254295
H            1.69771811201260       -1.90476255384848       -0.16559417623732
H           -1.89792544903396        0.00620637089516        1.63541132992320
H           -3.96380393630242       -1.32277908058864        1.60908018497533
H           -2.35250076172795       -3.77890893168263       -1.49790324408389
H           -0.29837908315197       -2.42498585641436       -1.50183465430522
H           -4.76216564811355        2.25511271112109       -0.55204524324293
H           -5.56600070429390        4.60431405585955       -0.56901701532205
H           -4.02352077535630        6.46785472059433       -0.23870387330603
H           -1.60432256842935        6.08901744789317        0.12434305851646
H            0.27091520383307        3.86855490797389        0.30507122078086
H            3.83793846281491       -2.30180612777033       -0.30278544269637
H            6.22172678463724       -2.69103001705317       -0.35294804185551

 projected vibrational frequencies (cm⁻¹)
eigval :       -0.00    -0.00    -0.00     0.00     0.00     0.00
eigval :       13.66    18.03    19.86    29.43    38.00    44.98
eigval :       52.45    57.73    85.88    99.17   103.70   122.04
eigval :      131.98   158.06   168.16   175.30   196.51   223.18
eigval :      232.90   240.45   246.40   261.12   299.87   314.12
eigval :      334.40   355.33   374.00   374.61   377.68   381.67
eigval :      406.93   414.61   430.16   442.74   457.59   461.49
eigval :      473.20   506.04   511.01   521.08   523.15   537.23
eigval :      553.52   584.24   588.69   599.91   602.75   611.30
eigval :      616.88   626.95   663.33   666.09   695.43   706.99
eigval :      726.22   757.81   783.22   795.00   801.30   812.80
eigval :      821.57   830.61   842.67   851.83   861.19   866.11
eigval :      885.35   887.84   893.75   909.54   909.89   913.95
eigval :      918.36   934.90   985.06   996.51  1014.03  1027.72
eigval :     1050.05  1059.57  1062.07  1074.02  1081.36  1117.24
eigval :     1124.12  1131.18  1145.56  1154.61  1163.91  1167.32
eigval :     1182.31  1187.46  1197.71  1210.95  1230.52  1252.55
eigval :     1257.55  1262.04  1270.49  1273.83  1292.25  1304.33
eigval :     1319.23  1331.75  1332.50  1359.97  1370.25  1398.51
eigval :     1401.43  1405.87  1418.07  1438.88  1467.07  1468.07
eigval :     1478.27  1482.33  1502.80  1505.59  1530.50  1552.51
eigval :     1567.81  1580.37  1587.17  1595.44  2937.63  2950.40
eigval :     3031.08  3079.63  3084.95  3086.52  3087.39  3095.68
eigval :     3096.56  3098.62  3098.80  3107.58  3109.31  3114.26
eigval :     3123.08  3130.56  3486.62

   temp. (K)  partition function   enthalpy   heat capacity  entropy
                                   cal/mol     cal/K/mol   cal/K/mol   J/K/mol
 298.15  VIB  0.303E+13            15774.377     96.128     98.379
         ROT  0.412E+08              888.752      2.981     37.827
         INT  0.125E+21            16663.129     99.109    136.207
         TR   0.925E+28             1481.254      4.968     44.184
         TOT                       18144.3828   104.0773   180.3913   754.7572

       T/K    H(0)-H(T)+PV         H(T)/Eh          T*S/Eh         G(T)/Eh
   ------------------------------------------------------------------------
    298.15    0.289149E-01    0.377076E+00    0.857097E-01    0.291367E+00
   ------------------------------------------------------------------------

         :::::::::::::::::::::::::::::::::::::::::::::::::::::
         ::                  THERMODYNAMIC                  ::
         :::::::::::::::::::::::::::::::::::::::::::::::::::::
         :: total free energy         -89.237045962740 Eh   ::
         ::.................................................::
         :: total energy              -89.528412646019 Eh   ::
         :: zero point energy           0.348161498510 Eh   ::
         :: G(RRHO) w/o ZPVE           -0.056794815232 Eh   ::
         :: G(RRHO) contrib.            0.291366683278 Eh   ::
         :::::::::::::::::::::::::::::::::::::::::::::::::::::

           -------------------------------------------------
          | TOTAL ENERGY              -89.528412646019 Eh   |
          | TOTAL ENTHALPY            -89.151336232936 Eh   |
          | TOTAL FREE ENERGY         -89.237045962740 Eh   |
          | GRADIENT NORM               0.000112770737 Eh/α |
           -------------------------------------------------

 * finished run on 2025/08/25 at 16:08:24.622
