   * xtb version 6.7.1 (edcfbbe) compiled by 'albert@albert-system' on 2024-07-22

   ID    Z sym.   atoms
    1    6 C      1-4, 6-22, 24-36, 38-42, 44-59
    2    7 N      5, 23, 37, 43
    3    1 H      60-95

          program call               : xtb data2507/gas/DmPy-PPI/DmPy-PPI_gas_S0_finalOpt.xtbopt.xyz --gfn 2 --spinpol --tblite --uhf 2 --ohess vtight --parallel 40 --molden --ceasefiles --namespace data2507/gas/DmPy-PPI/DmPy-PPI_gas_T1_preOpt
 * total energy  :  -147.7595503 Eh     change        0.2874501E-07 Eh
 * total energy  :  -147.7659528 Eh     change       -0.6402519E-02 Eh
 * total energy  :  -147.7691623 Eh     change       -0.3209561E-02 Eh
 * total energy  :  -147.7698114 Eh     change       -0.6491055E-03 Eh
 * total energy  :  -147.7708713 Eh     change       -0.1059839E-02 Eh
 * total energy  :  -147.7712546 Eh     change       -0.3832909E-03 Eh
 * total energy  :  -147.7715371 Eh     change       -0.2825061E-03 Eh
 * total energy  :  -147.7717552 Eh     change       -0.2180878E-03 Eh
 * total energy  :  -147.7719009 Eh     change       -0.1456903E-03 Eh
 * total energy  :  -147.7720022 Eh     change       -0.1013495E-03 Eh
 * total energy  :  -147.7725170 Eh     change        0.5904931E-07 Eh
 * total energy  :  -147.7725174 Eh     change       -0.3694007E-06 Eh
 * total energy  :  -147.7725177 Eh     change       -0.2573412E-06 Eh
 * total energy  :  -147.7725179 Eh     change       -0.2633930E-06 Eh
 * total energy  :  -147.7725181 Eh     change       -0.1918725E-06 Eh
 * total energy  :  -147.7725184 Eh     change       -0.2966316E-06 Eh
 * total energy  :  -147.7725188 Eh     change       -0.3412082E-06 Eh
 * total energy  :  -147.7725190 Eh     change       -0.2582140E-06 Eh
 * total energy  :  -147.7725191 Eh     change       -0.9524962E-07 Eh
   *** GEOMETRY OPTIMIZATION CONVERGED AFTER 89 ITERATIONS ***

 final structure:
================
95
 xtb: 6.7.1 (edcfbbe)
C            4.68934215754886       -4.70307810756287        0.80978105188555
C            5.41645988019750       -3.95327883452896        1.72177244597879
C            5.68017944766988       -2.61962222390524        1.47424397246863
C            5.21333904269950       -2.02844031136287        0.30101607263206
N            5.46205999317745       -0.67117772867745        0.04523188932545
C            4.47137207801377        0.33458432511409       -0.09040483244005
C            3.10372591840632        0.23209457669252        0.14600335445994
C            2.43402247128675       -0.86616911031054        0.77212920319959
C            1.08334377187749       -0.86881867144358        0.92395456965363
C            0.26640352086081        0.21004784982796        0.49391145782668
C           -1.16490915839724        0.17796335279353        0.64995551396007
C           -1.91524518281121        1.36190767334606        0.75299532439164
C           -3.29159068892266        1.33775314874161        0.90110038420078
C           -4.05000725979914        2.59392118096262        1.01521788462475
C           -3.56948625636544        3.65118012892401        1.78438349151833
C           -4.29018391561775        4.82718436951627        1.88305434130354
C           -5.49541734413467        4.96828701829606        1.22036651520439
C           -5.99323678075273        3.92401860558531        0.44390466805786
C           -7.27210432401793        4.06184771601660       -0.26372312923178
C           -7.45610148688744        3.56528503051227       -1.55329617779141
C           -8.68346091797302        3.72273653470275       -2.17211034899299
C           -9.69135686192470        4.37894142169579       -1.48143750294902
N           -9.53485342162563        4.85058946643273       -0.25635516988462
C           -8.36560931495014        4.69362260231107        0.33206242861965
C           -5.26206094886398        2.74476356475618        0.35082216033753
C           -3.95508129177364        0.11146147235004        0.93999861510968
C           -3.23967776373679       -1.08153459706326        0.83912417672872
C           -3.94905421907243       -2.37039577898297        0.87260280796863
C           -3.44488871640493       -3.44374402402350        1.60323365303951
C           -4.12209806534164       -4.64890608023070        1.63160113007394
C           -5.30224904880410       -4.80539158506302        0.92836285648714
C           -5.82287534927532       -3.74537042546852        0.18928210372710
C           -7.07527931773403       -3.89927035237962       -0.56075376154067
C           -7.37075227087309       -5.06573622799354       -1.26442237896722
C           -8.56545519343174       -5.15597745471614       -1.95635365703582
C           -9.42869653303570       -4.07085487096486       -1.92683884504117
N           -9.16669412072516       -2.95971535776655       -1.25987266652847
C           -8.02935267643689       -2.88035514031069       -0.59765686318254
C           -5.13940497633574       -2.53432270040163        0.17336700993348
C           -1.86283075872063       -1.04150338580723        0.70131911324201
C            0.93661692443074        1.32822716834502       -0.07304188720656
C            2.28251180870070        1.34546661895808       -0.23756197213135
N            5.04990873657548        1.51001673640282       -0.43437485270086
C            6.35111802348944        1.30268096442300       -0.47241558254123
C            7.37658438670250        2.26158035592746       -0.72884716178571
C            7.05635302707317        3.60348551859027       -0.94089672165092
C            8.05167201693047        4.53250332659038       -1.15169375552054
C            9.37753161329848        4.11760897086589       -1.14247252783098
C            9.70322332763193        2.79149486712018       -0.93908961641723
C            8.71843946556617        1.81676268721748       -0.73453371820807
C            9.02503925314084        0.40653985462713       -0.55443949855181
C           10.33203825615575       -0.07258996408574       -0.64626955403375
C           10.63841578225180       -1.41194071552565       -0.51871271640652
C            9.62053505938514       -2.34283563091836       -0.30975428771603
C            8.32301203927295       -1.92033887833091       -0.20402993861400
C            7.98383142704603       -0.55054006033613       -0.30088810017994
C            6.66977609266640       -0.06692900768909       -0.19866188601013
C            4.48227680565462       -2.78226002549930       -0.61528109206782
C            4.22420499506497       -4.11481743401721       -0.35588794590282
H            4.48472668052123       -5.74399893772484        1.00876343377078
H            5.77534912130422       -4.40811384540581        2.63292979724968
H            6.24307941636246       -2.02587396742196        2.17966334533168
H            3.00875073832184       -1.68330170887270        1.17606105383991
H            0.62185413180616       -1.69999234271627        1.43635982632037
H           -1.41076211304884        2.31530737230896        0.73187403629810
H           -2.63887491500112        3.54186113181556        2.32140737916244
H           -3.90960871372904        5.64121227247494        2.48274434231523
H           -6.04468503228898        5.89566424770557        1.28643452513769
H           -6.63936650136965        3.08004674048327       -2.06916457732403
H           -8.85304765856022        3.35035396035249       -3.17074802609560
H          -10.66649445553090        4.53616129116550       -1.92299441510638
H           -8.29721299445727        5.07790477132494        1.34185693541239
H           -5.64299278101602        1.93012807598197       -0.24822277445162
H           -5.02346458423941        0.08362320552271        1.09283094222152
H           -2.53118817744108       -3.32379080678543        2.16650738392610
H           -3.72940721881252       -5.47266122889662        2.21004808375176
H           -5.83486880034935       -5.74426033680308        0.96884350324064
H           -6.66189813914825       -5.88167672086324       -1.28277162253501
H           -8.81867685072196       -6.04566686352456       -2.51243455650548
H          -10.37122291187149       -4.08682900431904       -2.45801533128070
H           -7.87383785224134       -1.95926613939716       -0.05026942385490
H           -5.52007728368133       -1.71894272122518       -0.42450855336022
H           -1.32512313150426       -1.96845457948119        0.57248060462054
H            0.35449352094814        2.16869215670677       -0.41940432553139
H            2.78089817005222        2.18798969081571       -0.68885123361360
H            6.01421075511409        3.88179326735850       -0.92729351368736
H            7.80758069104357        5.57108021597783       -1.31622110639031
H           10.16688365740652        4.83911523968434       -1.29669006307028
H           10.74728017571367        2.52202630728976       -0.93797616845613
H           11.14257863887535        0.61328303966537       -0.83351014994137
H           11.66402765930071       -1.73992057622417       -0.59534693758840
H            9.85530641068659       -3.39429977928604       -0.23638143902414
H            7.53998437800791       -2.64699521374493       -0.06379501428437
H            4.12006404253043       -2.31264827326626       -1.51761949003109
H            3.65961603970542       -4.69751071009406       -1.06815023804180

 projected vibrational frequencies (cm⁻¹)
eigval :       -0.00    -0.00    -0.00     0.00     0.00     0.00
eigval :        6.85     7.80    11.09    14.64    17.99    19.26
eigval :       29.91    32.24    35.36    41.57    46.61    51.19
eigval :       58.50    59.92    68.54    69.42    83.96    88.07
eigval :       92.44    97.25   102.83   118.92   127.10   136.49
eigval :      139.33   160.28   175.96   198.01   214.05   219.80
eigval :      225.66   235.14   240.25   245.29   250.06   260.71
eigval :      265.54   269.29   283.49   291.85   316.60   319.68
eigval :      322.58   342.76   353.16   360.90   369.99   371.95
eigval :      374.74   375.89   377.97   388.34   394.59   402.26
eigval :      406.83   418.71   432.86   437.21   440.08   461.96
eigval :      474.66   486.41   491.38   497.04   510.76   519.53
eigval :      523.26   551.49   571.72   580.24   581.73   584.39
eigval :      587.06   592.58   593.87   597.65   602.97   607.37
eigval :      608.48   616.95   630.44   637.45   641.01   654.26
eigval :      657.12   660.09   666.24   668.79   672.46   675.26
eigval :      676.56   691.15   691.85   692.75   719.22   727.31
eigval :      735.22   752.84   758.12   760.04   773.51   774.59
eigval :      779.02   791.60   793.87   800.44   805.72   810.19
eigval :      823.28   849.71   850.20   865.67   868.40   868.75
eigval :      872.30   884.08   890.50   894.60   895.07   896.98
eigval :      897.67   899.26   904.39   904.84   906.98   911.66
eigval :      913.21   913.67   914.05   914.24   917.54   922.01
eigval :      926.48   927.84   928.66   929.00   930.90   931.14
eigval :      931.27   954.89   962.56   984.69   985.82   987.02
eigval :      996.88   999.70  1002.71  1041.55  1062.93  1077.00
eigval :     1078.53  1088.67  1092.08  1094.45  1097.83  1099.11
eigval :     1102.54  1115.26  1115.89  1123.14  1132.56  1134.52
eigval :     1136.46  1140.14  1141.41  1143.54  1154.73  1175.64
eigval :     1179.49  1180.57  1184.92  1188.14  1190.52  1191.27
eigval :     1198.63  1199.06  1200.53  1216.53  1224.00  1232.67
eigval :     1246.10  1248.39  1250.02  1259.70  1261.50  1266.12
eigval :     1268.07  1271.41  1274.35  1278.33  1281.63  1283.16
eigval :     1285.86  1300.77  1307.84  1313.51  1314.67  1319.72
eigval :     1320.24  1328.19  1333.75  1335.95  1343.55  1350.38
eigval :     1373.37  1384.94  1390.32  1393.06  1397.76  1404.32
eigval :     1409.96  1420.47  1423.44  1432.43  1434.60  1438.54
eigval :     1444.02  1450.50  1454.77  1457.70  1475.89  1478.86
eigval :     1479.51  1484.78  1494.72  1507.60  1537.43  1538.20
eigval :     1544.93  1557.87  1559.63  1562.14  1565.15  1568.33
eigval :     1572.15  1573.11  1576.69  1577.29  1578.46  1579.55
eigval :     1589.95  1592.02  1593.35  3052.30  3053.64  3059.79
eigval :     3060.69  3068.25  3068.51  3072.60  3074.64  3075.48
eigval :     3078.80  3079.02  3079.75  3081.01  3081.48  3082.62
eigval :     3083.34  3084.53  3085.61  3088.67  3088.77  3089.53
eigval :     3090.13  3090.25  3090.66  3091.33  3092.46  3092.98
eigval :     3094.76  3098.40  3098.95  3101.36  3107.28  3110.63
eigval :     3114.18  3118.32  3126.13

   temp. (K)  partition function   enthalpy   heat capacity  entropy
                                   cal/mol     cal/K/mol   cal/K/mol   J/K/mol
 298.15  VIB  0.255E+24            27881.706    172.680    176.479
         ROT  0.242E+09              888.752      2.981     41.347
         INT  0.619E+32            28770.459    175.661    217.826
         TR   0.200E+29             1481.254      4.968     45.715
         TOT                       30251.7127   180.6289   263.5403  1102.6528

       T/K    H(0)-H(T)+PV         H(T)/Eh          T*S/Eh         G(T)/Eh
   ------------------------------------------------------------------------
    298.15    0.482092E-01    0.772619E+00    0.125217E+00    0.647403E+00
   ------------------------------------------------------------------------

         :::::::::::::::::::::::::::::::::::::::::::::::::::::
         ::                  THERMODYNAMIC                  ::
         :::::::::::::::::::::::::::::::::::::::::::::::::::::
         :: total free energy        -147.125116568429 Eh   ::
         ::.................................................::
         :: total energy             -147.772519155933 Eh   ::
         :: zero point energy           0.724409934353 Eh   ::
         :: G(RRHO) w/o ZPVE           -0.077007346849 Eh   ::
         :: G(RRHO) contrib.            0.647402587505 Eh   ::
         :::::::::::::::::::::::::::::::::::::::::::::::::::::

           -------------------------------------------------
          | TOTAL ENERGY             -147.772519155933 Eh   |
          | TOTAL ENTHALPY           -146.999900048744 Eh   |
          | TOTAL FREE ENERGY        -147.125116568429 Eh   |
          | GRADIENT NORM               0.000033759105 Eh/α |
           -------------------------------------------------

 * finished run on 2025/08/24 at 19:18:18.936
