   * xtb version 6.7.1 (edcfbbe) compiled by 'albert@albert-system' on 2024-07-22

   ID    Z sym.   atoms
    1    6 C      1-4, 6-22, 24-36, 38-42, 44-59
    2    7 N      5, 23, 37, 43
    3    1 H      60-95

          program call               : xtb data2507/gas/DmPy-PPI/DmPy-PPI_gas_T1_crest.xyz --gfn 2 --spinpol --tblite --uhf 2 --ohess vtight --parallel 40 --molden --ceasefiles --namespace data2507/gas/DmPy-PPI/DmPy-PPI_gas_T1_finalOpt
 * total energy  :  -147.7724795 Eh     change       -0.1716575E-07 Eh
 * total energy  :  -147.7724906 Eh     change       -0.1110593E-04 Eh
 * total energy  :  -147.7724952 Eh     change       -0.4560637E-05 Eh
 * total energy  :  -147.7724965 Eh     change       -0.1323043E-05 Eh
 * total energy  :  -147.7724992 Eh     change       -0.2739516E-05 Eh
 * total energy  :  -147.7725014 Eh     change       -0.2116818E-05 Eh
 * total energy  :  -147.7725030 Eh     change       -0.1665616E-05 Eh
 * total energy  :  -147.7725042 Eh     change       -0.1154732E-05 Eh
 * total energy  :  -147.7725049 Eh     change       -0.7308235E-06 Eh
 * total energy  :  -147.7725056 Eh     change       -0.7365323E-06 Eh
 * total energy  :  -147.7725157 Eh     change       -0.9328278E-06 Eh
 * total energy  :  -147.7725159 Eh     change       -0.1498615E-06 Eh
 * total energy  :  -147.7725164 Eh     change       -0.4957336E-06 Eh
 * total energy  :  -147.7725168 Eh     change       -0.4528805E-06 Eh
 * total energy  :  -147.7725173 Eh     change       -0.4466056E-06 Eh
 * total energy  :  -147.7725176 Eh     change       -0.3711833E-06 Eh
 * total energy  :  -147.7725179 Eh     change       -0.2788622E-06 Eh
 * total energy  :  -147.7725181 Eh     change       -0.1866513E-06 Eh
 * total energy  :  -147.7725181 Eh     change       -0.3759834E-07 Eh
   *** GEOMETRY OPTIMIZATION CONVERGED AFTER 33 ITERATIONS ***

 final structure:
================
95
 xtb: 6.7.1 (edcfbbe)
C            4.72098773920114       -4.70465464217993        0.68572864342050
C            5.43676150023279       -3.97522013438346        1.62286810438366
C            5.69381163995619       -2.63381097943890        1.41322061530215
C            5.23185579486823       -2.01411853441267        0.25279426743754
N            5.47431953633244       -0.64918755681342        0.03528173296974
C            4.47880990594925        0.35409944722815       -0.08306459820233
C            3.10976693482137        0.23767494725985        0.13865217556847
C            2.44167468341988       -0.88001421449020        0.73110495351894
C            1.09020146610845       -0.89251248764104        0.87573626902508
C            0.27082125468029        0.19407265767560        0.47086048938751
C           -1.16070906090010        0.15361414274860        0.62438841121444
C           -1.91378319361054        1.33231179374580        0.76124297901503
C           -3.28969336507708        1.30031230821164        0.91203834481213
C           -4.05142756656313        2.55036728301334        1.06460124591168
C           -3.57167829389926        3.58626241071128        1.86277453585430
C           -4.29629933697488        4.75608261976136        1.99910257775198
C           -5.50476909499536        4.91211942725618        1.34571705000455
C           -6.00159041000781        3.88955006990810        0.54030982490176
C           -7.28362529992335        4.04348547963368       -0.15822267806393
C           -7.46944951760521        3.58760576131002       -1.46244611492539
C           -8.69961605723744        3.75872826570949       -2.07199129400558
C           -9.70843337098708        4.38723134890879       -1.35731685389568
N           -9.55018148655655        4.82004113052416       -0.11820256091332
C           -8.37817121819484        4.65028616982150        0.46109875172874
C           -5.26649349220497        2.71637004313216        0.40937813548356
C           -3.94973845626977        0.07157794970512        0.91904393390359
C           -3.23165651888352       -1.11632353583385        0.78317550301084
C           -3.93781538276650       -2.40737462424918        0.78613847307117
C           -3.42623274261160       -3.49847736936827        1.48469835778709
C           -4.10128354896949       -4.70514525549741        1.48722379415208
C           -5.28720941747756       -4.84522862901676        0.79026517024840
C           -5.81538820573855       -3.76735774979619        0.08304965793244
C           -7.07487544473831       -3.90342630076723       -0.65853953243664
C           -7.37776010314495       -5.05277525030087       -1.38680157232438
C           -8.57969333997106       -5.12674204927373       -2.06808462057098
C           -9.44257327921761       -4.04285571240363       -2.00361326823673
N           -9.17349305972675       -2.94787191860875       -1.31315519087292
C           -8.02930494563236       -2.88413853028583       -0.66114784680635
C           -5.13337365128797       -2.55537556824347        0.09222801707201
C           -1.85524195723384       -1.06865039501390        0.64275918505871
C            0.93856115130844        1.32877104642607       -0.06514546507888
C            2.28524974424101        1.35614808445132       -0.22219513223344
N            5.05352859163077        1.54186703537983       -0.38893905650105
C            6.35632890746820        1.34358269228452       -0.41833361008996
C            7.37859310083523        2.31553821247195       -0.63537046845669
C            7.05259413934730        3.66136225232845       -0.81055843331830
C            8.04456981475539        4.60212330985226       -0.98138471032588
C            9.37275435383268        4.19488911993299       -0.96905693742961
C            9.70422187432620        2.86508273553601       -0.80224380947044
C            8.72315235608210        1.87892640635569       -0.63898728651408
C            9.03636992663469        0.46568423819089       -0.49805532889668
C           10.34682673488285       -0.00322078424260       -0.59276649764234
C           10.65990159191369       -1.34405562089405       -0.50211178114973
C            9.64574611531682       -2.28629404813962       -0.32909907090532
C            8.34492079658211       -1.87434441978187       -0.22230125479295
C            7.99852318069350       -0.50421737825228       -0.28226034420508
C            6.68070100830156       -0.03124276651979       -0.17904310638236
C            4.51213928020238       -2.74750267218810       -0.68877363432549
C            4.26052513252893       -4.08806283923159       -0.46710039524575
H            4.52157305104502       -5.75179956158777        0.85512054345543
H            5.79174761235517       -4.45213750671113        2.52421196912513
H            6.24781809958948       -2.05583332732541        2.13849813684128
H            3.01784060781523       -1.70514185421726        1.11626518485344
H            0.62977630697609       -1.73896356364527        1.36349021078801
H           -1.41166113635691        2.28719165300504        0.76552126227194
H           -2.63856023525553        3.46460570124145        2.39274785733565
H           -3.91636196916164        5.55335501044818        2.62128576121730
H           -6.05751191493519        5.83481167035687        1.44171931448805
H           -6.65197138492648        3.12333244961114       -1.99613496172494
H           -8.87065649616702        3.41789390768751       -3.08158421927286
H          -10.68587386112774        4.55345359659278       -1.79040252895025
H           -8.30813841978020        5.00241293591169        1.48244242999367
H           -5.64682205659702        1.91852068042345       -0.21223252896104
H           -5.01750539066930        0.03677004454227        1.07467704740362
H           -2.50850101076848       -3.39148450484756        2.04399558964712
H           -3.70269594669840       -5.54288645991086        2.04102356392510
H           -5.81836037938365       -5.78555805430532        0.81138404489288
H           -6.66928420039230       -5.86799195500140       -1.43207021590597
H           -8.83875488834620       -6.00294339946772       -2.64257935239699
H          -10.39044504256945       -4.04616133088672       -2.52543345962610
H           -7.86835202837530       -1.97660149916076       -0.09310782193302
H           -5.51998052667900       -1.72566420276269       -0.48162858048703
H           -1.31515797265576       -1.99007170498602        0.48698085783784
H            0.35414934683407        2.17489613614628       -0.39347176122463
H            2.78198088572247        2.21192479469595       -0.64976603403700
H            6.00868815872324        3.93314864316872       -0.80062472749427
H            7.79599504823119        5.64379336979931       -1.11714582618983
H           10.15940555217000        4.92533724178791       -1.09177247575314
H           10.74983663541929        2.60177093401236       -0.79658066312105
H           11.15489154758770        0.69233947730550       -0.75305404797673
H           11.68800022145465       -1.66393163279605       -0.57969008152221
H            9.88599059566205       -3.33813789013668       -0.28448515595854
H            7.56502255721507       -2.60921165962220       -0.11032000358463
H            4.15358232988122       -2.25602629910173       -1.58086665087678
H            3.70498926702516       -4.65487979257071       -1.19901525909686

 projected vibrational frequencies (cm⁻¹)
eigval :       -0.00    -0.00     0.00     0.00     0.00     0.00
eigval :        6.88     7.97    11.18    14.69    17.88    19.35
eigval :       29.93    32.25    34.98    41.85    46.65    51.27
eigval :       58.62    60.24    68.74    69.49    84.04    88.09
eigval :       92.51    97.22   102.86   118.73   127.17   136.70
eigval :      139.42   160.32   175.84   198.13   214.16   219.84
eigval :      225.67   235.16   240.42   245.38   250.20   260.64
eigval :      265.68   269.44   283.52   291.86   316.62   319.65
eigval :      322.55   342.73   353.26   360.99   370.00   372.01
eigval :      374.81   375.92   378.15   388.44   394.56   402.21
eigval :      406.87   418.68   432.82   437.32   440.20   461.97
eigval :      474.78   486.50   491.33   497.04   510.79   519.68
eigval :      523.31   551.54   571.61   580.24   581.72   584.43
eigval :      587.09   592.56   593.88   597.65   603.02   607.43
eigval :      608.48   616.99   630.38   637.51   640.95   654.27
eigval :      657.15   660.22   666.22   668.78   672.47   675.31
eigval :      676.58   691.20   691.87   692.85   719.15   727.28
eigval :      735.25   752.96   758.14   760.01   773.61   774.65
eigval :      779.08   791.56   793.95   800.51   805.76   810.47
eigval :      823.48   849.61   850.27   865.77   868.69   868.91
eigval :      872.32   884.10   890.55   894.63   895.07   897.01
eigval :      897.74   899.29   904.44   904.90   907.09   911.89
eigval :      913.30   913.73   914.11   914.34   917.47   922.11
eigval :      926.51   927.89   928.74   929.03   930.94   931.19
eigval :      931.24   954.85   962.31   984.90   985.80   986.94
eigval :      996.92   999.72  1002.72  1041.29  1062.81  1076.95
eigval :     1078.52  1088.63  1092.01  1094.34  1097.83  1099.11
eigval :     1102.44  1115.29  1115.96  1123.21  1132.67  1134.54
eigval :     1136.55  1140.19  1141.41  1143.67  1154.77  1175.60
eigval :     1179.60  1180.64  1185.05  1188.00  1190.60  1191.44
eigval :     1198.75  1198.99  1200.49  1216.23  1224.08  1232.58
eigval :     1246.16  1248.59  1250.07  1259.77  1261.52  1266.15
eigval :     1268.15  1271.45  1274.44  1278.31  1281.60  1283.15
eigval :     1285.90  1300.75  1307.92  1313.59  1314.70  1319.69
eigval :     1320.24  1328.18  1333.67  1335.91  1343.55  1350.46
eigval :     1373.48  1385.00  1390.36  1392.87  1397.70  1404.24
eigval :     1409.83  1420.43  1423.51  1432.47  1434.50  1438.59
eigval :     1444.00  1450.47  1454.74  1457.57  1475.86  1478.88
eigval :     1479.55  1484.72  1494.33  1507.55  1537.48  1538.16
eigval :     1545.00  1557.79  1559.37  1562.05  1564.90  1568.54
eigval :     1572.21  1573.06  1576.61  1577.12  1578.34  1579.40
eigval :     1589.87  1592.06  1593.31  3052.49  3053.77  3059.86
eigval :     3060.82  3068.30  3068.62  3072.73  3074.73  3075.56
eigval :     3078.85  3079.37  3079.90  3081.11  3081.64  3082.83
eigval :     3083.44  3084.62  3085.71  3088.91  3088.97  3089.66
eigval :     3090.24  3090.41  3090.80  3091.45  3092.53  3093.12
eigval :     3094.89  3098.49  3099.05  3101.47  3107.67  3110.59
eigval :     3114.24  3118.56  3126.26

   temp. (K)  partition function   enthalpy   heat capacity  entropy
                                   cal/mol     cal/K/mol   cal/K/mol   J/K/mol
 298.15  VIB  0.243E+24            27877.957    172.683    176.417
         ROT  0.242E+09              888.752      2.981     41.347
         INT  0.589E+32            28766.710    175.664    217.764
         TR   0.200E+29             1481.254      4.968     45.715
         TOT                       30247.9636   180.6323   263.4790  1102.3962

       T/K    H(0)-H(T)+PV         H(T)/Eh          T*S/Eh         G(T)/Eh
   ------------------------------------------------------------------------
    298.15    0.482032E-01    0.772636E+00    0.125187E+00    0.647448E+00
   ------------------------------------------------------------------------

         :::::::::::::::::::::::::::::::::::::::::::::::::::::
         ::                  THERMODYNAMIC                  ::
         :::::::::::::::::::::::::::::::::::::::::::::::::::::
         :: total free energy        -147.125069648567 Eh   ::
         ::.................................................::
         :: total energy             -147.772518135808 Eh   ::
         :: zero point energy           0.724432668981 Eh   ::
         :: G(RRHO) w/o ZPVE           -0.076984181741 Eh   ::
         :: G(RRHO) contrib.            0.647448487240 Eh   ::
         :::::::::::::::::::::::::::::::::::::::::::::::::::::

           -------------------------------------------------
          | TOTAL ENERGY             -147.772518135808 Eh   |
          | TOTAL ENTHALPY           -146.999882268506 Eh   |
          | TOTAL FREE ENERGY        -147.125069648567 Eh   |
          | GRADIENT NORM               0.000126806028 Eh/α |
           -------------------------------------------------

 * finished run on 2025/08/24 at 19:25:41.743
