   * xtb version 6.7.1 (edcfbbe) compiled by 'albert@albert-system' on 2024-07-22

   ID    Z sym.   atoms
    1    6 C      1-4, 6-22, 24-36, 38-42, 44-59
    2    7 N      5, 23, 37, 43
    3    1 H      60-95

          program call               : xtb data2507/gas/DmPy-PPI/DmPy-PPI.xyz --gfn 2 --ohess vtight --parallel 40 --molden --ceasefiles --namespace data2507/gas/DmPy-PPI/DmPy-PPI_gas_S0_preOpt
          :  Hamiltonian                  GFN2-xTB          :
 * total energy  :  -147.8320010 Eh     change       -0.2937156E-08 Eh
 * total energy  :  -147.8469974 Eh     change       -0.1499641E-01 Eh
 * total energy  :  -147.8510876 Eh     change       -0.4090217E-02 Eh
 * total energy  :  -147.8523980 Eh     change       -0.1310425E-02 Eh
 * total energy  :  -147.8532817 Eh     change       -0.8836436E-03 Eh
 * total energy  :  -147.8536818 Eh     change       -0.4001163E-03 Eh
 * total energy  :  -147.8539880 Eh     change       -0.3062482E-03 Eh
 * total energy  :  -147.8542396 Eh     change       -0.2516244E-03 Eh
 * total energy  :  -147.8544418 Eh     change       -0.2021168E-03 Eh
 * total energy  :  -147.8546170 Eh     change       -0.1752237E-03 Eh
 * total energy  :  -147.8580354 Eh     change       -0.1055178E-05 Eh
 * total energy  :  -147.8580363 Eh     change       -0.9750997E-06 Eh
 * total energy  :  -147.8580373 Eh     change       -0.9401750E-06 Eh
 * total energy  :  -147.8580382 Eh     change       -0.9386352E-06 Eh
 * total energy  :  -147.8580392 Eh     change       -0.9634465E-06 Eh
 * total energy  :  -147.8580402 Eh     change       -0.1022352E-05 Eh
 * total energy  :  -147.8580413 Eh     change       -0.1094192E-05 Eh
 * total energy  :  -147.8580425 Eh     change       -0.1179069E-05 Eh
 * total energy  :  -147.8580425 Eh     change       -0.6874501E-08 Eh
   *** GEOMETRY OPTIMIZATION CONVERGED AFTER 185 ITERATIONS ***

 final structure:
================
95
 xtb: 6.7.1 (edcfbbe)
C            3.90513673908433        1.58024472750682        3.87630227736293
C            3.51869278842879        2.12603639968919        2.66367823822517
C            3.87210588441842        1.50812011468324        1.47783434311943
C            4.61651691001072        0.33483868405981        1.50825411919674
N            4.93836454940968       -0.31580082287202        0.30190699434643
C            4.01132226543364       -0.80312432367557       -0.59403745300273
C            2.57096017026360       -0.70726859190082       -0.41367844390433
C            1.95470059372872       -0.92315374862308        0.81726721205496
C            0.58289743278987       -0.82640485567214        0.93444312106733
C           -0.20670562998739       -0.49960769875049       -0.16471154271929
C           -1.66491616902921       -0.36638183782684       -0.02854607488375
C           -2.32121043397558        0.72379021532868       -0.58838810097046
C           -3.69888510022197        0.86618809448248       -0.46673399337900
C           -4.37720281285511        2.04137269823505       -1.03565655325425
C           -5.58327557183493        1.91014128664846       -1.71936629018761
C           -6.20980822934002        3.02342032029668       -2.24874565034133
C           -5.65195951725249        4.27929122258959       -2.09595047436772
C           -4.44756600858170        4.43270502154363       -1.41271582698992
C           -3.84592760123490        5.76088117495359       -1.24258985182420
C           -4.61779246177640        6.88441941260660       -0.95134350573856
C           -3.99736238975776        8.11146939642668       -0.79733655547183
C           -2.61887539060382        8.17605432254270       -0.93596562519749
N           -1.87283083388695        7.12156641068175       -1.21822354538246
C           -2.46899720102273        5.95518490285462       -1.36851701759175
C           -3.81895733671423        3.30653718703765       -0.89253190587011
C           -4.42311293489748       -0.11101549589076        0.20687840818039
C           -3.78450670388770       -1.20910586035364        0.77346323169437
C           -4.56189407531164       -2.23786697715346        1.48231514852035
C           -4.10391055258050       -2.77803772583041        2.68149297939590
C           -4.84528645656546       -3.74047221327442        3.34206993382892
C           -6.04697285333964       -4.18048648973595        2.81862226391620
C           -6.51894679725876       -3.65892289093459        1.61613728287064
C           -7.78968876946066       -4.12438782007204        1.04687133498402
C           -7.93788893794585       -4.36127815011759       -0.31876419291233
C           -9.15745353098456       -4.80186748203940       -0.80134140754287
C          -10.19330433173071       -4.99470094950169        0.10060100050672
N          -10.07133493350750       -4.76797698878146        1.39751028485787
C           -8.90816709486577       -4.34553813252471        1.85271996485309
C           -5.76910452352813       -2.68859078475109        0.96061370746637
C           -2.40316147455560       -1.32282744927647        0.65931607618987
C            0.41146744145205       -0.30190944387204       -1.39771774182811
C            1.77951568806557       -0.41712531909520       -1.52447725285827
N            4.57536161028186       -1.37312485653482       -1.62772758535112
C            5.91569230727143       -1.27585989171006       -1.42316302245885
C            6.96191377243493       -1.78952237464156       -2.23882200251562
C            6.68413184665904       -2.50661767275430       -3.40725332373107
C            7.70647306545077       -3.02960991099826       -4.15862972113020
C            9.02413946638896       -2.84381897971090       -3.74487784831145
C            9.30878008751758       -2.13411086607690       -2.60179836965461
C            8.29235287522921       -1.57470724960065       -1.81227210656932
C            8.56097769281201       -0.78916025995795       -0.62014075976357
C            9.86975341000894       -0.47795345529005       -0.22502809895141
C           10.13396772366760        0.30369872182714        0.87448827729662
C            9.08716985728247        0.82910216109285        1.62511128355347
C            7.79044225676635        0.54217951210726        1.27702802654961
C            7.49997680846094       -0.27742614530793        0.17691789901846
C            6.17549054407974       -0.60373389649587       -0.22991135553297
C            5.00034567990796       -0.21903144566360        2.72603245765002
C            4.64649491320283        0.40982764850176        3.90526352264832
H            3.62863135403513        2.06598814052328        4.79978424657462
H            2.94146091963135        3.03786945699211        2.63876616865655
H            3.57549467620042        1.92551736985380        0.52712768066701
H            2.54424534117971       -1.18704814558533        1.68269649495594
H            0.11649639432499       -0.98761771787268        1.89561350728348
H           -1.75107663809801        1.46990296161159       -1.12232080715116
H           -6.01871676956806        0.93080555543172       -1.85263895296464
H           -7.13968531014558        2.91152943108013       -2.78715896224662
H           -6.13930520101009        5.14254516774598       -2.52482903616541
H           -5.68752850531192        6.78985393194008       -0.82797080369583
H           -4.56937435055621        8.99735906762325       -0.56761308356977
H           -2.08442552585063        9.10927753126938       -0.81680435097008
H           -1.81640256141035        5.12855692885202       -1.61939327282751
H           -2.90196349106275        3.42117736406054       -0.33286485043899
H           -5.49012465397339        0.00619411809927        0.32834468935988
H           -3.17465796540226       -2.42680737356023        3.10511333696420
H           -4.48358740502508       -4.15168377294964        4.27324078076557
H           -6.61319937361670       -4.94533643185065        3.32896628418396
H           -7.09983301609015       -4.22080524081203       -0.98710779218518
H           -9.29968954052324       -4.99842868292974       -1.85303035469619
H          -11.16398287022348       -5.34569934467454       -0.22392106174180
H           -8.86562121824920       -4.15605937949967        2.91782371532802
H           -6.13050484192905       -2.27697009724430        0.02912456467095
H           -1.90129432839200       -2.18592506823318        1.07165582683699
H           -0.19259273043059       -0.07515284443643       -2.26424124211903
H            2.26021630950856       -0.27987598062257       -2.48064941463424
H            5.64962794994200       -2.63706571732160       -3.68450711534480
H            7.49701302192043       -3.58640776222495       -5.06009135162074
H            9.83212290433390       -3.26200250115125       -4.32794005048593
H           10.34334895339520       -2.02008781598595       -2.31916082326091
H           10.70466256616669       -0.84667885214959       -0.79869984424377
H           11.15594344990685        0.52250783615781        1.14711983235668
H            9.29189481538950        1.46454834080114        2.47409648583028
H            6.98225848420799        0.97000411651704        1.84893552460867
H            5.57508635386203       -1.13386956071836        2.73667792674135
H            4.94692608069643       -0.01865460706698        4.84967791516455

          :  Hamiltonian                  GFN2-xTB          :
         :: gradient norm              0.000069397178 Eh/a0 ::
         :: HOMO-LUMO gap              2.670365949439 eV    ::
         :: SCC energy              -150.650356443972 Eh    ::
         :: -> dispersion             -0.130971729157 Eh    ::
         :: repulsion energy           2.792313960218 Eh    ::

    * Orbital Energies and Occupations

         #    Occupation            Energy/Eh            Energy/eV
      -------------------------------------------------------------
         1        2.0000           -0.6851240             -18.6432
       ...           ...                  ...                  ...
       126        2.0000           -0.4103637             -11.1666
       127        2.0000           -0.4051526             -11.0248
       128        2.0000           -0.4038536             -10.9894
       129        2.0000           -0.4001318             -10.8881
       130        2.0000           -0.3981349             -10.8338
       131        2.0000           -0.3952191             -10.7545
       132        2.0000           -0.3897799             -10.6065
       133        2.0000           -0.3890858             -10.5876
       134        2.0000           -0.3781281             -10.2894
       135        2.0000           -0.3741032             -10.1799
       136        2.0000           -0.3684380             -10.0257
       137        2.0000           -0.3674107              -9.9978
       138        2.0000           -0.3608522              -9.8193 (HOMO)
       139                         -0.2627181              -7.1489 (LUMO)
       140                         -0.2607501              -7.0954
       141                         -0.2591001              -7.0505
       142                         -0.2513637              -6.8400
       143                         -0.2496558              -6.7935
       144                         -0.2466324              -6.7112
       145                         -0.2457060              -6.6860
       146                         -0.2449422              -6.6652
       147                         -0.2415318              -6.5724
       148                         -0.2382650              -6.4835
       149                         -0.2365201              -6.4360
       ...                                ...                  ...
       272                          0.7311010              19.8943
      -------------------------------------------------------------
                  HL-Gap            0.0981341 Eh            2.6704 eV

     #   Z          covCN         q      C6AA      α(0)
     1   6 C        2.920    -0.030    28.751     8.793
     2   6 C        2.920    -0.026    28.644     8.777
     3   6 C        2.922    -0.038    28.940     8.822
     4   6 C        2.913     0.069    26.463     8.435
     5   7 N        2.841    -0.045    22.115     6.984
     6   6 C        3.196     0.128    24.724     8.106
     7   6 C        2.975     0.002    27.982     8.677
     8   6 C        2.921    -0.034    28.838     8.806
     9   6 C        2.924    -0.034    28.836     8.806
    10   6 C        2.978     0.011    27.771     8.644
    11   6 C        2.974     0.010    27.790     8.647
    12   6 C        2.931    -0.041    29.011     8.833
    13   6 C        2.975     0.009    27.814     8.651
    14   6 C        2.976     0.011    27.759     8.642
    15   6 C        2.925    -0.034    28.851     8.809
    16   6 C        2.917    -0.030    28.739     8.791
    17   6 C        2.925    -0.035    28.870     8.811
    18   6 C        2.975     0.008    27.843     8.655
    19   6 C        2.973     0.001    28.004     8.680
    20   6 C        2.934    -0.016    28.421     8.743
    21   6 C        2.912    -0.039    28.972     8.826
    22   6 C        2.914     0.057    26.713     8.475
    23   7 N        1.835    -0.220    26.634     7.648
    24   6 C        2.919     0.056    26.748     8.481
    25   6 C        2.931    -0.039    28.966     8.826
    26   6 C        2.930    -0.041    29.020     8.835
    27   6 C        2.975     0.009    27.812     8.650
    28   6 C        2.976     0.011    27.773     8.645
    29   6 C        2.925    -0.034    28.856     8.809
    30   6 C        2.917    -0.029    28.724     8.789
    31   6 C        2.925    -0.036    28.887     8.814
    32   6 C        2.975     0.008    27.844     8.656
    33   6 C        2.973     0.001    28.004     8.680
    34   6 C        2.933    -0.017    28.424     8.744
    35   6 C        2.912    -0.039    28.974     8.827
    36   6 C        2.914     0.057    26.715     8.476
    37   7 N        1.835    -0.219    26.622     7.646
    38   6 C        2.918     0.056    26.753     8.482
    39   6 C        2.931    -0.038    28.942     8.823
    40   6 C        2.930    -0.041    29.007     8.833
    41   6 C        2.923    -0.032    28.802     8.801
    42   6 C        2.926    -0.028    28.693     8.784
    43   7 N        1.894    -0.291    28.387     7.899
    44   6 C        3.210     0.057    26.117     8.319
    45   6 C        2.986     0.003    27.953     8.673
    46   6 C        2.922    -0.031    28.778     8.797
    47   6 C        2.917    -0.030    28.756     8.794
    48   6 C        2.917    -0.033    28.822     8.804
    49   6 C        2.922    -0.035    28.868     8.811
    50   6 C        2.979    -0.002    28.059     8.689
    51   6 C        2.980     0.002    27.979     8.677
    52   6 C        2.922    -0.034    28.841     8.807
    53   6 C        2.916    -0.033    28.832     8.805
    54   6 C        2.917    -0.032    28.795     8.799
    55   6 C        2.919    -0.040    28.998     8.831
    56   6 C        2.978    -0.002    28.064     8.690
    57   6 C        3.074     0.019    27.497     8.598
    58   6 C        2.921    -0.037    28.917     8.818
    59   6 C        2.920    -0.027    28.682     8.782
    60   1 H        0.926     0.039     2.461     2.453
    61   1 H        0.926     0.041     2.438     2.442
    62   1 H        0.926     0.040     2.449     2.447
    63   1 H        0.926     0.027     2.626     2.534
    64   1 H        0.926     0.032     2.554     2.499
    65   1 H        0.926     0.034     2.532     2.488
    66   1 H        0.926     0.032     2.552     2.498
    67   1 H        0.926     0.032     2.551     2.498
    68   1 H        0.926     0.032     2.561     2.502
    69   1 H        0.926     0.035     2.516     2.481
    70   1 H        0.926     0.035     2.517     2.481
    71   1 H        0.925     0.038     2.477     2.461
    72   1 H        0.925     0.038     2.481     2.463
    73   1 H        0.926     0.034     2.528     2.486
    74   1 H        0.926     0.034     2.536     2.490
    75   1 H        0.926     0.033     2.549     2.497
    76   1 H        0.926     0.033     2.545     2.495
    77   1 H        0.926     0.033     2.539     2.492
    78   1 H        0.926     0.035     2.519     2.482
    79   1 H        0.926     0.035     2.520     2.482
    80   1 H        0.925     0.038     2.477     2.461
    81   1 H        0.925     0.039     2.467     2.456
    82   1 H        0.926     0.032     2.553     2.499
    83   1 H        0.926     0.034     2.524     2.484
    84   1 H        0.926     0.037     2.483     2.464
    85   1 H        0.926     0.051     2.311     2.377
    86   1 H        0.926     0.050     2.317     2.380
    87   1 H        0.926     0.030     2.592     2.518
    88   1 H        0.926     0.027     2.623     2.533
    89   1 H        0.926     0.030     2.584     2.514
    90   1 H        0.926     0.034     2.531     2.488
    91   1 H        0.926     0.028     2.612     2.528
    92   1 H        0.926     0.026     2.637     2.539
    93   1 H        0.926     0.025     2.651     2.546
    94   1 H        0.926     0.043     2.415     2.430
    95   1 H        0.926     0.040     2.451     2.448

molecular dipole:
                 x           y           z       tot (Debye)
 q only:       -0.443       0.438       0.620
   full:       -0.376       0.672       0.783       2.790

 projected vibrational frequencies (cm⁻¹)
eigval :       -0.00    -0.00    -0.00    -0.00     0.00     0.00
eigval :        5.93     7.52    11.69    15.74    17.13    22.69
eigval :       25.86    31.15    37.39    45.48    48.74    50.86
eigval :       58.76    62.72    67.52    77.80    83.90    86.85
eigval :       93.96    94.46   108.19   117.14   120.82   125.26
eigval :      146.50   164.63   178.21   201.80   206.30   222.59
eigval :      228.32   238.56   243.38   249.63   260.36   263.77
eigval :      267.64   273.13   298.78   303.45   312.52   324.21
eigval :      335.75   343.32   351.20   365.22   369.83   371.43
eigval :      374.42   376.80   377.68   387.11   398.23   407.22
eigval :      421.14   435.49   437.14   444.79   463.11   475.29
eigval :      486.45   491.15   507.49   517.32   522.60   530.09
eigval :      535.34   567.14   576.37   584.93   588.23   588.79
eigval :      589.95   594.77   598.30   605.36   608.65   619.57
eigval :      626.55   633.34   641.07   643.12   653.39   664.21
eigval :      668.37   670.42   676.86   679.94   682.36   684.17
eigval :      691.89   692.02   700.42   706.42   728.91   735.52
eigval :      736.45   761.99   766.57   768.09   776.27   779.85
eigval :      782.77   794.71   802.60   805.85   817.30   842.42
eigval :      863.15   864.15   872.59   874.97   876.64   883.49
eigval :      887.90   891.28   896.82   898.11   900.63   901.67
eigval :      902.96   905.26   906.26   907.98   914.38   914.39
eigval :      914.75   918.67   924.06   927.36   928.06   928.55
eigval :      929.11   929.22   931.21   931.49   932.72   939.31
eigval :      950.49   962.29   986.40   990.18   992.56  1003.44
eigval :     1003.50  1015.62  1029.78  1068.96  1079.17  1079.44
eigval :     1085.93  1092.44  1096.96  1098.39  1100.97  1108.31
eigval :     1115.80  1122.26  1123.32  1133.13  1133.92  1135.09
eigval :     1139.09  1140.77  1142.24  1152.93  1174.49  1180.48
eigval :     1183.08  1186.11  1189.54  1190.26  1191.34  1198.67
eigval :     1198.79  1199.11  1209.92  1223.65  1233.35  1247.67
eigval :     1253.68  1258.10  1262.95  1264.77  1268.80  1269.93
eigval :     1271.03  1275.77  1278.43  1281.36  1284.25  1291.14
eigval :     1302.20  1304.67  1314.50  1315.99  1319.00  1320.11
eigval :     1323.62  1330.20  1339.14  1347.12  1357.59  1374.31
eigval :     1385.96  1396.58  1400.99  1407.41  1409.21  1419.55
eigval :     1422.12  1431.26  1431.88  1434.21  1438.00  1439.68
eigval :     1458.19  1462.93  1474.65  1483.45  1484.05  1486.49
eigval :     1514.78  1518.16  1547.05  1559.31  1562.25  1562.68
eigval :     1565.16  1571.30  1572.66  1573.05  1575.88  1577.42
eigval :     1580.49  1581.64  1583.30  1593.15  1593.91  1594.54
eigval :     1595.02  1599.64  1605.12  3052.62  3053.37  3060.00
eigval :     3060.05  3067.83  3069.19  3071.74  3074.22  3075.26
eigval :     3075.27  3076.14  3078.31  3079.71  3081.53  3081.60
eigval :     3082.44  3083.28  3083.81  3084.78  3084.98  3085.57
eigval :     3085.82  3086.81  3090.08  3090.37  3090.83  3091.22
eigval :     3091.77  3093.31  3095.60  3096.48  3102.11  3103.28
eigval :     3104.96  3110.30  3111.78

   temp. (K)  partition function   enthalpy   heat capacity  entropy
                                   cal/mol     cal/K/mol   cal/K/mol   J/K/mol
 298.15  VIB  0.160E+24            27549.079    170.763    174.720
         ROT  0.248E+09              888.752      2.981     41.395
         INT  0.397E+32            28437.831    173.744    216.116
         TR   0.200E+29             1481.254      4.968     45.715
         TOT                       29919.0850   178.7119   261.8306  1095.4993

       T/K    H(0)-H(T)+PV         H(T)/Eh          T*S/Eh         G(T)/Eh
   ------------------------------------------------------------------------
    298.15    0.476791E-01    0.776369E+00    0.124404E+00    0.651965E+00
   ------------------------------------------------------------------------

         :::::::::::::::::::::::::::::::::::::::::::::::::::::
         ::                  THERMODYNAMIC                  ::
         :::::::::::::::::::::::::::::::::::::::::::::::::::::
         :: total free energy        -147.206077306665 Eh   ::
         ::.................................................::
         :: total energy             -147.858042483754 Eh   ::
         :: zero point energy           0.728690254549 Eh   ::
         :: G(RRHO) w/o ZPVE           -0.076725077461 Eh   ::
         :: G(RRHO) contrib.            0.651965177089 Eh   ::
         :::::::::::::::::::::::::::::::::::::::::::::::::::::

           -------------------------------------------------
          | TOTAL ENERGY             -147.858042483754 Eh   |
          | TOTAL ENTHALPY           -147.081673132424 Eh   |
          | TOTAL FREE ENERGY        -147.206077306665 Eh   |
          | GRADIENT NORM               0.000069396958 Eh/α |
          | HOMO-LUMO GAP               2.670365839950 eV   |
           -------------------------------------------------

 * finished run on 2025/08/24 at 19:11:49.695
