   * xtb version 6.7.1 (edcfbbe) compiled by 'albert@albert-system' on 2024-07-22

   ID    Z sym.   atoms
    1    6 C      1-4, 6-22, 24-36, 38-42, 44-59
    2    7 N      5, 23, 37, 43
    3    1 H      60-95

          program call               : xtb data2507/gas/DmPy-PPI/DmPy-PPI_gas_S0_crest.xyz --gfn 2 --ohess vtight --parallel 40 --molden --ceasefiles --namespace data2507/gas/DmPy-PPI/DmPy-PPI_gas_S0_finalOpt
          :  Hamiltonian                  GFN2-xTB          :
 * total energy  :  -147.8583496 Eh     change       -0.2099142E-08 Eh
 * total energy  :  -147.8583527 Eh     change       -0.3061408E-05 Eh
 * total energy  :  -147.8583547 Eh     change       -0.2075318E-05 Eh
 * total energy  :  -147.8583599 Eh     change       -0.5175561E-05 Eh
 * total energy  :  -147.8583616 Eh     change       -0.1727550E-05 Eh
 * total energy  :  -147.8583634 Eh     change       -0.1742272E-05 Eh
 * total energy  :  -147.8583656 Eh     change       -0.2218471E-05 Eh
 * total energy  :  -147.8583677 Eh     change       -0.2137663E-05 Eh
 * total energy  :  -147.8583694 Eh     change       -0.1658053E-05 Eh
 * total energy  :  -147.8583710 Eh     change       -0.1599181E-05 Eh
 * total energy  :  -147.8583922 Eh     change       -0.3533483E-06 Eh
 * total energy  :  -147.8583926 Eh     change       -0.3963787E-06 Eh
 * total energy  :  -147.8583929 Eh     change       -0.3474883E-06 Eh
 * total energy  :  -147.8583932 Eh     change       -0.2921878E-06 Eh
 * total energy  :  -147.8583935 Eh     change       -0.2870461E-06 Eh
 * total energy  :  -147.8583938 Eh     change       -0.3243690E-06 Eh
 * total energy  :  -147.8583942 Eh     change       -0.3825873E-06 Eh
 * total energy  :  -147.8583946 Eh     change       -0.4394443E-06 Eh
 * total energy  :  -147.8583947 Eh     change       -0.2023040E-07 Eh
   *** GEOMETRY OPTIMIZATION CONVERGED AFTER 44 ITERATIONS ***

 final structure:
================
95
 xtb: 6.7.1 (edcfbbe)
C            4.28828319702757       -4.53156181631913        0.58696772778318
C            5.11778047763637       -3.90886716021205        1.50607817005944
C            5.50216117133950       -2.59440614375824        1.31725333975219
C            5.05809434362120       -1.90151080971341        0.19456618651043
N            5.41577513090942       -0.55185719897580        0.01014550932728
C            4.53182417850621        0.50624423799625        0.00076593149429
C            3.09491412581144        0.39537383767917        0.18471525915786
C            2.50328917446604       -0.53572949324916        1.03669384599758
C            1.13062287118512       -0.58398078518185        1.16960054713132
C            0.30876268311059        0.29815879161664        0.47170863354867
C           -1.15196997525992        0.23727012201851        0.62127800016821
C           -1.90095747203548        1.40557180394845        0.71431868879051
C           -3.28313029008199        1.35957103804501        0.85982225906146
C           -4.06324623837264        2.60271742212185        0.96614222842777
C           -3.59302894336645        3.67545303423323        1.72017266372903
C           -4.33337891318125        4.83944582053519        1.81567869636073
C           -5.54783130439884        4.95279855371549        1.16474087650722
C           -6.03543261020513        3.89283338118761        0.40323779466746
C           -7.32475421163533        4.00184623197934       -0.29044230436593
C           -7.51378092072511        3.49467155862554       -1.57506391766961
C           -8.75114527902750        3.62552273405364       -2.18001709587148
C           -9.76315643592416        4.26607891556923       -1.48070032245729
N           -9.60237765186850        4.74746992553835       -0.25976838381675
C           -8.42311625934755        4.61577611664244        0.31494710836454
C           -5.28431397451942        2.72594018830114        0.31258392493979
C           -3.91676097051434        0.12231490174786        0.90431737881998
C           -3.18656991916386       -1.05765911175433        0.81202797695590
C           -3.87009758536931       -2.35970088558182        0.85981530907563
C           -3.33775131929115       -3.41788284357415        1.59260200772480
C           -3.99020156499429       -4.63624640919693        1.63456983080953
C           -5.17318955717110       -4.82092787746497        0.94308412624647
C           -5.72183543028816       -3.77635580073285        0.20241110618864
C           -6.97903361718710       -3.95930142885875       -0.53297080501809
C           -7.25803350863303       -5.13377609992737       -1.22993180178539
C           -8.45913967804571       -5.25121704416258       -1.90654364295698
C           -9.34499976477724       -4.18467657699628       -1.86862079105369
N           -9.09844516098170       -3.06636400427273       -1.20781403830711
C           -7.95487922700250       -2.96095569983829       -0.56029437801458
C           -5.06291913370449       -2.55200761835565        0.17214122126832
C           -1.80478563539111       -0.99004725863453        0.67447964253117
C            0.90606137213125        1.24692158456470       -0.35716296757075
C            2.27593874195651        1.29593008019061       -0.49836314613724
N            5.13853542635507        1.65153334501661       -0.18803366837466
C            6.46034345165024        1.36273982831111       -0.30182223461590
C            7.53972403502983        2.27306361877806       -0.47582419421909
C            7.31973243670413        3.65280343691792       -0.54181957998334
C            8.37701388343915        4.51714426411583       -0.67726973960272
C            9.67243491562816        4.00800638324868       -0.74440697604137
C            9.89943785988413        2.65285044888665       -0.68606962745542
C            8.84463831197518        1.73617376872882       -0.55699453034840
C            9.04761938984819        0.29791315084834       -0.52683622971713
C           10.32143437652155       -0.26686929581704       -0.68242972687934
C           10.52014936568933       -1.62698365930865       -0.70004151958168
C            9.43726538022159       -2.49176791502021       -0.57936848385234
C            8.17367679452147       -1.97992941102479       -0.41697548754114
C            7.95285616469298       -0.59603114679378       -0.36589128686990
C            6.66579291134033       -0.01211571129740       -0.19584521040897
C            4.22633062623206       -2.52477951650870       -0.72811592257488
C            3.84403372391901       -3.83877498011663       -0.52684361212653
H            3.98840879074247       -5.55716694859972        0.74019216812933
H            5.46375685016848       -4.44663498979673        2.37603101171649
H            6.14618120884103       -2.09747286729752        2.02825871584277
H            3.11296457108863       -1.20950158315530        1.61937169437744
H            0.68923913541987       -1.29989325482847        1.84765799721375
H           -1.40082223310776        2.36182405638781        0.67608762439289
H           -2.65518511172527        3.58781799143302        2.24837240144054
H           -3.96072237721942        5.66564716054408        2.40341511063297
H           -6.11291011578758        5.87074942146579        1.22815562917911
H           -6.69376322279880        3.02256551655697       -2.09796659094086
H           -8.92527773667553        3.24483839846872       -3.17474745578793
H          -10.74607975968052        4.40217896341896       -1.91193156027801
H           -8.35000367134883        5.00665753094493        1.32193182807881
H           -5.65699761589203        1.89993520269343       -0.27598276689601
H           -4.98539930946265        0.07567668745454        1.05421239276461
H           -2.42185749420147       -3.27650344308954        2.14715995010866
H           -3.57565411074511       -5.44808118528946        2.21449164831206
H           -5.68625617143130       -5.77006869955980        0.99382377078083
H           -6.53211909408163       -5.93439942361527       -1.25512146027605
H           -8.70038389552101       -6.14748901714435       -2.45726714057565
H          -10.29363449929291       -4.22231836034731       -2.38758353588868
H           -7.81213640695280       -2.03543582878833       -0.01688304527428
H           -5.46557488727221       -1.74877405040863       -0.42771258138181
H           -1.23487895629446       -1.90137331103481        0.56695975403256
H            0.28592336130084        1.93636068319370       -0.91110234981693
H            2.74023701149757        2.02823176341005       -1.14020846288152
H            6.30189710916511        4.00453065581782       -0.47590440019766
H            8.21259607753804        5.58343709479419       -0.72694935767124
H           10.50889509495132        4.68487180824472       -0.84349950785430
H           10.91939125849081        2.30640532023934       -0.73903679958617
H           11.18037258739109        0.37334734115437       -0.80241500440543
H           11.51701840271556       -2.02454484868111       -0.82166567847183
H            9.58757432917595       -3.56061389943257       -0.61762130982078
H            7.33576065690099       -2.65491029806945       -0.34397743985312
H            3.88394674770917       -1.97443329046838       -1.59183222881245
H            3.19847675340599       -4.32265511793871       -1.24417219993158

          :  Hamiltonian                  GFN2-xTB          :
         :: gradient norm              0.000077377426 Eh/a0 ::
         :: HOMO-LUMO gap              2.623195740392 eV    ::
         :: SCC energy              -150.650003640243 Eh    ::
         :: -> dispersion             -0.131133859826 Eh    ::
         :: repulsion energy           2.791608976445 Eh    ::

    * Orbital Energies and Occupations

         #    Occupation            Energy/Eh            Energy/eV
      -------------------------------------------------------------
         1        2.0000           -0.6862914             -18.6749
       ...           ...                  ...                  ...
       126        2.0000           -0.4105389             -11.1713
       127        2.0000           -0.4059591             -11.0467
       128        2.0000           -0.4053714             -11.0307
       129        2.0000           -0.3999114             -10.8821
       130        2.0000           -0.3971139             -10.8060
       131        2.0000           -0.3951121             -10.7515
       132        2.0000           -0.3891580             -10.5895
       133        2.0000           -0.3880995             -10.5607
       134        2.0000           -0.3794748             -10.3260
       135        2.0000           -0.3752983             -10.2124
       136        2.0000           -0.3683913             -10.0244
       137        2.0000           -0.3642132              -9.9107
       138        2.0000           -0.3617608              -9.8440 (HOMO)
       139                         -0.2653601              -7.2208 (LUMO)
       140                         -0.2607290              -7.0948
       141                         -0.2574846              -7.0065
       142                         -0.2510162              -6.8305
       143                         -0.2504601              -6.8154
       144                         -0.2468065              -6.7159
       145                         -0.2461754              -6.6988
       146                         -0.2438504              -6.6355
       147                         -0.2424250              -6.5967
       148                         -0.2406201              -6.5476
       149                         -0.2365975              -6.4381
       ...                                ...                  ...
       272                          0.7298097              19.8591
      -------------------------------------------------------------
                  HL-Gap            0.0964007 Eh            2.6232 eV

     #   Z          covCN         q      C6AA      α(0)
     1   6 C        2.920    -0.030    28.751     8.793
     2   6 C        2.920    -0.027    28.678     8.782
     3   6 C        2.921    -0.037    28.910     8.817
     4   6 C        2.913     0.069    26.445     8.433
     5   7 N        2.841    -0.046    22.125     6.986
     6   6 C        3.192     0.127    24.764     8.116
     7   6 C        2.974     0.001    28.000     8.680
     8   6 C        2.920    -0.035    28.875     8.812
     9   6 C        2.924    -0.034    28.847     8.808
    10   6 C        2.977     0.010    27.777     8.645
    11   6 C        2.974     0.009    27.804     8.649
    12   6 C        2.931    -0.041    29.014     8.834
    13   6 C        2.974     0.009    27.804     8.649
    14   6 C        2.976     0.010    27.786     8.647
    15   6 C        2.925    -0.035    28.863     8.810
    16   6 C        2.917    -0.029    28.723     8.788
    17   6 C        2.925    -0.036    28.885     8.814
    18   6 C        2.975     0.008    27.840     8.655
    19   6 C        2.973     0.001    28.009     8.681
    20   6 C        2.933    -0.016    28.416     8.742
    21   6 C        2.912    -0.039    28.959     8.824
    22   6 C        2.914     0.058    26.703     8.474
    23   7 N        1.835    -0.219    26.616     7.645
    24   6 C        2.918     0.056    26.752     8.482
    25   6 C        2.931    -0.038    28.944     8.823
    26   6 C        2.930    -0.041    29.012     8.833
    27   6 C        2.974     0.008    27.825     8.653
    28   6 C        2.976     0.011    27.759     8.642
    29   6 C        2.925    -0.034    28.859     8.810
    30   6 C        2.917    -0.030    28.743     8.792
    31   6 C        2.925    -0.035    28.874     8.812
    32   6 C        2.975     0.008    27.846     8.656
    33   6 C        2.973     0.001    28.005     8.681
    34   6 C        2.934    -0.017    28.423     8.743
    35   6 C        2.912    -0.039    28.972     8.826
    36   6 C        2.914     0.057    26.711     8.475
    37   7 N        1.835    -0.219    26.624     7.646
    38   6 C        2.919     0.056    26.743     8.480
    39   6 C        2.931    -0.039    28.959     8.825
    40   6 C        2.930    -0.041    29.020     8.835
    41   6 C        2.923    -0.033    28.810     8.802
    42   6 C        2.927    -0.028    28.706     8.786
    43   7 N        1.895    -0.291    28.390     7.899
    44   6 C        3.207     0.057    26.131     8.324
    45   6 C        2.986     0.003    27.957     8.673
    46   6 C        2.922    -0.031    28.776     8.797
    47   6 C        2.917    -0.030    28.754     8.793
    48   6 C        2.917    -0.033    28.819     8.803
    49   6 C        2.922    -0.035    28.867     8.811
    50   6 C        2.979    -0.001    28.058     8.689
    51   6 C        2.980     0.002    27.977     8.676
    52   6 C        2.922    -0.034    28.840     8.807
    53   6 C        2.916    -0.033    28.831     8.805
    54   6 C        2.917    -0.032    28.795     8.800
    55   6 C        2.919    -0.040    29.002     8.831
    56   6 C        2.978    -0.002    28.069     8.690
    57   6 C        3.073     0.020    27.492     8.597
    58   6 C        2.922    -0.037    28.933     8.821
    59   6 C        2.920    -0.026    28.645     8.777
    60   1 H        0.926     0.039     2.462     2.454
    61   1 H        0.926     0.040     2.446     2.445
    62   1 H        0.926     0.043     2.410     2.428
    63   1 H        0.926     0.027     2.632     2.537
    64   1 H        0.926     0.032     2.557     2.501
    65   1 H        0.926     0.036     2.496     2.471
    66   1 H        0.926     0.034     2.529     2.487
    67   1 H        0.926     0.033     2.541     2.493
    68   1 H        0.926     0.034     2.536     2.490
    69   1 H        0.926     0.034     2.527     2.486
    70   1 H        0.926     0.035     2.512     2.478
    71   1 H        0.925     0.038     2.472     2.459
    72   1 H        0.925     0.039     2.468     2.457
    73   1 H        0.926     0.033     2.551     2.497
    74   1 H        0.926     0.034     2.532     2.489
    75   1 H        0.926     0.032     2.552     2.498
    76   1 H        0.926     0.032     2.561     2.502
    77   1 H        0.926     0.032     2.565     2.504
    78   1 H        0.926     0.035     2.521     2.483
    79   1 H        0.926     0.035     2.518     2.481
    80   1 H        0.925     0.038     2.472     2.459
    81   1 H        0.925     0.037     2.484     2.465
    82   1 H        0.926     0.033     2.539     2.492
    83   1 H        0.926     0.033     2.549     2.497
    84   1 H        0.926     0.038     2.481     2.463
    85   1 H        0.926     0.053     2.288     2.365
    86   1 H        0.926     0.050     2.317     2.380
    87   1 H        0.926     0.030     2.588     2.516
    88   1 H        0.926     0.028     2.619     2.531
    89   1 H        0.926     0.030     2.582     2.513
    90   1 H        0.926     0.034     2.527     2.486
    91   1 H        0.926     0.028     2.610     2.526
    92   1 H        0.926     0.026     2.638     2.540
    93   1 H        0.926     0.025     2.658     2.550
    94   1 H        0.926     0.040     2.452     2.449
    95   1 H        0.926     0.040     2.451     2.448

molecular dipole:
                 x           y           z       tot (Debye)
 q only:        0.343      -1.287       0.003
   full:        1.038      -2.218      -0.161       6.239

 projected vibrational frequencies (cm⁻¹)
eigval :       -0.00    -0.00    -0.00    -0.00     0.00     0.00
eigval :        6.43     8.08    10.50    15.00    16.76    22.43
eigval :       30.42    32.98    33.58    44.72    49.24    51.40
eigval :       58.48    60.91    71.14    73.06    83.24    87.93
eigval :       92.18    94.80   104.23   118.09   125.14   136.40
eigval :      140.36   164.41   172.32   212.25   217.86   224.01
eigval :      226.83   234.77   243.04   249.68   260.93   265.07
eigval :      268.64   274.24   284.53   304.28   316.45   322.50
eigval :      341.26   348.84   355.92   360.01   369.73   372.19
eigval :      375.57   377.14   378.32   390.91   398.64   406.90
eigval :      422.32   432.76   438.40   446.60   467.43   475.55
eigval :      481.37   493.74   503.86   514.84   522.07   529.75
eigval :      535.22   567.31   574.42   584.96   587.34   589.36
eigval :      591.72   595.17   599.41   604.99   609.26   615.65
eigval :      624.24   637.06   641.17   643.22   652.13   664.15
eigval :      667.98   671.26   676.76   678.55   682.12   683.05
eigval :      691.69   691.97   701.05   706.41   728.33   735.56
eigval :      736.61   761.60   765.85   767.32   776.30   779.51
eigval :      782.64   794.98   801.82   806.30   816.97   843.72
eigval :      862.59   865.47   871.61   874.87   876.07   884.32
eigval :      885.55   892.70   893.70   898.15   900.72   901.16
eigval :      902.00   905.67   906.40   907.66   914.37   914.40
eigval :      914.61   919.68   923.95   927.39   927.88   928.74
eigval :      928.93   929.14   931.14   931.56   932.61   939.30
eigval :      950.42   962.18   986.06   990.36   992.45  1003.31
eigval :     1003.53  1015.32  1029.51  1069.10  1079.02  1079.23
eigval :     1085.96  1092.15  1097.22  1097.92  1102.09  1108.57
eigval :     1115.39  1122.78  1123.40  1133.00  1134.51  1135.42
eigval :     1140.96  1141.59  1142.97  1152.90  1174.26  1180.48
eigval :     1183.06  1186.23  1189.30  1190.86  1191.67  1198.53
eigval :     1199.33  1203.12  1210.72  1224.61  1233.90  1249.31
eigval :     1253.69  1258.05  1263.20  1265.24  1269.12  1271.05
eigval :     1272.48  1275.43  1278.62  1281.21  1284.40  1290.86
eigval :     1302.86  1305.51  1313.48  1316.83  1319.94  1321.01
eigval :     1324.71  1330.70  1338.94  1347.04  1357.12  1374.15
eigval :     1385.55  1396.26  1400.41  1407.70  1409.89  1419.55
eigval :     1422.96  1430.69  1432.52  1434.22  1437.51  1438.97
eigval :     1455.96  1465.92  1473.24  1480.98  1484.19  1486.94
eigval :     1514.42  1516.34  1543.26  1558.74  1562.23  1562.63
eigval :     1564.79  1570.17  1572.33  1573.00  1575.08  1577.63
eigval :     1578.87  1581.42  1582.61  1592.74  1594.14  1594.23
eigval :     1594.93  1598.50  1604.95  3052.07  3053.25  3060.47
eigval :     3060.63  3067.66  3068.62  3072.01  3073.61  3075.41
eigval :     3075.93  3077.61  3078.80  3081.38  3081.63  3082.10
eigval :     3082.62  3083.52  3084.15  3085.00  3085.76  3085.93
eigval :     3086.49  3089.56  3090.34  3090.73  3091.41  3091.63
eigval :     3093.94  3095.16  3096.77  3096.90  3101.68  3105.05
eigval :     3105.79  3110.73  3113.52

   temp. (K)  partition function   enthalpy   heat capacity  entropy
                                   cal/mol     cal/K/mol   cal/K/mol   J/K/mol
 298.15  VIB  0.145E+24            27531.082    170.722    174.525
         ROT  0.239E+09              888.752      2.981     41.320
         INT  0.346E+32            28419.834    173.703    215.845
         TR   0.200E+29             1481.254      4.968     45.715
         TOT                       29901.0878   178.6707   261.5602  1094.3677

       T/K    H(0)-H(T)+PV         H(T)/Eh          T*S/Eh         G(T)/Eh
   ------------------------------------------------------------------------
    298.15    0.476504E-01    0.776422E+00    0.124276E+00    0.652146E+00
   ------------------------------------------------------------------------

         :::::::::::::::::::::::::::::::::::::::::::::::::::::
         ::                  THERMODYNAMIC                  ::
         :::::::::::::::::::::::::::::::::::::::::::::::::::::
         :: total free energy        -147.206248445203 Eh   ::
         ::.................................................::
         :: total energy             -147.858394663849 Eh   ::
         :: zero point energy           0.728771475031 Eh   ::
         :: G(RRHO) w/o ZPVE           -0.076625256385 Eh   ::
         :: G(RRHO) contrib.            0.652146218646 Eh   ::
         :::::::::::::::::::::::::::::::::::::::::::::::::::::

           -------------------------------------------------
          | TOTAL ENERGY             -147.858394663849 Eh   |
          | TOTAL ENTHALPY           -147.081972772365 Eh   |
          | TOTAL FREE ENERGY        -147.206248445203 Eh   |
          | GRADIENT NORM               0.000077367262 Eh/α |
          | HOMO-LUMO GAP               2.623195948559 eV   |
           -------------------------------------------------

 * finished run on 2025/08/24 at 19:18:00.644
