   * xtb version 6.7.1 (edcfbbe) compiled by 'albert@albert-system' on 2024-07-22

   ID    Z sym.   atoms
    1    7 N      1, 11, 27, 33
    2    6 C      2-10, 12-17, 19-26, 28-32, 34-39, 41-48
    3    8 O      18, 40
    4    1 H      49-74

          program call               : xtb data2507/gas/PxCYP/PxCYP_gas_S0_finalOpt.xtbopt.xyz --gfn 2 --spinpol --tblite --uhf 2 --ohess vtight --parallel 40 --molden --ceasefiles --namespace data2507/gas/PxCYP/PxCYP_gas_T1_preOpt
 * total energy  :  -122.9564175 Eh     change       -0.2762937E-07 Eh
 * total energy  :  -122.9600630 Eh     change       -0.3645516E-02 Eh
 * total energy  :  -122.9612316 Eh     change       -0.1168567E-02 Eh
 * total energy  :  -122.9612864 Eh     change       -0.5475853E-04 Eh
 * total energy  :  -122.9614272 Eh     change       -0.1408942E-03 Eh
 * total energy  :  -122.9614975 Eh     change       -0.7024621E-04 Eh
 * total energy  :  -122.9615790 Eh     change       -0.8147770E-04 Eh
 * total energy  :  -122.9616553 Eh     change       -0.7636780E-04 Eh
 * total energy  :  -122.9617059 Eh     change       -0.5057686E-04 Eh
 * total energy  :  -122.9617353 Eh     change       -0.2942235E-04 Eh
 * total energy  :  -122.9626060 Eh     change       -0.7716174E-06 Eh
 * total energy  :  -122.9626069 Eh     change       -0.9463590E-06 Eh
 * total energy  :  -122.9626074 Eh     change       -0.4806386E-06 Eh
 * total energy  :  -122.9626076 Eh     change       -0.2094257E-06 Eh
 * total energy  :  -122.9626078 Eh     change       -0.1553055E-06 Eh
 * total energy  :  -122.9626082 Eh     change       -0.3704916E-06 Eh
 * total energy  :  -122.9626081 Eh     change        0.5349600E-07 Eh
 * total energy  :  -122.9626082 Eh     change       -0.1460161E-06 Eh
 * total energy  :  -122.9626083 Eh     change       -0.7718258E-07 Eh
   *** GEOMETRY OPTIMIZATION CONVERGED AFTER 108 ITERATIONS ***

 final structure:
================
74
 xtb: 6.7.1 (edcfbbe)
N           -3.38662261072528       -5.46518245757060       -0.40148361483981
C           -2.42224248809162       -4.83472271934037       -0.28431059057970
C           -1.22556240275870       -4.14536355874070       -0.18698440949771
C            0.00264536771811       -4.86138111230904       -0.22601586832198
C            1.19355002747389       -4.21182286931243       -0.19718336757318
C            1.21482754180723       -2.77663672396073       -0.14244475677997
C            2.40040417548588       -1.98458626488764       -0.15951691154727
C            2.29559749231496       -0.57557345986762       -0.05729116655415
C            3.40016913364627        0.23028555370734       -0.07815594074036
C            4.67842859190223       -0.33063045533588       -0.19862794753178
N            5.82516257586318        0.49760072658401       -0.22028302532259
C            6.02842411386501        1.39065431799222       -1.26220763933441
C            5.15021611502497        1.48354328119806       -2.34045258411556
C            5.38054998162512        2.38840051875096       -3.36064521612312
C            6.49335767287663        3.21119392246930       -3.33247435281740
C            7.39271259373815        3.11385620142683       -2.28327459483885
C            7.17053955992865        2.20971518241249       -1.25882919685198
O            8.11148359145345        2.14323921541735       -0.26856772124431
C            7.90271374196165        1.25129560114836        0.74699966797843
C            8.85832129943619        1.19579789570063        1.74703369281635
C            8.69355326926558        0.33482027524601        2.81969724941674
C            7.56055333233564       -0.45685222965120        2.89613447224629
C            6.60192764040779       -0.40879542006566        1.90054075347199
C            6.76377610210458        0.42949179277415        0.79896864364984
C            4.80872517016186       -1.71910676583658       -0.29687832410891
C            3.70005908443833       -2.52597753635337       -0.28198079608509
N            0.04332445858837       -2.13169381082627       -0.08130712597550
C           -1.12408063801167       -2.71574445783501       -0.08161761426437
C           -2.28149117897466       -1.83697923336154        0.03905391631176
C           -3.49214903215398       -2.24947345972691        0.60347666146718
C           -4.55896833498679       -1.38101521318258        0.69220614930995
C           -4.44259928405517       -0.07685705629455        0.22034334553118
N           -5.54724846399058        0.80788523707173        0.29386736658087
C           -6.69019715019591        0.56926974520725       -0.45965846575874
C           -6.79310946789127       -0.51193720651002       -1.33088776881053
C           -7.94774582020849       -0.71700260378090       -2.06535904638449
C           -9.01619878484746        0.15487086105372       -1.95231942468278
C           -8.92263846608914        1.24942632869951       -1.10820938770446
C           -7.77087482894278        1.46211677090503       -0.37079711942865
O           -7.73485763411893        2.57552806026714        0.42508293849658
C           -6.60317260312698        2.79432568069791        1.16176593043251
C           -6.58301393344625        3.91545869998686        1.97310656969926
C           -5.47694209835107        4.18348051614869        2.76332881102348
C           -4.39827483777710        3.31729619071196        2.74890518557188
C           -4.40979860552014        2.19499964226985        1.93938294952212
C           -5.50211979102209        1.92278309918604        1.11986668877049
C           -3.23459071539320        0.35509666654441       -0.32502277021985
C           -2.17132223917352       -0.51349099187337       -0.40816031163865
H           -0.03951228590052       -5.94067388097426       -0.28285413693098
H            2.11961262744002       -4.76068908727373       -0.23992586252105
H            1.30930689828730       -0.15327436713753        0.05691443822013
H            3.30338629141010        1.30282683010822        0.01634078571713
H            4.28971521604791        0.83501449539925       -2.37580275149590
H            4.68500996916222        2.44431876737659       -4.18349232789161
H            6.67134770279452        3.91900336709081       -4.12631737107996
H            8.27868516064914        3.72677836025999       -2.24132314019959
H            9.71983524669243        1.83912104571516        1.66749734423978
H            9.44296789843719        0.29459597905783        3.59403357571540
H            7.41502849150288       -1.11614796160624        3.73761740511786
H            5.71449130707703       -1.01672342211566        1.97308718169805
H            5.79551073145034       -2.14783618640517       -0.40327999753938
H            3.83500103997313       -3.59147000897600       -0.37968959384323
H           -3.59537511469257       -3.24945790327080        0.99228675977283
H           -5.48940858418388       -1.70542532020494        1.13463165074128
H           -5.96225557650388       -1.19130653979103       -1.43386932263422
H           -8.00514570161929       -1.56457419043733       -2.73004924880294
H           -9.91741315058021       -0.00629668351398       -2.52209247375937
H           -9.73130748882027        1.95549628751133       -1.00840364091510
H           -7.44592360253742        4.56179208050986        1.97353814994469
H           -5.46754589770096        5.05979521562364        3.39169221673871
H           -3.53930091820835        3.50861092430157        3.37303448624032
H           -3.57095074960002        1.51748793546385        1.94414490556095
H           -3.14862304276999        1.36808763445184       -0.69121322086356
H           -1.23603599663550       -0.19297393396812       -0.84054995629410

 projected vibrational frequencies (cm⁻¹)
eigval :       -0.00     0.00     0.00     0.00     0.00     0.00
eigval :        7.58     8.43    12.47    20.13    26.37    29.82
eigval :       39.89    47.77    51.60    57.25    62.16    66.37
eigval :       83.92   107.64   113.89   114.66   123.18   133.91
eigval :      137.13   172.13   185.25   191.57   196.70   216.81
eigval :      243.34   245.32   254.80   259.24   270.11   277.14
eigval :      298.77   331.50   339.87   355.13   368.14   373.94
eigval :      378.15   379.80   381.19   392.16   401.58   411.24
eigval :      419.61   422.14   431.03   432.24   437.94   446.08
eigval :      453.67   461.81   469.15   484.44   502.12   503.30
eigval :      525.76   527.73   533.87   536.08   543.02   560.93
eigval :      564.83   576.27   584.39   589.85   604.07   608.63
eigval :      609.55   623.78   648.58   659.06   661.73   665.02
eigval :      666.79   668.10   669.75   675.44   689.62   708.39
eigval :      720.11   751.00   777.30   778.11   778.83   779.25
eigval :      790.64   795.27   801.80   813.18   828.70   837.58
eigval :      855.78   856.00   859.90   866.62   866.96   867.33
eigval :      868.89   881.23   897.45   899.46   899.89   901.31
eigval :      902.92   905.71   910.71   911.68   912.46   914.87
eigval :      916.72   917.58   917.91   918.67   919.47   923.90
eigval :      980.42   995.55  1027.67  1050.71  1085.27  1085.47
eigval :     1086.46  1087.34  1112.04  1112.48  1112.79  1120.10
eigval :     1122.13  1123.51  1135.86  1138.78  1170.15  1171.53
eigval :     1173.89  1174.34  1181.65  1187.26  1196.24  1201.39
eigval :     1206.74  1207.55  1216.82  1222.82  1233.13  1237.83
eigval :     1239.49  1249.30  1254.67  1256.78  1260.76  1266.59
eigval :     1296.06  1305.38  1311.72  1314.21  1314.82  1317.76
eigval :     1324.75  1331.78  1334.85  1347.21  1348.63  1355.67
eigval :     1393.86  1402.88  1417.29  1420.55  1428.03  1435.42
eigval :     1441.79  1442.40  1449.61  1456.22  1457.82  1470.88
eigval :     1480.71  1484.31  1487.68  1529.24  1532.68  1555.83
eigval :     1556.20  1560.24  1562.88  1567.80  1576.34  1579.91
eigval :     1583.67  1588.68  1594.84  2256.57  3062.18  3068.49
eigval :     3070.04  3077.43  3085.25  3094.27  3094.68  3094.89
eigval :     3095.50  3096.88  3097.38  3098.92  3103.31  3103.71
eigval :     3103.85  3104.39  3104.59  3111.66  3113.00  3113.30
eigval :     3113.49  3115.44  3115.57  3115.71  3116.04  3118.05

   temp. (K)  partition function   enthalpy   heat capacity  entropy
                                   cal/mol     cal/K/mol   cal/K/mol   J/K/mol
 298.15  VIB  0.760E+18            22174.793    139.849    138.405
         ROT  0.120E+09              888.752      2.981     39.951
         INT  0.912E+26            23063.545    142.830    178.355
         TR   0.149E+29             1481.254      4.968     45.130
         TOT                       24544.7989   147.7979   223.4851   935.0616

       T/K    H(0)-H(T)+PV         H(T)/Eh          T*S/Eh         G(T)/Eh
   ------------------------------------------------------------------------
    298.15    0.391146E-01    0.586259E+00    0.106185E+00    0.480074E+00
   ------------------------------------------------------------------------

         :::::::::::::::::::::::::::::::::::::::::::::::::::::
         ::                  THERMODYNAMIC                  ::
         :::::::::::::::::::::::::::::::::::::::::::::::::::::
         :: total free energy        -122.482534361376 Eh   ::
         ::.................................................::
         :: total energy             -122.962608329149 Eh   ::
         :: zero point energy           0.547144316856 Eh   ::
         :: G(RRHO) w/o ZPVE           -0.067070349083 Eh   ::
         :: G(RRHO) contrib.            0.480073967773 Eh   ::
         :::::::::::::::::::::::::::::::::::::::::::::::::::::

           -------------------------------------------------
          | TOTAL ENERGY             -122.962608329149 Eh   |
          | TOTAL ENTHALPY           -122.376349385431 Eh   |
          | TOTAL FREE ENERGY        -122.482534361376 Eh   |
          | GRADIENT NORM               0.000065091424 Eh/α |
           -------------------------------------------------

 * finished run on 2025/07/18 at 06:54:49.400
