   * xtb version 6.7.1 (edcfbbe) compiled by 'albert@albert-system' on 2024-07-22

   ID    Z sym.   atoms
    1    7 N      1, 11, 27, 33
    2    6 C      2-10, 12-17, 19-26, 28-32, 34-39, 41-48
    3    8 O      18, 40
    4    1 H      49-74

          program call               : xtb data2507/gas/PxCYP/PxCYP.xyz --gfn 2 --ohess vtight --parallel 40 --molden --ceasefiles --namespace data2507/gas/PxCYP/PxCYP_gas_S0_preOpt
          :  Hamiltonian                  GFN2-xTB          :
 * total energy  :  -123.0092205 Eh     change       -0.2731966E-08 Eh
 * total energy  :  -123.0216646 Eh     change       -0.1244415E-01 Eh
 * total energy  :  -123.0257983 Eh     change       -0.4133720E-02 Eh
 * total energy  :  -123.0260419 Eh     change       -0.2435869E-03 Eh
 * total energy  :  -123.0283203 Eh     change       -0.2278351E-02 Eh
 * total energy  :  -123.0291262 Eh     change       -0.8059255E-03 Eh
 * total energy  :  -123.0296163 Eh     change       -0.4900933E-03 Eh
 * total energy  :  -123.0298649 Eh     change       -0.2486089E-03 Eh
 * total energy  :  -123.0300308 Eh     change       -0.1659491E-03 Eh
 * total energy  :  -123.0302771 Eh     change       -0.2462156E-03 Eh
 * total energy  :  -123.0325404 Eh     change       -0.1472371E-05 Eh
 * total energy  :  -123.0325415 Eh     change       -0.1184111E-05 Eh
 * total energy  :  -123.0325423 Eh     change       -0.7288732E-06 Eh
 * total energy  :  -123.0325427 Eh     change       -0.4003120E-06 Eh
 * total energy  :  -123.0325430 Eh     change       -0.3128810E-06 Eh
 * total energy  :  -123.0325434 Eh     change       -0.3643204E-06 Eh
 * total energy  :  -123.0325438 Eh     change       -0.4045573E-06 Eh
 * total energy  :  -123.0325442 Eh     change       -0.4643274E-06 Eh
 * total energy  :  -123.0325442 Eh     change       -0.2658311E-08 Eh
   *** GEOMETRY OPTIMIZATION CONVERGED AFTER 68 ITERATIONS ***

 final structure:
================
74
 xtb: 6.7.1 (edcfbbe)
N           -3.51267415230057       -5.16373025808580       -1.46951066696061
C           -2.53288389065072       -4.57194176215062       -1.38341807566236
C           -1.29675724378773       -3.90680347758337       -1.26090613529321
C           -0.11465582694816       -4.62037912641292       -1.47442933656108
C            1.09997950404179       -3.99618230632144       -1.28928832958161
C            1.11875435353095       -2.65888421101662       -0.87100009272667
C            2.35284805727411       -1.90775846875400       -0.62601268083725
C            3.61757903780187       -2.40120995604478       -0.95028398230706
C            4.75099837014364       -1.65531459477591       -0.70188048562062
C            4.65246842409391       -0.39300601089791       -0.12140606128457
N            5.81098069745049        0.36636534110899        0.12874226491737
C            6.79733483922843       -0.10609462063163        0.99919300007258
C            6.65631527525809       -1.29301254820064        1.70736176225843
C            7.65269957993527       -1.73094364531745        2.56650110041581
C            8.80053453459894       -0.98530210803728        2.74201051244897
C            8.94160789225975        0.21924293737894        2.06917528197588
C            7.94999073374823        0.66152932418456        1.21335799600180
O            8.14660114267389        1.87923917004609        0.61232651684367
C            7.16450650860799        2.33536516162542       -0.23086637079827
C            7.37938838562484        3.56005707045346       -0.83532929293530
C            6.45050652280031        4.07321418659783       -1.72821722546665
C            5.31785292818848        3.34274222105772       -2.02447720717757
C            5.09638552717936        2.11502711025041       -1.41918081569112
C            6.00007987342486        1.60257238751688       -0.49679254281551
C            3.39373591307856        0.11033038044815        0.20215179562416
C            2.26488262807709       -0.63714984530302       -0.04950255034681
N           -0.01359538914723       -1.98988900145338       -0.66497210639149
C           -1.18969007673395       -2.55840973536359       -0.85949988085171
C           -2.36357248455649       -1.71593854883106       -0.60843104014150
C           -3.51063055457478       -1.79535082883612       -1.39520931080190
C           -4.59619743074578       -0.98573467237713       -1.13042845765043
C           -4.56099569332018       -0.08660676103303       -0.06735016207006
N           -5.67609621049092        0.72567660268276        0.21373310068234
C           -5.57235013538481        2.11852229085072        0.16229578253235
C           -4.40832336449372        2.76290249013486       -0.23792151725983
C           -4.33961526199480        4.14731791073828       -0.27799453090766
C           -5.43535775778052        4.91111515008934        0.06834736968867
C           -6.61632040367899        4.28308621933976        0.43525654941040
C           -6.69073300174221        2.90315272364865        0.47466201584351
O           -7.90302470194855        2.35688755791026        0.81270821545773
C           -7.99536219038471        0.98717515417897        0.83889692351988
C           -9.22334915186656        0.45127952816712        1.17957530603204
C           -9.38884373832481       -0.92315293886800        1.26312590144884
C           -8.31238603446847       -1.75238141884565        1.02250507202809
C           -7.07927783936692       -1.21993131879370        0.67809254198091
C           -6.90545386419981        0.15307420926490        0.55662170919483
C           -3.40989970708524        0.00599130957353        0.71295867776417
C           -2.32152075818217       -0.79263901812126        0.43623234017891
H           -0.16540487875863       -5.65764094423922       -1.77418991164318
H            2.01201221983010       -4.54687374185625       -1.44799770464203
H            3.72997090248379       -3.36601670895074       -1.41959063827540
H            5.72442102197339       -2.04146716667737       -0.96663024324874
H            5.75610844894357       -1.87666569382181        1.59489091425100
H            7.51763811007394       -2.65952739844632        3.09948759129962
H            9.58070942145066       -1.32363602136593        3.40529175405400
H            9.81542965572476        0.83728998687300        2.19971530948199
H            8.28542021285703        4.09398327514706       -0.59739582592861
H            6.62523514878123        5.03075713105634       -2.19262553890081
H            4.59551289497841        3.71768497869931       -2.73308753415744
H            4.21557748073801        1.54753406682685       -1.67526268910141
H            3.31370314517951        1.08631569325310        0.65769559981811
H            1.28777431546842       -0.25491737615922        0.19877764706985
H           -3.54707608686165       -2.46992390194794       -2.23700909361890
H           -5.47778570720916       -1.04007497083679       -1.75137685570599
H           -3.54940541613237        2.17930582782810       -0.52981194681212
H           -3.41983534111561        4.61972204641198       -0.58701375716770
H           -5.38573238277830        5.98824243548108        0.04439648668625
H           -7.49811370940439        4.84862849883857        0.69070620549193
H          -10.03700520730013        1.12935242917887        1.38186801942094
H          -10.35140456196225       -1.33239598723833        1.52614519883000
H           -8.41799052930561       -2.82317188887714        1.10276119910681
H           -6.24441707512444       -1.88189551673136        0.51042823956043
H           -3.38247220394799        0.70190238439033        1.53843514716449
H           -1.42933274346167       -0.73063369203617        1.03986754878002

          :  Hamiltonian                  GFN2-xTB          :
         :: gradient norm              0.000039888064 Eh/a0 ::
         :: HOMO-LUMO gap              1.223822695691 eV    ::
         :: SCC energy              -125.225864872370 Eh    ::
         :: -> dispersion             -0.102542369935 Eh    ::
         :: repulsion energy           2.193320648550 Eh    ::

    * Orbital Energies and Occupations

         #    Occupation            Energy/Eh            Energy/eV
      -------------------------------------------------------------
         1        2.0000           -0.7301628             -19.8687
       ...           ...                  ...                  ...
       101        2.0000           -0.4230190             -11.5109
       102        2.0000           -0.4184993             -11.3879
       103        2.0000           -0.4181013             -11.3771
       104        2.0000           -0.4161936             -11.3252
       105        2.0000           -0.4148436             -11.2885
       106        2.0000           -0.4135176             -11.2524
       107        2.0000           -0.4102771             -11.1642
       108        2.0000           -0.4044615             -11.0060
       109        2.0000           -0.3922987             -10.6750
       110        2.0000           -0.3877385             -10.5509
       111        2.0000           -0.3837603             -10.4427
       112        2.0000           -0.3459407              -9.4135
       113        2.0000           -0.3413940              -9.2898 (HOMO)
       114                         -0.2964193              -8.0660 (LUMO)
       115                         -0.2761193              -7.5136
       116                         -0.2435306              -6.6268
       117                         -0.2423569              -6.5949
       118                         -0.2404866              -6.5440
       119                         -0.2398492              -6.5266
       120                         -0.2359919              -6.4217
       121                         -0.2318434              -6.3088
       122                         -0.2273061              -6.1853
       123                         -0.2245366              -6.1100
       124                         -0.2164708              -5.8905
       ...                                ...                  ...
       218                          1.1644899              31.6874
      -------------------------------------------------------------
                  HL-Gap            0.0449747 Eh            1.2238 eV

     #   Z          covCN         q      C6AA      α(0)
     1   7 N        0.911    -0.241    26.299     7.417
     2   6 C        1.909     0.111    28.359     8.600
     3   6 C        2.968    -0.004    28.110     8.697
     4   6 C        2.932    -0.007    28.197     8.709
     5   6 C        2.915    -0.046    29.140     8.852
     6   6 C        2.945     0.100    25.794     8.330
     7   6 C        2.979     0.002    27.982     8.677
     8   6 C        2.922    -0.032    28.794     8.800
     9   6 C        2.920    -0.041    29.026     8.835
    10   6 C        2.921     0.069    26.460     8.436
    11   7 N        2.751    -0.069    22.576     7.057
    12   6 C        2.922     0.042    27.055     8.530
    13   6 C        2.924    -0.060    29.489     8.905
    14   6 C        2.919    -0.039    28.962     8.825
    15   6 C        2.919    -0.040    28.988     8.829
    16   6 C        2.920    -0.056    29.391     8.890
    17   6 C        2.884     0.125    25.255     8.239
    18   8 O        1.709    -0.254    18.209     5.761
    19   6 C        2.884     0.125    25.258     8.239
    20   6 C        2.920    -0.056    29.389     8.890
    21   6 C        2.919    -0.040    28.985     8.829
    22   6 C        2.919    -0.038    28.957     8.824
    23   6 C        2.924    -0.060    29.488     8.905
    24   6 C        2.922     0.042    27.056     8.530
    25   6 C        2.919    -0.040    28.997     8.831
    26   6 C        2.926    -0.027    28.665     8.780
    27   7 N        1.857    -0.239    27.091     7.715
    28   6 C        2.949     0.104    25.699     8.315
    29   6 C        2.982     0.002    27.964     8.674
    30   6 C        2.922    -0.028    28.709     8.787
    31   6 C        2.921    -0.039    28.968     8.826
    32   6 C        2.921     0.069    26.457     8.435
    33   7 N        2.751    -0.069    22.585     7.058
    34   6 C        2.922     0.042    27.055     8.530
    35   6 C        2.924    -0.060    29.501     8.907
    36   6 C        2.919    -0.039    28.969     8.826
    37   6 C        2.919    -0.040    29.002     8.831
    38   6 C        2.920    -0.056    29.402     8.892
    39   6 C        2.884     0.125    25.257     8.239
    40   8 O        1.709    -0.255    18.225     5.764
    41   6 C        2.884     0.124    25.268     8.241
    42   6 C        2.920    -0.056    29.395     8.891
    43   6 C        2.919    -0.040    28.989     8.829
    44   6 C        2.919    -0.038    28.944     8.822
    45   6 C        2.924    -0.059    29.475     8.903
    46   6 C        2.922     0.042    27.061     8.531
    47   6 C        2.920    -0.040    29.001     8.831
    48   6 C        2.925    -0.025    28.636     8.776
    49   1 H        0.926     0.041     2.429     2.437
    50   1 H        0.926     0.040     2.445     2.445
    51   1 H        0.926     0.039     2.459     2.452
    52   1 H        0.926     0.044     2.402     2.424
    53   1 H        0.926     0.034     2.527     2.486
    54   1 H        0.926     0.036     2.501     2.473
    55   1 H        0.926     0.039     2.465     2.455
    56   1 H        0.926     0.051     2.306     2.375
    57   1 H        0.926     0.051     2.306     2.375
    58   1 H        0.926     0.039     2.463     2.454
    59   1 H        0.926     0.037     2.493     2.469
    60   1 H        0.926     0.036     2.505     2.475
    61   1 H        0.926     0.046     2.374     2.410
    62   1 H        0.926     0.064     2.147     2.292
    63   1 H        0.926     0.044     2.401     2.423
    64   1 H        0.926     0.048     2.345     2.395
    65   1 H        0.926     0.035     2.515     2.480
    66   1 H        0.926     0.035     2.510     2.478
    67   1 H        0.926     0.038     2.480     2.463
    68   1 H        0.926     0.050     2.317     2.380
    69   1 H        0.926     0.050     2.317     2.380
    70   1 H        0.926     0.038     2.469     2.457
    71   1 H        0.926     0.039     2.467     2.456
    72   1 H        0.926     0.038     2.481     2.463
    73   1 H        0.926     0.046     2.375     2.410
    74   1 H        0.926     0.052     2.299     2.371

molecular dipole:
                 x           y           z       tot (Debye)
 q only:        1.021       0.256       0.039
   full:        1.425      -0.076      -0.114       3.640

 projected vibrational frequencies (cm⁻¹)
eigval :       -0.00    -0.00    -0.00     0.00     0.00     0.00
eigval :       -5.94     9.59    11.14    22.34    24.93    27.19
eigval :       38.75    47.53    49.88    57.39    59.67    67.35
eigval :       76.57   104.80   116.34   119.57   124.07   137.17
eigval :      142.06   171.77   187.71   194.66   209.99   218.60
eigval :      245.94   248.03   256.31   262.28   268.26   274.42
eigval :      294.24   323.66   346.49   357.74   372.49   373.70
eigval :      376.33   382.95   386.01   402.35   405.25   410.19
eigval :      421.06   427.33   430.94   431.80   441.25   446.50
eigval :      451.76   479.49   496.78   509.93   510.15   522.29
eigval :      522.79   526.54   541.02   547.84   550.63   568.38
eigval :      586.22   586.49   593.24   605.54   609.03   612.14
eigval :      627.69   636.33   658.16   660.37   661.70   661.78
eigval :      664.08   680.17   687.78   702.31   716.15   730.75
eigval :      741.08   779.01   779.20   779.34   779.84   799.54
eigval :      803.31   811.69   823.02   825.55   853.81   855.55
eigval :      855.73   862.63   863.86   866.12   867.18   873.25
eigval :      876.17   897.22   897.44   898.62   898.88   912.22
eigval :      913.69   913.87   915.08   915.35   915.50   917.23
eigval :      917.43   923.96   925.39   927.87   933.30   935.06
eigval :      999.73  1014.46  1056.82  1090.58  1090.71  1091.74
eigval :     1092.05  1092.85  1108.65  1108.68  1121.69  1122.22
eigval :     1129.26  1135.17  1152.05  1171.32  1171.72  1175.56
eigval :     1175.67  1183.38  1184.61  1190.88  1195.22  1202.11
eigval :     1202.20  1220.73  1225.49  1240.21  1243.35  1243.83
eigval :     1247.25  1262.12  1262.16  1264.44  1270.37  1285.64
eigval :     1300.44  1310.31  1310.87  1313.98  1314.71  1320.15
eigval :     1325.56  1338.71  1339.24  1355.56  1356.20  1386.30
eigval :     1405.34  1410.88  1421.94  1424.48  1426.49  1443.10
eigval :     1443.21  1479.93  1484.49  1487.55  1488.24  1505.13
eigval :     1506.03  1520.41  1543.25  1557.10  1558.64  1567.90
eigval :     1567.96  1580.60  1580.77  1587.46  1589.10  1591.79
eigval :     1593.34  1603.17  1603.37  2357.05  3077.16  3085.04
eigval :     3086.70  3088.12  3088.54  3089.11  3089.63  3089.80
eigval :     3091.30  3098.75  3098.79  3099.18  3099.72  3099.74
eigval :     3100.59  3102.01  3105.79  3106.15  3106.99  3108.01
eigval :     3112.74  3113.30  3113.37  3113.50  3113.92  3113.96

   temp. (K)  partition function   enthalpy   heat capacity  entropy
                                   cal/mol     cal/K/mol   cal/K/mol   J/K/mol
 298.15  VIB  0.849E+18            21942.562    138.000    137.328
         ROT  0.119E+09              888.752      2.981     39.935
         INT  0.101E+27            22831.314    140.981    177.263
         TR   0.149E+29             1481.254      4.968     45.130
         TOT                       24312.5681   145.9488   222.3924   930.4899

       T/K    H(0)-H(T)+PV         H(T)/Eh          T*S/Eh         G(T)/Eh
   ------------------------------------------------------------------------
    298.15    0.387445E-01    0.589810E+00    0.105666E+00    0.484144E+00
   ------------------------------------------------------------------------

         :::::::::::::::::::::::::::::::::::::::::::::::::::::
         ::                  THERMODYNAMIC                  ::
         :::::::::::::::::::::::::::::::::::::::::::::::::::::
         :: total free energy        -122.548400365928 Eh   ::
         ::.................................................::
         :: total energy             -123.032544223819 Eh   ::
         :: zero point energy           0.551065134653 Eh   ::
         :: G(RRHO) w/o ZPVE           -0.066921276762 Eh   ::
         :: G(RRHO) contrib.            0.484143857891 Eh   ::
         :::::::::::::::::::::::::::::::::::::::::::::::::::::

           -------------------------------------------------
          | TOTAL ENERGY             -123.032544223819 Eh   |
          | TOTAL ENTHALPY           -122.442734545750 Eh   |
          | TOTAL FREE ENERGY        -122.548400365928 Eh   |
          | GRADIENT NORM               0.000039874768 Eh/α |
          | HOMO-LUMO GAP               1.223822663332 eV   |
           -------------------------------------------------

 * finished run on 2025/07/18 at 06:49:17.921
