   * xtb version 6.7.1 (edcfbbe) compiled by 'albert@albert-system' on 2024-07-22

   ID    Z sym.   atoms
    1    7 N      1, 11, 27, 33
    2    6 C      2-10, 12-17, 19-26, 28-32, 34-39, 41-48
    3    8 O      18, 40
    4    1 H      49-74

          program call               : xtb data2507/gas/PxCYP/PxCYP_gas_T1_crest.xyz --gfn 2 --spinpol --tblite --uhf 2 --ohess vtight --parallel 40 --molden --ceasefiles --namespace data2507/gas/PxCYP/PxCYP_gas_T1_finalOpt
 * total energy  :  -122.9627399 Eh     change        0.1361792E-07 Eh
 * total energy  :  -122.9627519 Eh     change       -0.1200271E-04 Eh
 * total energy  :  -122.9627477 Eh     change        0.4189118E-05 Eh
 * total energy  :  -122.9627607 Eh     change       -0.1298153E-04 Eh
 * total energy  :  -122.9627597 Eh     change        0.9480437E-06 Eh
 * total energy  :  -122.9627616 Eh     change       -0.1862189E-05 Eh
 * total energy  :  -122.9627626 Eh     change       -0.9785330E-06 Eh
 * total energy  :  -122.9627651 Eh     change       -0.2530657E-05 Eh
 * total energy  :  -122.9627678 Eh     change       -0.2670230E-05 Eh
 * total energy  :  -122.9627704 Eh     change       -0.2567974E-05 Eh
 * total energy  :  -122.9627742 Eh     change       -0.5226589E-06 Eh
 * total energy  :  -122.9627746 Eh     change       -0.3776319E-06 Eh
 * total energy  :  -122.9627746 Eh     change       -0.6353986E-08 Eh
 * total energy  :  -122.9627750 Eh     change       -0.3655995E-06 Eh
 * total energy  :  -122.9627753 Eh     change       -0.3603687E-06 Eh
 * total energy  :  -122.9627752 Eh     change        0.7725902E-07 Eh
 * total energy  :  -122.9627755 Eh     change       -0.2899522E-06 Eh
 * total energy  :  -122.9627758 Eh     change       -0.2340431E-06 Eh
 * total energy  :  -122.9627758 Eh     change       -0.6420549E-08 Eh
   *** GEOMETRY OPTIMIZATION CONVERGED AFTER 22 ITERATIONS ***

 final structure:
================
74
 xtb: 6.7.1 (edcfbbe)
N           -3.48139418423763       -5.17977599519958        1.25943090921413
C           -2.49114579281459       -4.58508512304013        1.18121118313315
C           -1.27420085396114       -3.92812351929804        1.10513315660061
C           -0.06132350198497       -4.65255355649926        1.27696884598692
C            1.14109046650175       -4.05863292629356        1.07395653507387
C            1.19266254546729       -2.67822412440509        0.68189193023376
C            2.39314486007412       -1.93811077822677        0.48793689414735
C            2.31389088741881       -0.55465803997620        0.18769247362021
C            3.43439185522514        0.20210615751414       -0.01126627874241
C            4.70504874561538       -0.38464134037132        0.07205193754665
N            5.86838152616453        0.39162423034927       -0.13462167867907
C            6.70875358407223        0.13145974729538       -1.20770359131624
C            6.42375783098101       -0.85534901558323       -2.14983845693449
C            7.28650954936199       -1.09334027088340       -3.20404981719915
C            8.44417646545476       -0.34786951143637       -3.34689391928001
C            8.72954265218725        0.65761790890352       -2.43778634020844
C            7.87022304275895        0.90354819991818       -1.38064897597006
O            8.19484007544958        1.92991656476138       -0.53710245195553
C            7.34869904281274        2.18591455469173        0.50628509583349
C            7.68748489289090        3.22604078096890        1.35469876020460
C            6.88981618368514        3.51960608901085        2.44856927046518
C            5.76219988761129        2.75695609933206        2.69944779371380
C            5.41580029007367        1.71698853337806        1.85620285962954
C            6.18938208388925        1.42479785669718        0.73419120033029
C            4.80959727292739       -1.74902126231298        0.36219498109454
C            3.68585968728906       -2.50544568091151        0.57117189986510
N            0.03186105053656       -2.02232816667462        0.52499997571325
C           -1.14266610608629       -2.54799831013500        0.73361218646796
C           -2.29756387865244       -1.68049749825686        0.51986911868870
C           -3.48134309384573       -1.82658715233154        1.24742119129080
C           -4.55177113508382       -0.98781149707690        1.02098608267799
C           -4.46469526167860        0.01432667233815        0.05912451995201
N           -5.57452096058245        0.85961938120917       -0.18978751818490
C           -6.74852147291789        0.33925512699197       -0.72256828355241
C           -6.87881412679711       -1.00435666316222       -1.06332486450228
C           -8.06444185637609       -1.48569901114980       -1.59023214529779
C           -9.13748236709865       -0.63690249278417       -1.79589149145133
C           -9.01735595362674        0.70815690262303       -1.48647890689716
C           -7.83456456870319        1.19750535069524       -0.96019360004548
O           -7.77494641517942        2.54069549103758       -0.70089965811445
C           -6.61356937774314        3.03568614466933       -0.17412533323305
C           -6.57042168915494        4.39198458946163        0.09812255319916
C           -5.43386129208305        4.95478668756912        0.65595479307091
C           -4.34779337393022        4.15165899842555        0.95426135081068
C           -4.38235535714990        2.79485951292624        0.68355569727152
C           -5.50559404445901        2.21631708026824        0.09861375037770
C           -3.28258209574439        0.18325559921049       -0.65893919235201
C           -2.21330755441425       -0.65166969504814       -0.42490267210479
H           -0.12567942216217       -5.69001518027388        1.57564965177165
H            2.05666899098119       -4.60213193237217        1.23913306989616
H            1.33092453840108       -0.11541075005235        0.11289992055378
H            3.35593166207870        1.25291183365624       -0.25270795007948
H            5.51611448141003       -1.42902741415628       -2.05271407535122
H            7.04635679169260       -1.86500800551801       -3.91875101557355
H            9.11909515555174       -0.53607033229635       -4.16658994506207
H            9.61249994909247        1.26911050034126       -2.53194025668431
H            8.58277715892381        3.78803296916242        1.14254374680885
H            7.15836252144525        4.33244925704525        3.10434753298230
H            5.14598922944671        2.96608346610431        3.55998812293128
H            4.54510585536966        1.11696121806338        2.06626871556932
H            5.79130487163396       -2.19551901592224        0.43864418686951
H            3.80276140672313       -3.55134477214448        0.80695420746280
H           -3.55839526224771       -2.58761052050735        2.00723975602056
H           -5.46200340449235       -1.10027945024220        1.59141258577910
H           -6.04565512112858       -1.67294871055680       -0.91753481993139
H           -8.14204522444852       -2.53185696804126       -1.84114464307066
H          -10.06286656525179       -1.01214216612280       -2.20291010675054
H           -9.82894056804371        1.39907747287334       -1.64902362030731
H           -7.43985502812289        4.98705331210855       -0.13066335124469
H           -5.40659920237309        6.01268246288302        0.86324974038874
H           -3.46455096337301        4.57716586480528        1.40462326110643
H           -3.53659880457680        2.17394163605221        0.93227291189034
H           -3.21967396717867        0.96245031889326       -1.40493350711918
H           -1.29695390139502       -0.53511473497188       -0.98274228524918

 projected vibrational frequencies (cm⁻¹)
eigval :       -0.00    -0.00    -0.00     0.00     0.00     0.00
eigval :        7.78     8.96    11.51    20.75    26.49    30.32
eigval :       40.57    48.63    53.45    59.11    63.03    68.08
eigval :       84.07   106.58   115.11   115.50   122.02   133.91
eigval :      137.41   170.96   186.99   193.41   196.74   217.48
eigval :      243.38   245.29   255.00   259.58   269.75   277.08
eigval :      297.45   327.06   344.55   354.64   371.10   373.81
eigval :      377.93   378.85   382.06   391.23   401.43   410.21
eigval :      420.60   423.58   431.39   432.54   438.97   450.14
eigval :      459.46   462.39   469.45   484.53   502.19   503.50
eigval :      525.51   527.99   532.62   537.38   543.25   562.11
eigval :      567.44   575.81   584.54   590.06   604.14   608.38
eigval :      609.23   625.71   648.21   658.77   662.02   664.80
eigval :      666.95   667.87   669.86   676.11   692.15   707.25
eigval :      720.71   758.23   777.41   778.30   779.00   779.51
eigval :      790.55   795.12   801.58   815.27   828.28   837.33
eigval :      855.97   856.18   862.10   866.84   867.26   867.72
eigval :      870.17   878.11   897.64   899.55   899.84   901.61
eigval :      903.30   905.05   911.82   912.14   913.18   914.76
eigval :      916.75   917.86   918.17   919.01   920.73   926.02
eigval :      980.34   994.64  1028.82  1049.51  1085.34  1086.17
eigval :     1086.81  1087.69  1112.23  1112.62  1113.90  1120.55
eigval :     1122.49  1123.56  1135.76  1141.30  1170.41  1172.18
eigval :     1174.02  1174.54  1181.79  1187.36  1196.50  1202.49
eigval :     1206.93  1207.95  1216.72  1222.83  1233.05  1237.95
eigval :     1239.86  1248.31  1254.95  1257.46  1261.77  1266.08
eigval :     1295.40  1304.87  1311.89  1314.13  1314.92  1317.76
eigval :     1324.50  1331.57  1333.99  1346.95  1348.21  1354.04
eigval :     1393.23  1403.44  1417.48  1421.14  1427.62  1438.66
eigval :     1442.08  1443.32  1449.73  1457.36  1457.71  1471.73
eigval :     1478.78  1484.08  1488.17  1535.00  1540.97  1555.53
eigval :     1555.83  1560.71  1562.82  1568.39  1576.14  1580.01
eigval :     1584.17  1589.14  1595.46  2261.31  3063.18  3068.36
eigval :     3069.98  3078.51  3086.35  3093.48  3094.26  3094.98
eigval :     3095.20  3095.43  3097.33  3100.34  3103.44  3103.73
eigval :     3104.02  3104.22  3104.95  3111.85  3113.52  3113.78
eigval :     3113.99  3114.03  3115.29  3115.74  3115.78  3116.34

   temp. (K)  partition function   enthalpy   heat capacity  entropy
                                   cal/mol     cal/K/mol   cal/K/mol   J/K/mol
 298.15  VIB  0.620E+18            22146.410    139.892    138.189
         ROT  0.120E+09              888.752      2.981     39.950
         INT  0.744E+26            23035.163    142.873    178.140
         TR   0.149E+29             1481.254      4.968     45.130
         TOT                       24516.4166   147.8412   223.2693   934.1588

       T/K    H(0)-H(T)+PV         H(T)/Eh          T*S/Eh         G(T)/Eh
   ------------------------------------------------------------------------
    298.15    0.390694E-01    0.586400E+00    0.106082E+00    0.480318E+00
   ------------------------------------------------------------------------

         :::::::::::::::::::::::::::::::::::::::::::::::::::::
         ::                  THERMODYNAMIC                  ::
         :::::::::::::::::::::::::::::::::::::::::::::::::::::
         :: total free energy        -122.482457895963 Eh   ::
         ::.................................................::
         :: total energy             -122.962775788089 Eh   ::
         :: zero point energy           0.547330948769 Eh   ::
         :: G(RRHO) w/o ZPVE           -0.067013056642 Eh   ::
         :: G(RRHO) contrib.            0.480317892126 Eh   ::
         :::::::::::::::::::::::::::::::::::::::::::::::::::::

           -------------------------------------------------
          | TOTAL ENERGY             -122.962775788089 Eh   |
          | TOTAL ENTHALPY           -122.376375442535 Eh   |
          | TOTAL FREE ENERGY        -122.482457895963 Eh   |
          | GRADIENT NORM               0.000063395116 Eh/α |
           -------------------------------------------------

 * finished run on 2025/07/18 at 07:02:05.605
