   * xtb version 6.7.1 (edcfbbe) compiled by 'albert@albert-system' on 2024-07-22

   ID    Z sym.   atoms
    1    7 N      1, 11, 27, 33
    2    6 C      2-10, 12-17, 19-26, 28-32, 34-39, 41-48
    3    8 O      18, 40
    4    1 H      49-74

          program call               : xtb data2507/gas/PxCYP/PxCYP_gas_S0_crest.xyz --gfn 2 --ohess vtight --parallel 40 --molden --ceasefiles --namespace data2507/gas/PxCYP/PxCYP_gas_S0_finalOpt
          :  Hamiltonian                  GFN2-xTB          :
 * total energy  :  -123.0329898 Eh     change       -0.2677183E-08 Eh
 * total energy  :  -123.0329852 Eh     change        0.4612639E-05 Eh
 * total energy  :  -123.0329921 Eh     change       -0.6854918E-05 Eh
 * total energy  :  -123.0329932 Eh     change       -0.1114580E-05 Eh
 * total energy  :  -123.0329953 Eh     change       -0.2076600E-05 Eh
 * total energy  :  -123.0329989 Eh     change       -0.3584123E-05 Eh
 * total energy  :  -123.0330026 Eh     change       -0.3699362E-05 Eh
 * total energy  :  -123.0330049 Eh     change       -0.2376570E-05 Eh
 * total energy  :  -123.0330070 Eh     change       -0.2045033E-05 Eh
 * total energy  :  -123.0330086 Eh     change       -0.1653115E-05 Eh
 * total energy  :  -123.0330134 Eh     change       -0.1520903E-05 Eh
 * total energy  :  -123.0330146 Eh     change       -0.1203847E-05 Eh
 * total energy  :  -123.0330154 Eh     change       -0.8071672E-06 Eh
 * total energy  :  -123.0330160 Eh     change       -0.6573349E-06 Eh
 * total energy  :  -123.0330165 Eh     change       -0.4846824E-06 Eh
 * total energy  :  -123.0330169 Eh     change       -0.3613830E-06 Eh
 * total energy  :  -123.0330172 Eh     change       -0.3137242E-06 Eh
 * total energy  :  -123.0330176 Eh     change       -0.4317363E-06 Eh
 * total energy  :  -123.0330176 Eh     change       -0.4827584E-08 Eh
   *** GEOMETRY OPTIMIZATION CONVERGED AFTER 22 ITERATIONS ***

 final structure:
================
74
 xtb: 6.7.1 (edcfbbe)
N           -3.35921840998102       -5.40434121632522       -0.31187030638464
C           -2.40435295596673       -4.78200595603603       -0.17503706534554
C           -1.18917876080729       -4.07999847442565       -0.04661708207504
C            0.00608137905707       -4.80525366541263       -0.03960909425938
C            1.20943783650850       -4.13479866533166       -0.00816670283125
C            1.19856816557191       -2.73403524215014       -0.02116345827537
C            2.42100613666312       -1.92822308439635       -0.05214354192907
C            2.36622980817343       -0.59699342064592        0.36701588022130
C            3.49074644953541        0.19857722327828        0.34443346633658
C            4.70340849946150       -0.31726379277476       -0.10932163696139
N            5.85428333096318        0.49299505961711       -0.14485257154778
C            5.89521688599169        1.63583562614528       -0.94956673323513
C            4.83720260396700        2.00598627773256       -1.77028000149571
C            4.91392405676030        3.14364647678189       -2.55936709809052
C            6.05224288709337        3.92357754555521       -2.55139763289299
C            7.13014797521418        3.54959735337738       -1.76291572695446
C            7.05947332943999        2.41523206876595       -0.97578802041389
O            8.17967403127874        2.09261280066004       -0.25135836299345
C            8.12736841905783        0.96342748093672        0.52642934820638
C            9.25925841898645        0.65456900680433        1.25763201266811
C            9.27278501522237       -0.45165197004646        2.09413974493580
C            8.14015592988064       -1.23182235281996        2.20695737157728
C            7.00311434828420       -0.92769092543402        1.47389780845393
C            6.98445748936288        0.15645665164226        0.60535749129808
C            4.76443108094929       -1.64168918612973       -0.53680799686499
C            3.63770237522804       -2.43690988004447       -0.50690633097916
N            0.05797899560670       -2.05245758388282        0.00670799120915
C           -1.11030001439998       -2.67231897366859        0.01698980589867
C           -2.28979483642481       -1.80456211470090        0.07571243473188
C           -3.46407709874724       -2.18585396755685        0.72224751423944
C           -4.54775269967068       -1.33247611725485        0.76318937190953
C           -4.48093818431820       -0.08014293901035        0.15789448367740
N           -5.59051668039754        0.78644421895256        0.19232740771797
C           -6.79618144667454        0.42382915265705       -0.41607474862529
C           -6.94996738130745       -0.77076791924016       -1.10824138136392
C           -8.15857921924854       -1.09484528636355       -1.70571488196953
C           -9.22909852988417       -0.22719980498747       -1.63181012243715
C           -9.08242337261730        0.98336940338342       -0.97096704206678
C           -7.87906689902040        1.31209192027672       -0.37525152887038
O           -7.80231147780257        2.54208088971307        0.23033959689826
C           -6.61353870772635        2.88158057769753        0.82551351399339
C           -6.55560129177898        4.11414222648007        1.44890085498432
C           -5.39919901894395        4.51608476652522        2.10091422089579
C           -4.31154484862249        3.66784435713961        2.13953906614083
C           -4.36376083222164        2.43116453653809        1.51435736611927
C           -5.50261908528540        2.02730673096436        0.82876110273324
C           -3.30294962142100        0.31240185844091       -0.47523151834929
C           -2.21982113107316       -0.53832127347129       -0.50784858150095
H           -0.02781677957597       -5.88535907747376       -0.06421199802843
H            2.13603460865026       -4.68377641348582        0.02871258870321
H            1.42395099518877       -0.20790747596526        0.71946380162390
H            3.44373439821144        1.22308116095119        0.68292382696129
H            3.94794259586968        1.39640264951627       -1.80195221062950
H            4.07405777687030        3.40903004333848       -3.18282082264525
H            6.11552225314326        4.81165171624953       -3.16001552049827
H            8.04265758707821        4.12379971893545       -1.74875701854685
H           10.11934106607467        1.29775975616461        1.16196759979466
H           10.16143923819580       -0.68654012199302        2.65824313556278
H            8.12713294130743       -2.08330065415097        2.86984348312229
H            6.11874863543221       -1.53510714156656        1.58644625958684
H            5.70015566486897       -2.03662261544006       -0.90439301074459
H            3.70373626571486       -3.45019728376204       -0.87278716886992
H           -3.52578818148330       -3.13983673725054        1.22278008000905
H           -5.45167803472573       -1.62770426954721        1.27461496860011
H           -6.11787301351501       -1.45226201079018       -1.18951451481515
H           -8.24977250544678       -2.03239580573286       -2.23194211376508
H          -10.17247166911034       -0.47623403920876       -2.09139098197536
H           -9.89184856908135        1.69327424785436       -0.91097708070312
H           -7.43060815046837        4.74340993323085        1.41688794926985
H           -5.36249199487099        5.48079572177567        2.58176968899419
H           -3.41147964810950        3.95682690657745        2.66015530777929
H           -3.51241522076069        1.77093886065774        1.56844075963737
H           -3.25080185612802        1.28392148845242       -0.94417095660204
H           -1.30523491204316       -0.24516550549609       -0.99946810675560

          :  Hamiltonian                  GFN2-xTB          :
         :: gradient norm              0.000056923453 Eh/a0 ::
         :: HOMO-LUMO gap              1.250147525382 eV    ::
         :: SCC energy              -125.226323832323 Eh    ::
         :: -> dispersion             -0.102474455163 Eh    ::
         :: repulsion energy           2.193306204756 Eh    ::

    * Orbital Energies and Occupations

         #    Occupation            Energy/Eh            Energy/eV
      -------------------------------------------------------------
         1        2.0000           -0.7299587             -19.8632
       ...           ...                  ...                  ...
       101        2.0000           -0.4229778             -11.5098
       102        2.0000           -0.4188838             -11.3984
       103        2.0000           -0.4179543             -11.3731
       104        2.0000           -0.4160005             -11.3199
       105        2.0000           -0.4147344             -11.2855
       106        2.0000           -0.4137893             -11.2598
       107        2.0000           -0.4106028             -11.1731
       108        2.0000           -0.4047935             -11.0150
       109        2.0000           -0.3921568             -10.6711
       110        2.0000           -0.3880771             -10.5601
       111        2.0000           -0.3844334             -10.4610
       112        2.0000           -0.3457809              -9.4092
       113        2.0000           -0.3416295              -9.2962 (HOMO)
       114                         -0.2956874              -8.0461 (LUMO)
       115                         -0.2774466              -7.5497
       116                         -0.2437147              -6.6318
       117                         -0.2428247              -6.6076
       118                         -0.2403600              -6.5405
       119                         -0.2399064              -6.5282
       120                         -0.2362255              -6.4280
       121                         -0.2317044              -6.3050
       122                         -0.2275757              -6.1927
       123                         -0.2237031              -6.0873
       124                         -0.2162880              -5.8855
       ...                                ...                  ...
       218                          1.1632709              31.6542
      -------------------------------------------------------------
                  HL-Gap            0.0459421 Eh            1.2501 eV

     #   Z          covCN         q      C6AA      α(0)
     1   7 N        0.911    -0.242    26.309     7.418
     2   6 C        1.909     0.111    28.353     8.600
     3   6 C        2.968    -0.004    28.109     8.696
     4   6 C        2.934    -0.007    28.193     8.708
     5   6 C        2.914    -0.046    29.150     8.854
     6   6 C        2.947     0.100    25.784     8.328
     7   6 C        2.980     0.002    27.974     8.676
     8   6 C        2.926    -0.026    28.653     8.778
     9   6 C        2.919    -0.040    28.995     8.830
    10   6 C        2.921     0.069    26.465     8.436
    11   7 N        2.751    -0.069    22.583     7.058
    12   6 C        2.922     0.042    27.055     8.530
    13   6 C        2.924    -0.060    29.491     8.906
    14   6 C        2.919    -0.039    28.957     8.824
    15   6 C        2.919    -0.040    28.987     8.829
    16   6 C        2.920    -0.056    29.389     8.890
    17   6 C        2.884     0.125    25.258     8.239
    18   8 O        1.709    -0.254    18.211     5.762
    19   6 C        2.884     0.125    25.256     8.239
    20   6 C        2.920    -0.056    29.392     8.890
    21   6 C        2.919    -0.040    28.990     8.829
    22   6 C        2.919    -0.039    28.964     8.825
    23   6 C        2.924    -0.060    29.490     8.906
    24   6 C        2.922     0.042    27.055     8.530
    25   6 C        2.920    -0.041    29.018     8.834
    26   6 C        2.922    -0.032    28.796     8.800
    27   7 N        1.858    -0.238    27.084     7.714
    28   6 C        2.949     0.103    25.716     8.317
    29   6 C        2.982     0.002    27.969     8.675
    30   6 C        2.921    -0.029    28.727     8.789
    31   6 C        2.921    -0.039    28.969     8.826
    32   6 C        2.921     0.069    26.452     8.434
    33   7 N        2.751    -0.070    22.589     7.059
    34   6 C        2.922     0.042    27.057     8.530
    35   6 C        2.924    -0.059    29.475     8.903
    36   6 C        2.919    -0.038    28.945     8.822
    37   6 C        2.919    -0.040    28.990     8.829
    38   6 C        2.920    -0.056    29.394     8.891
    39   6 C        2.884     0.124    25.267     8.241
    40   8 O        1.709    -0.255    18.225     5.764
    41   6 C        2.884     0.125    25.257     8.239
    42   6 C        2.920    -0.056    29.401     8.892
    43   6 C        2.919    -0.040    29.002     8.831
    44   6 C        2.919    -0.039    28.968     8.826
    45   6 C        2.924    -0.060    29.500     8.907
    46   6 C        2.922     0.042    27.053     8.529
    47   6 C        2.920    -0.040    28.995     8.830
    48   6 C        2.926    -0.026    28.650     8.778
    49   1 H        0.926     0.042     2.425     2.435
    50   1 H        0.926     0.040     2.442     2.444
    51   1 H        0.926     0.062     2.180     2.309
    52   1 H        0.926     0.046     2.371     2.408
    53   1 H        0.926     0.036     2.506     2.476
    54   1 H        0.926     0.037     2.494     2.470
    55   1 H        0.926     0.039     2.464     2.455
    56   1 H        0.926     0.051     2.307     2.375
    57   1 H        0.926     0.051     2.307     2.375
    58   1 H        0.926     0.039     2.467     2.456
    59   1 H        0.926     0.036     2.504     2.475
    60   1 H        0.926     0.034     2.531     2.488
    61   1 H        0.926     0.044     2.399     2.422
    62   1 H        0.926     0.039     2.456     2.451
    63   1 H        0.926     0.045     2.384     2.415
    64   1 H        0.926     0.048     2.347     2.396
    65   1 H        0.926     0.037     2.491     2.468
    66   1 H        0.926     0.038     2.471     2.458
    67   1 H        0.926     0.038     2.469     2.457
    68   1 H        0.926     0.050     2.316     2.380
    69   1 H        0.926     0.050     2.316     2.380
    70   1 H        0.926     0.038     2.479     2.462
    71   1 H        0.926     0.035     2.511     2.478
    72   1 H        0.926     0.035     2.522     2.483
    73   1 H        0.926     0.046     2.376     2.410
    74   1 H        0.926     0.056     2.244     2.343

molecular dipole:
                 x           y           z       tot (Debye)
 q only:        0.985       0.275       0.094
   full:        1.384      -0.074       0.129       3.537

 projected vibrational frequencies (cm⁻¹)
eigval :       -0.00    -0.00     0.00     0.00     0.00     0.00
eigval :        7.91     9.15    12.17    21.76    24.95    27.34
eigval :       36.68    48.33    50.62    59.09    63.27    67.87
eigval :       80.51   108.64   116.38   119.12   123.39   137.05
eigval :      141.53   172.71   187.71   193.83   208.78   222.83
eigval :      246.00   247.99   255.56   260.78   267.86   274.02
eigval :      293.17   328.92   346.05   357.19   371.13   375.19
eigval :      378.33   383.05   388.12   400.31   404.66   412.46
eigval :      422.68   426.65   430.89   431.20   442.21   445.65
eigval :      451.96   479.27   497.66   509.99   510.14   522.31
eigval :      522.73   526.84   541.14   548.72   551.68   567.65
eigval :      586.17   587.07   592.48   606.55   607.87   612.33
eigval :      629.47   635.22   658.25   660.25   661.58   661.75
eigval :      664.13   678.17   689.98   703.21   716.29   731.21
eigval :      739.83   778.92   778.97   779.17   779.55   799.55
eigval :      803.08   813.34   823.58   832.16   854.44   855.46
eigval :      855.68   863.25   863.73   866.16   866.60   874.52
eigval :      876.83   897.16   897.28   898.48   898.57   912.58
eigval :      913.58   914.01   915.06   915.28   916.90   917.17
eigval :      917.70   924.02   925.80   928.39   932.82   935.09
eigval :      999.75  1015.01  1056.25  1090.53  1090.61  1091.76
eigval :     1091.81  1095.86  1108.57  1108.59  1121.61  1121.93
eigval :     1131.05  1135.12  1147.83  1171.54  1171.68  1175.64
eigval :     1175.68  1183.38  1184.10  1191.03  1194.38  1201.93
eigval :     1202.17  1221.05  1225.15  1236.45  1243.31  1243.41
eigval :     1247.07  1262.13  1262.16  1264.22  1266.51  1285.83
eigval :     1301.28  1310.65  1310.82  1313.79  1314.77  1320.53
eigval :     1326.59  1339.17  1339.39  1355.69  1356.35  1384.14
eigval :     1405.22  1409.44  1422.89  1424.55  1427.32  1443.24
eigval :     1443.40  1481.36  1482.90  1487.98  1488.31  1505.36
eigval :     1506.01  1519.24  1542.88  1557.61  1558.24  1567.91
eigval :     1567.96  1580.72  1580.80  1587.06  1588.98  1591.67
eigval :     1593.02  1603.32  1603.41  2356.34  3076.93  3083.84
eigval :     3087.02  3088.20  3088.44  3088.91  3089.74  3090.61
eigval :     3091.18  3095.32  3098.67  3099.02  3099.54  3099.76
eigval :     3103.32  3104.08  3105.57  3105.83  3107.12  3107.53
eigval :     3107.96  3108.36  3112.73  3113.31  3113.35  3113.92

   temp. (K)  partition function   enthalpy   heat capacity  entropy
                                   cal/mol     cal/K/mol   cal/K/mol   J/K/mol
 298.15  VIB  0.550E+18            21916.942    138.057    136.787
         ROT  0.118E+09              888.752      2.981     39.924
         INT  0.652E+26            22805.694    141.038    176.711
         TR   0.149E+29             1481.254      4.968     45.130
         TOT                       24286.9479   146.0064   221.8405   928.1805

       T/K    H(0)-H(T)+PV         H(T)/Eh          T*S/Eh         G(T)/Eh
   ------------------------------------------------------------------------
    298.15    0.387037E-01    0.589802E+00    0.105404E+00    0.484398E+00
   ------------------------------------------------------------------------

         :::::::::::::::::::::::::::::::::::::::::::::::::::::
         ::                  THERMODYNAMIC                  ::
         :::::::::::::::::::::::::::::::::::::::::::::::::::::
         :: total free energy        -122.548619211927 Eh   ::
         ::.................................................::
         :: total energy             -123.033017627566 Eh   ::
         :: zero point energy           0.551098262474 Eh   ::
         :: G(RRHO) w/o ZPVE           -0.066699846835 Eh   ::
         :: G(RRHO) contrib.            0.484398415639 Eh   ::
         :::::::::::::::::::::::::::::::::::::::::::::::::::::

           -------------------------------------------------
          | TOTAL ENERGY             -123.033017627566 Eh   |
          | TOTAL ENTHALPY           -122.443215650080 Eh   |
          | TOTAL FREE ENERGY        -122.548619211927 Eh   |
          | GRADIENT NORM               0.000056904860 Eh/α |
          | HOMO-LUMO GAP               1.250147596429 eV   |
           -------------------------------------------------

 * finished run on 2025/07/18 at 06:54:30.105
