   * xtb version 6.7.1 (edcfbbe) compiled by 'albert@albert-system' on 2024-07-22

   ID    Z sym.   atoms
    1    6 C      1-12, 14-17, 19-22, 24-39
    2    7 N      13, 23
    3   16 S      18
    4    1 H      40-61

          program call               : xtb data2507/toluene/ZDZ/ZDZ_toluene_T1_crest.xyz --gfn 2 --uhf 2 --gbsa toluene --ohess vtight --parallel 40 --molden --ceasefiles --namespace data2507/toluene/ZDZ/ZDZ_toluene_T1_finalOpt
      * Solvation model:               GBSA
        Solvent                        toluene
        Solvent mass                       9.2140E+01 g/mol
          :  Hamiltonian                  GFN2-xTB          :
 * total energy  :   -97.4339247 Eh     change       -0.8095597E-08 Eh
 * total energy  :   -97.4339507 Eh     change       -0.2596575E-04 Eh
 * total energy  :   -97.4339594 Eh     change       -0.8694426E-05 Eh
 * total energy  :   -97.4339619 Eh     change       -0.2558677E-05 Eh
 * total energy  :   -97.4339632 Eh     change       -0.1278322E-05 Eh
 * total energy  :   -97.4339643 Eh     change       -0.1047773E-05 Eh
 * total energy  :   -97.4339650 Eh     change       -0.7810054E-06 Eh
 * total energy  :   -97.4339656 Eh     change       -0.5701313E-06 Eh
 * total energy  :   -97.4339660 Eh     change       -0.3454983E-06 Eh
 * total energy  :   -97.4339662 Eh     change       -0.2787647E-06 Eh
 * total energy  :   -97.4339665 Eh     change       -0.2670309E-06 Eh
 * total energy  :   -97.4339667 Eh     change       -0.2203932E-06 Eh
 * total energy  :   -97.4339669 Eh     change       -0.1806622E-06 Eh
 * total energy  :   -97.4339670 Eh     change       -0.1407752E-06 Eh
 * total energy  :   -97.4339671 Eh     change       -0.9887493E-07 Eh
   *** GEOMETRY OPTIMIZATION CONVERGED AFTER 15 ITERATIONS ***

 final structure:
================
61
 xtb: 6.7.1 (edcfbbe)
C           -7.22661347354257        0.36880884587933        2.37152712893429
C           -6.58716711051723       -0.86736251769623        2.34231439264685
C           -5.44907119242787       -1.07266409376142        1.57920573787847
C           -4.96955527353975       -0.00769066272856        0.82984209733473
C           -5.59760071946503        1.26126212737162        0.87778356284164
C           -6.73577520090026        1.44432107670465        1.65105875881818
C           -4.81573939636926        2.13595156851142        0.04743609120275
C           -4.93609340877912        3.47137694477559       -0.31268215093937
C           -3.99968145730434        4.01062347443591       -1.17813905453089
C           -2.96932088005036        3.23209402122107       -1.69765783979808
C           -2.83103383425806        1.89677137669472       -1.35411046769596
C           -3.74570110358748        1.35871788655578       -0.45977778777755
N           -3.85122156802029        0.06720306886466        0.02146683653317
C           -2.97284384122845       -0.97928885976025       -0.26562571459255
C           -3.48997906216154       -2.23323029755040       -0.63726871724135
C           -2.61383164513821       -3.27870467333348       -0.93744021223596
C           -1.26082984765025       -3.06053935457631       -0.85671707220788
S           -0.00551523327529       -4.24064107284354       -1.18676683538576
C            1.25330579444815       -3.06478923950275       -0.85445151717122
C            2.60565536064015       -3.28769405421518       -0.93263905998009
C            3.48493437606259       -2.24509827368320       -0.63127279372226
C            2.97135105406580       -0.98916165992889       -0.26185838374863
N            3.85251523115316        0.05487150835768        0.02605869150632
C            4.96716135407897       -0.02185881869747        0.83920647531028
C            5.44055374172413       -1.08710612021729        1.59206132177093
C            6.57575742386353       -0.88371519040708        2.35992627955013
C            7.21834678919125        0.35081696765045        2.39022761959221
C            6.73375003781429        1.42652885025926        1.66585412367655
C            5.59851998522008        1.24542308748785        0.88782027969721
C            4.82265325091050        2.12093328300641        0.05267291514615
C            4.94820235788305        3.45535374644879       -0.30939866693668
C            4.01693290394884        3.99558413814621       -1.17977693033374
C            2.98649871464278        3.21901534767639       -1.70212272013685
C            2.84304159132701        1.88475897316092       -1.35670070497645
C            3.75260899449220        1.34581179384382       -0.45770412993026
C            1.60435356996380       -0.76222972756078       -0.18006493504420
C            0.70239356879838       -1.80076720912416       -0.47624334407834
C           -0.70630820468787       -1.79841704477781       -0.47720228510746
C           -1.60520041770994       -0.75715262831430       -0.18129576997639
H           -8.11315536004853        0.49056429459176        2.97623347235045
H           -6.98177671623380       -1.68270555738709        2.93007127034570
H           -4.94636642333924       -2.02735237399762        1.58046245599331
H           -7.22202345179402        2.40709632747476        1.69201933428842
H           -5.74658337425745        4.07190661505284        0.07125439479141
H           -4.07480795676271        5.04848186110206       -1.46739848612710
H           -2.26610418227635        3.67460206818951       -2.38730319912238
H           -2.04380151788652        1.29462365150861       -1.78091687942492
H           -4.55327964880405       -2.36784309885452       -0.74352299335397
H           -2.99966573339708       -4.23806713797265       -1.24670822179454
H            2.98867877887492       -4.24854127406763       -1.24078294181257
H            4.54800344453725       -2.38360798161227       -0.73487359782477
H            4.93536991808220       -2.04049326353767        1.59216348713439
H            6.96559208478844       -1.69923952753967        2.95060869908012
H            8.10245273801433        0.47110961189962        2.99878060445343
H            7.22242851400507        2.38804258431132        1.70756136830562
H            5.75872382341694        4.05438465712754        0.07681396255932
H            4.09618353497539        5.03268622084224       -1.47064571744770
H            2.28734070163159        3.66226906996421       -2.39541061533813
H            2.05581530966918        1.28396098315144       -1.78542964086531
H            1.23185141374518        0.19173163390418        0.15833909170812
H           -1.22991285825633        0.19496242277517        0.15920064830878

          :  Hamiltonian                  GFN2-xTB          :
         :: gradient norm              0.000050368557 Eh/a0 ::
         :: HOMO-LUMO gap              0.110569313910 eV    ::
         :: SCC energy               -99.222012603395 Eh    ::
         :: -> dispersion             -0.087318030048 Eh    ::
         :: -> Gsolv                  -0.040092786378 Eh    ::
         :: repulsion energy           1.788045454012 Eh    ::

    * Orbital Energies and Occupations

         #    Occupation            Energy/Eh            Energy/eV
      -------------------------------------------------------------
         1        2.0000           -0.7275122             -19.7966
       ...           ...                  ...                  ...
        80        2.0000           -0.4224432             -11.4953
        81        2.0000           -0.4221970             -11.4886
        82        2.0000           -0.4206396             -11.4462
        83        2.0000           -0.4122205             -11.2171
        84        2.0000           -0.4119007             -11.2084
        85        2.0000           -0.4113892             -11.1945
        86        2.0000           -0.3852324             -10.4827
        87        2.0000           -0.3852305             -10.4827
        88        2.0000           -0.3835394             -10.4366
        89        2.0000           -0.3791678             -10.3177
        90        1.9551           -0.3668761              -9.9832
        91        1.0449           -0.3610647              -9.8251
        92        0.8670           -0.2564188              -6.9775 (HOMO)
        93        0.0829           -0.2523545              -6.8669 (LUMO)
        94        0.0501           -0.2518431              -6.8530
        95                         -0.2338131              -6.3624
        96                         -0.2295377              -6.2460
        97                         -0.2295176              -6.2455
        98                         -0.2277214              -6.1966
        99                         -0.2039839              -5.5507
       100                         -0.2017875              -5.4909
       101                         -0.1969084              -5.3582
       102                         -0.1928784              -5.2485
       103                         -0.1928396              -5.2474
       ...                                ...                  ...
       183                          0.7370042              20.0549
      -------------------------------------------------------------
                  HL-Gap            0.0040643 Eh            0.1106 eV

     #   Z          covCN         q      C6AA      α(0)
     1   6 C        2.919    -0.034    28.857     8.809
     2   6 C        2.922    -0.035    28.876     8.812
     3   6 C        2.909    -0.044    29.100     8.845
     4   6 C        3.070     0.048    26.858     8.498
     5   6 C        3.064    -0.014    28.307     8.724
     6   6 C        2.911    -0.033    28.828     8.804
     7   6 C        3.064    -0.014    28.306     8.724
     8   6 C        2.911    -0.033    28.829     8.804
     9   6 C        2.919    -0.034    28.858     8.809
    10   6 C        2.922    -0.035    28.879     8.813
    11   6 C        2.909    -0.044    29.101     8.846
    12   6 C        3.070     0.047    26.864     8.499
    13   7 N        2.802    -0.016    21.564     6.897
    14   6 C        2.907     0.060    26.651     8.465
    15   6 C        2.920    -0.077    29.927     8.971
    16   6 C        2.932    -0.043    29.079     8.844
    17   6 C        2.994     0.023    27.488     8.600
    18  16 S        2.205    -0.060   143.550    20.165
    19   6 C        2.994     0.023    27.488     8.600
    20   6 C        2.932    -0.043    29.080     8.844
    21   6 C        2.920    -0.077    29.927     8.971
    22   6 C        2.907     0.060    26.652     8.465
    23   7 N        2.802    -0.016    21.566     6.897
    24   6 C        3.070     0.048    26.858     8.498
    25   6 C        2.909    -0.044    29.100     8.846
    26   6 C        2.922    -0.035    28.876     8.812
    27   6 C        2.919    -0.034    28.858     8.809
    28   6 C        2.911    -0.033    28.828     8.804
    29   6 C        3.064    -0.014    28.307     8.724
    30   6 C        3.064    -0.014    28.306     8.724
    31   6 C        2.911    -0.033    28.828     8.804
    32   6 C        2.919    -0.034    28.859     8.809
    33   6 C        2.922    -0.035    28.878     8.813
    34   6 C        2.909    -0.044    29.101     8.846
    35   6 C        3.071     0.047    26.864     8.498
    36   6 C        2.916    -0.061    29.524     8.910
    37   6 C        3.091    -0.021    28.429     8.739
    38   6 C        3.091    -0.021    28.428     8.739
    39   6 C        2.916    -0.061    29.524     8.910
    40   1 H        0.926     0.037     2.496     2.470
    41   1 H        0.926     0.036     2.497     2.471
    42   1 H        0.926     0.039     2.461     2.453
    43   1 H        0.926     0.038     2.475     2.460
    44   1 H        0.926     0.038     2.476     2.461
    45   1 H        0.926     0.037     2.495     2.470
    46   1 H        0.926     0.036     2.496     2.471
    47   1 H        0.926     0.038     2.478     2.462
    48   1 H        0.926     0.030     2.586     2.515
    49   1 H        0.926     0.032     2.552     2.498
    50   1 H        0.926     0.032     2.552     2.498
    51   1 H        0.926     0.030     2.587     2.515
    52   1 H        0.926     0.039     2.462     2.454
    53   1 H        0.926     0.036     2.497     2.471
    54   1 H        0.926     0.037     2.496     2.470
    55   1 H        0.926     0.038     2.475     2.460
    56   1 H        0.926     0.038     2.476     2.461
    57   1 H        0.926     0.037     2.495     2.470
    58   1 H        0.926     0.036     2.496     2.471
    59   1 H        0.926     0.038     2.478     2.462
    60   1 H        0.926     0.034     2.535     2.490
    61   1 H        0.926     0.034     2.535     2.490

molecular dipole:
                 x           y           z       tot (Debye)
 q only:       -0.000       1.011       0.288
   full:       -0.000       1.040       0.302       2.752

 projected vibrational frequencies (cm⁻¹)
eigval :       -0.00    -0.00    -0.00     0.00     0.00     0.00
eigval :       11.99    18.12    21.89    35.95    44.02    49.20
eigval :       86.97   103.54   111.48   111.64   119.76   140.64
eigval :      144.93   153.32   165.04   173.99   209.64   232.48
eigval :      263.18   264.64   269.22   274.21   277.02   305.36
eigval :      319.05   360.20   363.14   380.35   391.41   393.52
eigval :      396.32   417.12   418.07   428.36   431.69   435.34
eigval :      452.30   498.90   512.64   513.30   514.58   522.83
eigval :      528.42   532.18   532.40   546.31   549.40   576.64
eigval :      583.34   590.31   599.44   623.49   641.93   644.26
eigval :      655.20   655.77   670.35   670.78   701.96   704.99
eigval :      707.11   732.78   750.98   751.19   753.96   754.71
eigval :      765.99   767.22   774.26   774.72   789.80   796.07
eigval :      809.14   859.74   860.21   866.21   866.78   867.03
eigval :      868.67   894.17   894.38   898.32   899.48   899.82
eigval :      901.00   911.29   915.30   915.74   916.71   917.14
eigval :      966.64   986.36  1008.75  1009.02  1021.04  1025.99
eigval :     1063.50  1065.84  1066.18  1069.82  1102.88  1104.13
eigval :     1131.81  1138.59  1138.95  1145.10  1150.31  1163.08
eigval :     1174.78  1175.23  1176.87  1179.49  1203.02  1205.83
eigval :     1221.69  1223.19  1225.65  1226.31  1233.01  1255.23
eigval :     1272.87  1277.13  1279.00  1289.83  1309.99  1333.94
eigval :     1337.43  1337.53  1353.79  1354.33  1357.25  1366.11
eigval :     1376.68  1382.74  1406.27  1406.48  1409.32  1410.05
eigval :     1442.08  1443.89  1456.22  1456.73  1464.55  1474.91
eigval :     1475.99  1492.11  1503.99  1533.14  1544.55  1544.78
eigval :     1566.88  1566.99  1571.07  1571.42  1601.55  3076.55
eigval :     3076.73  3077.02  3077.18  3083.76  3083.85  3084.54
eigval :     3084.62  3085.30  3086.06  3091.36  3091.44  3092.37
eigval :     3092.59  3093.89  3096.72  3096.86  3097.29  3097.37
eigval :     3098.85  3112.61  3113.23

   temp. (K)  partition function   enthalpy   heat capacity  entropy
                                   cal/mol     cal/K/mol   cal/K/mol   J/K/mol
 298.15  VIB  0.854E+12            16839.157    112.746    101.178
         ROT  0.509E+08              888.752      2.981     38.247
         INT  0.435E+20            17727.909    115.727    139.425
         TR   0.113E+29             1481.254      4.968     44.581
         TOT                       19209.1628   120.6952   184.0065   769.8832

       T/K    H(0)-H(T)+PV         H(T)/Eh          T*S/Eh         G(T)/Eh
   ------------------------------------------------------------------------
    298.15    0.306117E-01    0.484524E+00    0.874274E-01    0.397097E+00
   ------------------------------------------------------------------------

         :::::::::::::::::::::::::::::::::::::::::::::::::::::
         ::                  THERMODYNAMIC                  ::
         :::::::::::::::::::::::::::::::::::::::::::::::::::::
         :: total free energy         -97.036870384284 Eh   ::
         ::.................................................::
         :: total energy              -97.433967148258 Eh   ::
         :: zero point energy           0.453912436710 Eh   ::
         :: G(RRHO) w/o ZPVE           -0.056815672736 Eh   ::
         :: G(RRHO) contrib.            0.397096763974 Eh   ::
         :::::::::::::::::::::::::::::::::::::::::::::::::::::

           -------------------------------------------------
          | TOTAL ENERGY              -97.433967148258 Eh   |
          | TOTAL ENTHALPY            -96.949442962137 Eh   |
          | TOTAL FREE ENERGY         -97.036870384284 Eh   |
          | GRADIENT NORM               0.000050633745 Eh/α |
          | HOMO-LUMO GAP               0.110594626071 eV   |
           -------------------------------------------------

 * finished run on 2025/07/16 at 19:34:59.335
