   * xtb version 6.7.1 (edcfbbe) compiled by 'albert@albert-system' on 2024-07-22

   ID    Z sym.   atoms
    1    6 C      1-12, 14-17, 19-22, 24-39
    2    7 N      13, 23
    3   16 S      18
    4    1 H      40-61

          program call               : xtb data2507/toluene/ZDZ/ZDZ_toluene_S0_finalOpt.xtbopt.xyz --gfn 2 --uhf 2 --gbsa toluene --ohess vtight --parallel 40 --molden --ceasefiles --namespace data2507/toluene/ZDZ/ZDZ_toluene_T1_preOpt
      * Solvation model:               GBSA
        Solvent                        toluene
        Solvent mass                       9.2140E+01 g/mol
          :  Hamiltonian                  GFN2-xTB          :
 * total energy  :   -97.4309644 Eh     change       -0.9362722E-08 Eh
 * total energy  :   -97.4331727 Eh     change       -0.2208242E-02 Eh
 * total energy  :   -97.4338630 Eh     change       -0.6903595E-03 Eh
 * total energy  :   -97.4339146 Eh     change       -0.5158548E-04 Eh
 * total energy  :   -97.4339390 Eh     change       -0.2441212E-04 Eh
 * total energy  :   -97.4339467 Eh     change       -0.7687940E-05 Eh
 * total energy  :   -97.4339522 Eh     change       -0.5455190E-05 Eh
 * total energy  :   -97.4339558 Eh     change       -0.3581305E-05 Eh
 * total energy  :   -97.4339578 Eh     change       -0.2073092E-05 Eh
 * total energy  :   -97.4339592 Eh     change       -0.1322867E-05 Eh
 * total energy  :   -97.4339601 Eh     change       -0.9562980E-06 Eh
 * total energy  :   -97.4339608 Eh     change       -0.7076646E-06 Eh
 * total energy  :   -97.4339613 Eh     change       -0.4700507E-06 Eh
 * total energy  :   -97.4339616 Eh     change       -0.3260077E-06 Eh
 * total energy  :   -97.4339619 Eh     change       -0.2391092E-06 Eh
 * total energy  :   -97.4339620 Eh     change       -0.1394061E-06 Eh
 * total energy  :   -97.4339620 Eh     change       -0.8426809E-08 Eh
   *** GEOMETRY OPTIMIZATION CONVERGED AFTER 17 ITERATIONS ***

 final structure:
================
61
 xtb: 6.7.1 (edcfbbe)
C           -7.18739109033170        0.37182913214608        2.42720707966392
C           -6.54003066228226       -0.86030988195263        2.40051038315724
C           -5.41472023307047       -1.06673740842689        1.61901132924536
C           -4.95659168136058       -0.00707566719990        0.84905981245595
C           -5.59263071421740        1.25799880249229        0.89318727820257
C           -6.71787780182787        1.44207141293878        1.68495749407597
C           -4.83157683558025        2.12792598268423        0.03869492925285
C           -4.96777929308155        3.45767134732633       -0.33643133960405
C           -4.04972940114843        3.99251445401522       -1.22407881445767
C           -3.02174375529384        3.21523476076981       -1.75023248423250
C           -2.86803617270978        1.88537303297983       -1.39242121100128
C           -3.76474560244624        1.35201310679657       -0.47735166805614
N           -3.85341168981133        0.06575209331400        0.02022305912303
C           -2.97275529771705       -0.97905567441414       -0.26680805564222
C           -3.48838424272487       -2.23874101123992       -0.62019418372759
C           -2.61068750701683       -3.28457129007353       -0.91477438918412
C           -1.25801512348136       -3.06123384374807       -0.84399374384080
S           -0.00138239672978       -4.24302370876245       -1.16284840678438
C            1.25601098306001       -3.06205835496855       -0.84394876139871
C            2.60853746797575       -3.28629081064932       -0.91466813178128
C            3.48690921808455       -2.24102299701480       -0.62009453191967
C            2.97209988208426       -0.98098706629560       -0.26673056282420
N            3.85347550528589        0.06323068938714        0.02025992420701
C            4.95676562591851       -0.01042605777163        0.84888159174481
C            5.41411322960959       -1.07036103403148        1.61892663273783
C            6.53975638166609       -0.86479368237245        2.40015339305277
C            7.18818562710259        0.36678728387740        2.42653006492306
C            6.71941933807329        1.43733856219499        1.68425356201300
C            5.59387170651512        1.25411742633629        0.89273222042713
C            4.83345836007791        2.12453945513022        0.03817635136318
C            4.97078544454731        3.45407429917761       -0.33723216079031
C            4.05297390302187        3.98960797838951       -1.22470887084171
C            3.02410946676748        3.21319828164848       -1.75040781692867
C            2.86929914577621        1.88354372212623       -1.39234792680056
C            3.76577705040300        1.34951572692937       -0.47744140229771
C            1.60498744217646       -0.75156411584205       -0.19602017082113
C            0.70377148796979       -1.79358907992722       -0.48269787155253
C           -0.70495316646778       -1.79313075702395       -0.48272376717869
C           -1.60549202038004       -0.75051950706616       -0.19608615998112
H           -8.06342543181100        0.49462322103768        3.04684450812970
H           -6.91818838302281       -1.67146616862660        3.00465457531157
H           -4.90573933728458       -2.01812090384778        1.62084085333519
H           -7.21016611092139        2.40186130071445        1.72389892113006
H           -5.77617776692688        4.05738129392540        0.05319314602607
H           -4.13742228569230        5.02603219187888       -1.52514970345820
H           -2.33263513048893        3.65454925411883       -2.45598425615979
H           -2.08287084529579        1.28347529218904       -1.82338472988682
H           -4.55210849411956       -2.37841126306570       -0.71538536907502
H           -2.99507368663856       -4.24886621638835       -1.21018545142347
H            2.99229224363175       -4.25082524875310       -1.21010724541310
H            4.55054454693237       -2.38138367096456       -0.71525925936353
H            4.90425176649860       -2.02127275699657        1.62108147863357
H            6.91728114546181       -1.67615722597097        3.00441368765830
H            8.06449623929279        0.48889183598882        3.04591370337091
H            7.21264085949076        2.39665938362264        1.72281793021229
H            5.77967693466455        4.05318980909947        0.05228231131401
H            4.14142680881562        5.02304277280001       -1.52584888140871
H            2.33525771848997        3.65299609225332       -2.45611018300198
H            2.08357461196985        1.28224841731254       -1.82314179330213
H            1.23168778988452        0.20692681265369        0.12853491411463
H           -1.23157736652838        0.20773517176293        0.12846296382734

          :  Hamiltonian                  GFN2-xTB          :
         :: gradient norm              0.000080870861 Eh/a0 ::
         :: HOMO-LUMO gap              0.110724224077 eV    ::
         :: SCC energy               -99.221998580439 Eh    ::
         :: -> dispersion             -0.087259226122 Eh    ::
         :: -> Gsolv                  -0.040098882642 Eh    ::
         :: repulsion energy           1.788036575772 Eh    ::

    * Orbital Energies and Occupations

         #    Occupation            Energy/Eh            Energy/eV
      -------------------------------------------------------------
         1        2.0000           -0.7275077             -19.7965
       ...           ...                  ...                  ...
        80        2.0000           -0.4224730             -11.4961
        81        2.0000           -0.4222129             -11.4890
        82        2.0000           -0.4206691             -11.4470
        83        2.0000           -0.4122211             -11.2171
        84        2.0000           -0.4119224             -11.2090
        85        2.0000           -0.4113964             -11.1947
        86        2.0000           -0.3852562             -10.4834
        87        2.0000           -0.3852529             -10.4833
        88        2.0000           -0.3834725             -10.4348
        89        2.0000           -0.3791586             -10.3174
        90        1.9545           -0.3669104              -9.9841
        91        1.0455           -0.3611279              -9.8268
        92        0.8670           -0.2564224              -6.9776 (HOMO)
        93        0.0825           -0.2523529              -6.8669 (LUMO)
        94        0.0505           -0.2518533              -6.8533
        95                         -0.2337747              -6.3613
        96                         -0.2295447              -6.2462
        97                         -0.2295257              -6.2457
        98                         -0.2276639              -6.1951
        99                         -0.2039735              -5.5504
       100                         -0.2018253              -5.4919
       101                         -0.1969740              -5.3599
       102                         -0.1929011              -5.2491
       103                         -0.1928637              -5.2481
       ...                                ...                  ...
       183                          0.7370005              20.0548
      -------------------------------------------------------------
                  HL-Gap            0.0040695 Eh            0.1107 eV

     #   Z          covCN         q      C6AA      α(0)
     1   6 C        2.919    -0.034    28.858     8.809
     2   6 C        2.922    -0.035    28.875     8.812
     3   6 C        2.909    -0.044    29.100     8.845
     4   6 C        3.070     0.048    26.857     8.497
     5   6 C        3.064    -0.014    28.307     8.724
     6   6 C        2.911    -0.033    28.827     8.804
     7   6 C        3.064    -0.014    28.306     8.724
     8   6 C        2.911    -0.033    28.828     8.804
     9   6 C        2.919    -0.034    28.858     8.809
    10   6 C        2.922    -0.035    28.878     8.812
    11   6 C        2.909    -0.044    29.100     8.846
    12   6 C        3.071     0.048    26.863     8.498
    13   7 N        2.802    -0.016    21.566     6.897
    14   6 C        2.907     0.060    26.652     8.465
    15   6 C        2.920    -0.077    29.926     8.971
    16   6 C        2.932    -0.043    29.080     8.844
    17   6 C        2.994     0.023    27.487     8.600
    18  16 S        2.205    -0.060   143.553    20.165
    19   6 C        2.994     0.023    27.487     8.600
    20   6 C        2.932    -0.043    29.080     8.844
    21   6 C        2.920    -0.077    29.926     8.971
    22   6 C        2.907     0.060    26.652     8.465
    23   7 N        2.802    -0.016    21.566     6.897
    24   6 C        3.070     0.048    26.857     8.497
    25   6 C        2.909    -0.044    29.100     8.845
    26   6 C        2.922    -0.035    28.875     8.812
    27   6 C        2.919    -0.034    28.858     8.809
    28   6 C        2.911    -0.033    28.827     8.804
    29   6 C        3.064    -0.014    28.307     8.724
    30   6 C        3.064    -0.014    28.306     8.724
    31   6 C        2.911    -0.033    28.828     8.804
    32   6 C        2.919    -0.034    28.858     8.809
    33   6 C        2.922    -0.035    28.878     8.812
    34   6 C        2.909    -0.044    29.100     8.846
    35   6 C        3.071     0.048    26.863     8.498
    36   6 C        2.916    -0.061    29.523     8.910
    37   6 C        3.091    -0.021    28.429     8.739
    38   6 C        3.091    -0.021    28.429     8.739
    39   6 C        2.916    -0.061    29.523     8.910
    40   1 H        0.926     0.037     2.495     2.470
    41   1 H        0.926     0.036     2.497     2.471
    42   1 H        0.926     0.039     2.462     2.454
    43   1 H        0.926     0.038     2.475     2.460
    44   1 H        0.926     0.038     2.476     2.461
    45   1 H        0.926     0.037     2.494     2.470
    46   1 H        0.926     0.037     2.496     2.470
    47   1 H        0.926     0.038     2.479     2.462
    48   1 H        0.926     0.030     2.588     2.515
    49   1 H        0.926     0.032     2.552     2.498
    50   1 H        0.926     0.032     2.552     2.498
    51   1 H        0.926     0.030     2.588     2.515
    52   1 H        0.926     0.039     2.462     2.454
    53   1 H        0.926     0.036     2.497     2.471
    54   1 H        0.926     0.037     2.495     2.470
    55   1 H        0.926     0.038     2.474     2.460
    56   1 H        0.926     0.038     2.476     2.460
    57   1 H        0.926     0.037     2.494     2.470
    58   1 H        0.926     0.037     2.496     2.470
    59   1 H        0.926     0.038     2.479     2.462
    60   1 H        0.926     0.034     2.537     2.491
    61   1 H        0.926     0.033     2.537     2.491

molecular dipole:
                 x           y           z       tot (Debye)
 q only:        0.001       1.014       0.287
   full:        0.001       1.043       0.299       2.759

 projected vibrational frequencies (cm⁻¹)
eigval :       -0.00    -0.00    -0.00    -0.00     0.00     0.00
eigval :       13.15    15.55    21.95    36.68    44.69    49.87
eigval :       87.91   103.89   111.00   112.83   120.30   140.96
eigval :      144.74   154.18   165.53   173.46   209.09   232.43
eigval :      263.25   264.47   269.34   274.34   276.96   305.63
eigval :      319.51   360.63   363.30   380.55   391.50   393.84
eigval :      397.13   417.47   418.41   428.59   431.60   435.31
eigval :      452.35   499.04   512.66   513.16   514.49   522.82
eigval :      528.75   532.65   532.77   546.03   549.50   576.53
eigval :      583.37   590.19   599.46   623.44   641.84   644.29
eigval :      655.32   655.84   670.35   670.81   701.92   705.15
eigval :      707.27   732.80   749.10   751.12   752.17   754.71
eigval :      767.47   768.38   775.69   775.78   806.84   807.81
eigval :      816.46   852.84   853.85   866.36   866.68   867.38
eigval :      869.37   894.23   894.44   899.91   900.49   900.54
eigval :      901.20   911.47   916.73   917.06   918.15   918.40
eigval :      966.84   986.52  1008.74  1009.00  1021.00  1026.01
eigval :     1063.57  1066.30  1066.40  1069.72  1103.22  1104.28
eigval :     1131.77  1139.22  1139.33  1144.97  1150.23  1163.40
eigval :     1175.60  1175.98  1177.51  1180.00  1202.86  1206.05
eigval :     1221.74  1223.10  1226.05  1226.69  1232.95  1255.52
eigval :     1273.10  1277.64  1279.20  1289.99  1310.08  1334.14
eigval :     1337.37  1337.47  1353.79  1354.41  1357.28  1366.30
eigval :     1376.83  1382.52  1406.47  1406.49  1409.56  1410.10
eigval :     1442.23  1444.09  1456.36  1456.84  1464.46  1475.01
eigval :     1476.04  1492.15  1503.91  1533.26  1544.67  1544.82
eigval :     1566.84  1566.90  1571.16  1571.50  1601.50  3076.55
eigval :     3076.71  3077.08  3077.22  3083.73  3083.75  3084.59
eigval :     3084.68  3085.35  3086.12  3091.27  3091.36  3092.38
eigval :     3092.60  3093.54  3096.58  3096.65  3097.26  3097.42
eigval :     3098.82  3112.34  3112.97

   temp. (K)  partition function   enthalpy   heat capacity  entropy
                                   cal/mol     cal/K/mol   cal/K/mol   J/K/mol
 298.15  VIB  0.837E+12            16825.473    112.713    101.121
         ROT  0.511E+08              888.752      2.981     38.252
         INT  0.428E+20            17714.225    115.694    139.373
         TR   0.113E+29             1481.254      4.968     44.581
         TOT                       19195.4794   120.6624   183.9541   769.6639

       T/K    H(0)-H(T)+PV         H(T)/Eh          T*S/Eh         G(T)/Eh
   ------------------------------------------------------------------------
    298.15    0.305899E-01    0.484619E+00    0.874025E-01    0.397216E+00
   ------------------------------------------------------------------------

         :::::::::::::::::::::::::::::::::::::::::::::::::::::
         ::                  THERMODYNAMIC                  ::
         :::::::::::::::::::::::::::::::::::::::::::::::::::::
         :: total free energy         -97.036745967725 Eh   ::
         ::.................................................::
         :: total energy              -97.433962003387 Eh   ::
         :: zero point energy           0.454028611057 Eh   ::
         :: G(RRHO) w/o ZPVE           -0.056812575396 Eh   ::
         :: G(RRHO) contrib.            0.397216035662 Eh   ::
         :::::::::::::::::::::::::::::::::::::::::::::::::::::

           -------------------------------------------------
          | TOTAL ENERGY              -97.433962003387 Eh   |
          | TOTAL ENTHALPY            -96.949343448747 Eh   |
          | TOTAL FREE ENERGY         -97.036745967725 Eh   |
          | GRADIENT NORM               0.000081776027 Eh/α |
          | HOMO-LUMO GAP               0.110736813046 eV   |
           -------------------------------------------------

 * finished run on 2025/07/16 at 19:31:12.924
