   * xtb version 6.7.1 (edcfbbe) compiled by 'albert@albert-system' on 2024-07-22

   ID    Z sym.   atoms
    1    6 C      1-12, 14-17, 19-22, 24-39
    2    7 N      13, 23
    3   16 S      18
    4    1 H      40-61

          program call               : xtb data2507/toluene/ZDZ/ZDZ.xyz --gfn 2 --gbsa toluene --ohess vtight --parallel 40 --molden --ceasefiles --namespace data2507/toluene/ZDZ/ZDZ_toluene_S0_preOpt
      * Solvation model:               GBSA
        Solvent                        toluene
        Solvent mass                       9.2140E+01 g/mol
          :  Hamiltonian                  GFN2-xTB          :
 * total energy  :   -97.5155844 Eh     change       -0.1927859E-08 Eh
 * total energy  :   -97.5299973 Eh     change       -0.1441291E-01 Eh
 * total energy  :   -97.5331116 Eh     change       -0.3114283E-02 Eh
 * total energy  :   -97.5336686 Eh     change       -0.5570719E-03 Eh
 * total energy  :   -97.5340996 Eh     change       -0.4309742E-03 Eh
 * total energy  :   -97.5342720 Eh     change       -0.1723822E-03 Eh
 * total energy  :   -97.5343870 Eh     change       -0.1150293E-03 Eh
 * total energy  :   -97.5344399 Eh     change       -0.5286848E-04 Eh
 * total energy  :   -97.5344835 Eh     change       -0.4360441E-04 Eh
 * total energy  :   -97.5345073 Eh     change       -0.2376217E-04 Eh
 * total energy  :   -97.5347166 Eh     change       -0.1049378E-05 Eh
 * total energy  :   -97.5347176 Eh     change       -0.1024318E-05 Eh
 * total energy  :   -97.5347186 Eh     change       -0.9541748E-06 Eh
 * total energy  :   -97.5347194 Eh     change       -0.8300779E-06 Eh
 * total energy  :   -97.5347201 Eh     change       -0.6983255E-06 Eh
 * total energy  :   -97.5347207 Eh     change       -0.5898586E-06 Eh
 * total energy  :   -97.5347212 Eh     change       -0.5204030E-06 Eh
 * total energy  :   -97.5347217 Eh     change       -0.5048939E-06 Eh
 * total energy  :   -97.5347217 Eh     change       -0.5421427E-08 Eh
   *** GEOMETRY OPTIMIZATION CONVERGED AFTER 44 ITERATIONS ***

 final structure:
================
61
 xtb: 6.7.1 (edcfbbe)
C           -7.17700639713188       -0.29466779948843        2.33444994368998
C           -6.52425810832786       -1.50894311364611        2.13081151924744
C           -5.39941877804452       -1.59897366698663        1.33290835270533
C           -4.93862147217083       -0.43794153676735        0.72780919019432
C           -5.58054595192091        0.80286258409069        0.94777215925486
C           -6.70992211561366        0.86790250975322        1.75401237170433
C           -4.82593602425826        1.78747500996626        0.22337204757899
C           -4.96704905727004        3.15784885427232        0.04387454298928
C           -4.05342312111713        3.81919134011686       -0.75265731385655
C           -3.01703353585191        3.12871543849867       -1.37792370293092
C           -2.85668660120856        1.76576272588400       -1.21526993294763
C           -3.75773203587244        1.09892726251460       -0.39666095913933
N           -3.83850088642372       -0.24508324453841       -0.08503509409983
C           -2.95852444715353       -1.23973547246231       -0.53569982053935
C           -3.46432799422150       -2.40162751356326       -1.13089477237668
C           -2.61416312195577       -3.38550266640206       -1.59194242689043
C           -1.24616069803615       -3.19450821639044       -1.47352413724973
S           -0.00000436629006       -4.29744163608961       -2.01738437294771
C            1.24615456109400       -3.19451664685844       -1.47351321349159
C            2.61415682627462       -3.38551785798893       -1.59192282274656
C            3.46432367796733       -2.40164421574358       -1.13087543087576
C            2.95852234281905       -1.23974806385818       -0.53568641507605
N            3.83849962613963       -0.24509510976000       -0.08502543543655
C            4.93862230159572       -0.43794960656435        0.72781707028237
C            5.39942110314041       -1.59897906753277        1.33292040515773
C            6.52426271411105       -1.50894508458066        2.13081990436425
C            7.17700708100628       -0.29466760128369        2.33445786775242
C            6.70991787922844        0.86790119723643        1.75402121435237
C            5.58054408387430        0.80285626192013        0.94777802810381
C            4.82594204463908        1.78746277698872        0.22336177313113
C            4.96706099038123        3.15783421617483        0.04384958433821
C            4.05342983988423        3.81917422492113       -0.75267848091684
C            3.01703255662105        3.12869720328244       -1.37793100466294
C            2.85668427261882        1.76574576418768       -1.21526849514587
C            3.75773114022618        1.09891394829211       -0.39665803152241
C            1.58935442597774       -1.05985658580334       -0.40392568162874
C            0.72014536714592       -2.03193469401470       -0.88444198610203
C           -0.72014927891098       -2.03192929554360       -0.88444856398556
C           -1.58935646421052       -1.05984853106869       -0.40393427449652
H           -8.05498509666570       -0.26589487137060        2.96314804331909
H           -6.90409439723810       -2.39961880601617        2.60997205241112
H           -4.89196379879304       -2.54201588585008        1.19599449633732
H           -7.20675979940213        1.81149839526687        1.92400875293601
H           -5.77913741192751        3.69041021690603        0.51606545182316
H           -4.14384634794993        4.88512797957549       -0.90268950905875
H           -2.32575122689370        3.67020419433616       -2.00734378576176
H           -2.06110467809072        1.23889297004870       -1.72041232310372
H           -4.53179889223812       -2.51551556595815       -1.24107726627632
H           -3.00322365209898       -4.28119378988440       -2.05051630162892
H            3.00321580033342       -4.28121081415559       -2.05049447446907
H            4.53179450414870       -2.51553684235839       -1.24105346955294
H            4.89196231868101       -2.54202067399421        1.19601669513801
H            6.90409567056916       -2.39961706572672        2.60998986296005
H            8.05499168744870       -0.26589296601353        2.96314746404402
H            7.20676719026905        1.81149466673769        1.92399699710592
H            5.77913874324859        3.69040082885293        0.51605248241390
H            4.14384900866279        4.88511104682303       -0.90271024146778
H            2.32575436004554        3.67018168157027       -2.00735896208862
H            2.06110535378451        1.23887287928634       -1.72041213510115
H            1.20394392987936       -0.17294847837724        0.07447689211024
H           -1.20394464452709       -0.17294219086551        0.07447067212660

          :  Hamiltonian                  GFN2-xTB          :
         :: gradient norm              0.000060770350 Eh/a0 ::
         :: HOMO-LUMO gap              2.535249407553 eV    ::
         :: SCC energy               -99.341387086515 Eh    ::
         :: -> dispersion             -0.087105930382 Eh    ::
         :: -> Gsolv                  -0.040173270312 Eh    ::
         :: repulsion energy           1.806665371948 Eh    ::

    * Orbital Energies and Occupations

         #    Occupation            Energy/Eh            Energy/eV
      -------------------------------------------------------------
         1        2.0000           -0.7325141             -19.9327
       ...           ...                  ...                  ...
        79        2.0000           -0.4217524             -11.4765
        80        2.0000           -0.4198805             -11.4255
        81        2.0000           -0.4195370             -11.4162
        82        2.0000           -0.4189012             -11.3989
        83        2.0000           -0.4185528             -11.3894
        84        2.0000           -0.4063848             -11.0583
        85        2.0000           -0.4063372             -11.0570
        86        2.0000           -0.4002445             -10.8912
        87        2.0000           -0.3850309             -10.4772
        88        2.0000           -0.3797020             -10.3322
        89        2.0000           -0.3797010             -10.3322
        90        2.0000           -0.3652093              -9.9379
        91        2.0000           -0.3608596              -9.8195 (HOMO)
        92                         -0.2676909              -7.2842 (LUMO)
        93                         -0.2500432              -6.8040
        94                         -0.2472899              -6.7291
        95                         -0.2426565              -6.6030
        96                         -0.2376394              -6.4665
        97                         -0.2231007              -6.0709
        98                         -0.2230993              -6.0708
        99                         -0.2134089              -5.8072
       100                         -0.2100673              -5.7162
       101                         -0.1937355              -5.2718
       102                         -0.1894690              -5.1557
       ...                                ...                  ...
       183                          0.7432159              20.2239
      -------------------------------------------------------------
                  HL-Gap            0.0931687 Eh            2.5352 eV

     #   Z          covCN         q      C6AA      α(0)
     1   6 C        2.920    -0.042    29.050     8.839
     2   6 C        2.924    -0.035    28.864     8.810
     3   6 C        2.910    -0.052    29.290     8.874
     4   6 C        3.073     0.047    26.875     8.500
     5   6 C        3.067    -0.018    28.392     8.737
     6   6 C        2.912    -0.035    28.860     8.809
     7   6 C        3.067    -0.018    28.390     8.737
     8   6 C        2.912    -0.035    28.859     8.809
     9   6 C        2.919    -0.042    29.051     8.839
    10   6 C        2.924    -0.035    28.862     8.810
    11   6 C        2.910    -0.052    29.287     8.874
    12   6 C        3.074     0.047    26.877     8.500
    13   7 N        2.802    -0.045    22.107     6.983
    14   6 C        2.911     0.061    26.632     8.462
    15   6 C        2.925    -0.043    29.065     8.841
    16   6 C        2.934    -0.037    28.927     8.821
    17   6 C        3.002     0.035    27.205     8.556
    18  16 S        2.207    -0.088   144.735    20.248
    19   6 C        3.002     0.035    27.205     8.556
    20   6 C        2.934    -0.037    28.927     8.821
    21   6 C        2.925    -0.043    29.065     8.841
    22   6 C        2.911     0.061    26.632     8.462
    23   7 N        2.802    -0.045    22.107     6.983
    24   6 C        3.073     0.047    26.875     8.500
    25   6 C        2.910    -0.052    29.290     8.874
    26   6 C        2.924    -0.035    28.864     8.810
    27   6 C        2.920    -0.042    29.050     8.839
    28   6 C        2.912    -0.035    28.860     8.809
    29   6 C        3.067    -0.018    28.392     8.737
    30   6 C        3.067    -0.018    28.390     8.737
    31   6 C        2.912    -0.035    28.859     8.809
    32   6 C        2.919    -0.042    29.051     8.839
    33   6 C        2.924    -0.035    28.862     8.810
    34   6 C        2.910    -0.052    29.287     8.874
    35   6 C        3.074     0.047    26.877     8.500
    36   6 C        2.920    -0.046    29.153     8.854
    37   6 C        3.104    -0.001    27.920     8.658
    38   6 C        3.104    -0.001    27.920     8.658
    39   6 C        2.920    -0.046    29.153     8.854
    40   1 H        0.926     0.028     2.610     2.526
    41   1 H        0.926     0.031     2.578     2.511
    42   1 H        0.926     0.030     2.585     2.514
    43   1 H        0.926     0.031     2.576     2.510
    44   1 H        0.926     0.031     2.575     2.509
    45   1 H        0.926     0.028     2.610     2.526
    46   1 H        0.926     0.030     2.581     2.512
    47   1 H        0.926     0.029     2.599     2.521
    48   1 H        0.926     0.051     2.305     2.374
    49   1 H        0.926     0.050     2.316     2.380
    50   1 H        0.926     0.050     2.316     2.380
    51   1 H        0.926     0.051     2.305     2.374
    52   1 H        0.926     0.030     2.585     2.514
    53   1 H        0.926     0.031     2.578     2.511
    54   1 H        0.926     0.028     2.610     2.526
    55   1 H        0.926     0.031     2.576     2.510
    56   1 H        0.926     0.031     2.575     2.509
    57   1 H        0.926     0.028     2.610     2.526
    58   1 H        0.926     0.030     2.581     2.512
    59   1 H        0.926     0.029     2.599     2.521
    60   1 H        0.926     0.050     2.314     2.379
    61   1 H        0.926     0.050     2.314     2.379

molecular dipole:
                 x           y           z       tot (Debye)
 q only:        0.000      -0.490      -0.210
   full:        0.000      -0.405      -0.164       1.110

 projected vibrational frequencies (cm⁻¹)
eigval :       -0.00    -0.00    -0.00    -0.00     0.00     0.00
eigval :       15.48    16.25    23.88    31.21    45.70    46.21
eigval :       91.01   105.60   106.67   109.18   122.09   144.14
eigval :      145.56   161.17   167.31   171.76   219.91   241.44
eigval :      266.95   272.28   272.94   275.92   276.24   315.91
eigval :      333.61   362.91   387.18   395.15   398.83   400.70
eigval :      417.10   422.00   422.77   434.43   435.98   439.68
eigval :      457.31   504.46   517.47   518.87   522.13   529.18
eigval :      539.93   540.45   542.41   542.63   561.05   583.31
eigval :      588.03   602.90   616.39   642.15   662.27   662.43
eigval :      668.60   674.25   674.79   680.06   709.08   709.17
eigval :      717.15   740.16   754.52   758.07   771.15   771.76
eigval :      782.26   782.72   814.96   823.52   824.28   866.54
eigval :      867.81   875.45   875.60   883.28   886.92   897.09
eigval :      897.42   903.31   903.33   906.73   907.62   915.58
eigval :      915.59   923.82   924.71   925.49   925.59   926.31
eigval :      997.22  1008.72  1012.02  1012.35  1047.84  1069.72
eigval :     1070.01  1073.08  1073.43  1086.36  1111.16  1117.71
eigval :     1151.28  1151.75  1158.54  1161.17  1170.24  1175.47
eigval :     1180.69  1181.22  1184.69  1190.63  1219.43  1224.95
eigval :     1230.75  1235.54  1236.01  1243.78  1267.12  1298.88
eigval :     1299.09  1299.78  1303.67  1330.76  1331.95  1347.10
eigval :     1352.60  1356.73  1358.01  1360.86  1361.83  1403.43
eigval :     1412.03  1422.22  1427.05  1427.38  1441.50  1458.06
eigval :     1467.57  1474.32  1477.07  1486.72  1486.75  1547.24
eigval :     1551.48  1572.95  1573.08  1581.61  1583.88  1587.13
eigval :     1587.33  1597.18  1597.26  1612.44  1612.72  3071.38
eigval :     3071.41  3072.03  3072.03  3076.81  3076.84  3077.71
eigval :     3077.72  3084.31  3084.36  3085.31  3085.37  3091.04
eigval :     3091.13  3093.12  3093.27  3093.53  3093.69  3098.64
eigval :     3101.60  3104.05  3104.44

   temp. (K)  partition function   enthalpy   heat capacity  entropy
                                   cal/mol     cal/K/mol   cal/K/mol   J/K/mol
 298.15  VIB  0.534E+12            16497.692    110.235     99.078
         ROT  0.510E+08              888.752      2.981     38.249
         INT  0.272E+20            17386.444    113.216    137.327
         TR   0.113E+29             1481.254      4.968     44.581
         TOT                       18867.6982   118.1841   181.9082   761.1039

       T/K    H(0)-H(T)+PV         H(T)/Eh          T*S/Eh         G(T)/Eh
   ------------------------------------------------------------------------
    298.15    0.300676E-01    0.489678E+00    0.864305E-01    0.403247E+00
   ------------------------------------------------------------------------

         :::::::::::::::::::::::::::::::::::::::::::::::::::::
         ::                  THERMODYNAMIC                  ::
         :::::::::::::::::::::::::::::::::::::::::::::::::::::
         :: total free energy         -97.131474498151 Eh   ::
         ::.................................................::
         :: total energy              -97.534721713535 Eh   ::
         :: zero point energy           0.459610076577 Eh   ::
         :: G(RRHO) w/o ZPVE           -0.056362861193 Eh   ::
         :: G(RRHO) contrib.            0.403247215385 Eh   ::
         :::::::::::::::::::::::::::::::::::::::::::::::::::::

           -------------------------------------------------
          | TOTAL ENERGY              -97.534721713535 Eh   |
          | TOTAL ENTHALPY            -97.045044045992 Eh   |
          | TOTAL FREE ENERGY         -97.131474498151 Eh   |
          | GRADIENT NORM               0.000060771881 Eh/α |
          | HOMO-LUMO GAP               2.535249329980 eV   |
           -------------------------------------------------

 * finished run on 2025/07/16 at 19:28:27.377
