   * xtb version 6.7.1 (edcfbbe) compiled by 'albert@albert-system' on 2024-07-22

   ID    Z sym.   atoms
    1    6 C      1-12, 14-17, 19-22, 24-39
    2    7 N      13, 23
    3   16 S      18
    4    1 H      40-61

          program call               : xtb data2507/toluene/ZDZ/ZDZ_toluene_S0_crest.xyz --gfn 2 --gbsa toluene --ohess vtight --parallel 40 --molden --ceasefiles --namespace data2507/toluene/ZDZ/ZDZ_toluene_S0_finalOpt
      * Solvation model:               GBSA
        Solvent                        toluene
        Solvent mass                       9.2140E+01 g/mol
          :  Hamiltonian                  GFN2-xTB          :
 * total energy  :   -97.5346677 Eh     change       -0.1957872E-08 Eh
 * total energy  :   -97.5346900 Eh     change       -0.2238441E-04 Eh
 * total energy  :   -97.5346972 Eh     change       -0.7191244E-05 Eh
 * total energy  :   -97.5346994 Eh     change       -0.2185159E-05 Eh
 * total energy  :   -97.5347005 Eh     change       -0.1126524E-05 Eh
 * total energy  :   -97.5347013 Eh     change       -0.7936519E-06 Eh
 * total energy  :   -97.5347020 Eh     change       -0.6455688E-06 Eh
 * total energy  :   -97.5347026 Eh     change       -0.5853294E-06 Eh
 * total energy  :   -97.5347032 Eh     change       -0.5965863E-06 Eh
 * total energy  :   -97.5347038 Eh     change       -0.5955396E-06 Eh
 * total energy  :   -97.5347061 Eh     change       -0.5538864E-06 Eh
 * total energy  :   -97.5347066 Eh     change       -0.5307202E-06 Eh
 * total energy  :   -97.5347071 Eh     change       -0.5126326E-06 Eh
 * total energy  :   -97.5347076 Eh     change       -0.4853770E-06 Eh
 * total energy  :   -97.5347081 Eh     change       -0.4571616E-06 Eh
 * total energy  :   -97.5347085 Eh     change       -0.4345754E-06 Eh
 * total energy  :   -97.5347089 Eh     change       -0.4262792E-06 Eh
 * total energy  :   -97.5347094 Eh     change       -0.4347144E-06 Eh
 * total energy  :   -97.5347094 Eh     change       -0.3270600E-08 Eh
   *** GEOMETRY OPTIMIZATION CONVERGED AFTER 22 ITERATIONS ***

 final structure:
================
61
 xtb: 6.7.1 (edcfbbe)
C           -7.17933706306887        0.38260616780935        2.43550458225949
C           -6.52484208379514       -0.84758197644649        2.41876125985631
C           -5.39911048915555       -1.05592348037594        1.64466053333422
C           -4.93964919857078        0.00021252369066        0.87002388483853
C           -5.58234585552247        1.25954297529414        0.90038358840797
C           -6.71232194495651        1.44474548946116        1.68694323127771
C           -4.82879042206724        2.12379823316807        0.03503338369468
C           -4.97109748119585        3.45140698637282       -0.34869381489436
C           -4.05877128813055        3.98560792345267       -1.23687052416571
C           -3.02396942866365        3.20868897103982       -1.75386991101531
C           -2.86250131957994        1.88583507227537       -1.38786966436211
C           -3.76142350985636        1.34970218519309       -0.47610974828735
N           -3.84066264377114        0.06824919353005        0.03544498285570
C           -2.95869900643158       -0.98295395431611       -0.25382157272994
C           -3.46449392789408       -2.22610744214204       -0.65270606149667
C           -2.61470915784439       -3.27185164364798       -0.94824117856482
C           -1.24675226872267       -3.06400254553214       -0.86343377340162
S           -0.00158390559900       -4.24163977199359       -1.22020654224563
C            1.24504734088380       -3.06518227097200       -0.86468303965405
C            2.61272855289586       -3.27435213855428       -0.95072621783365
C            3.46381940218264       -2.22945776444071       -0.65587721783734
C            2.95954017793530       -0.98582362974949       -0.25664237759936
N            3.84256938229728        0.06459331415389        0.03228267392167
C            4.94041378332758       -0.00373059833089        0.86831525484398
C            5.39919429347786       -1.06034620529471        1.64268845422035
C            6.52370694061058       -0.85218306919762        2.41860808900406
C            7.17764319725826        0.37827384242461        2.43735537306740
C            6.71141001832837        1.44079338807905        1.68884467894711
C            5.58269739451142        1.25577535311635        0.90042961407510
C            4.83011715758297        2.12040591693954        0.03459826967409
C            4.97254737841934        3.44829341504154       -0.34813295585582
C            4.06127334180380        3.98275101428656       -1.23723908053388
C            3.02737576155606        3.20586475121040       -1.75610839933830
C            2.86576428446550        1.88276293866925       -1.39108619193662
C            3.76363011248522        1.34636367358881       -0.47844325764016
C            1.59043182221141       -0.78462648265807       -0.15834075009922
C            0.72013147622931       -1.82100065149300       -0.47481564598575
C           -0.72031169677201       -1.82032484930763       -0.47404106944912
C           -1.58931352482008       -0.78313217087974       -0.15658924324858
H           -8.05839839649423        0.50468146419844        3.05128435871630
H           -6.90370497557629       -1.65568626307534        3.02755636285427
H           -4.89019886835720       -2.00799881167950        1.65371182523494
H           -7.20974056910144        2.40289774381842        1.71257194147043
H           -5.78235653794624        4.04892263863562        0.03977973191791
H           -4.14989831396927        5.01680550939730       -1.54538622767597
H           -2.33394272938851        3.64965594834099       -2.45862090297301
H           -2.06802910050875        1.28910174105627       -1.81024637255338
H           -4.53191689219219       -2.35630369797237       -0.74301254214631
H           -3.00395201486395       -4.23016725253795       -1.25490739856001
H            3.00074045869443       -4.23305582093908       -1.25774999658108
H            4.53104568953825       -2.36072853678792       -0.74697798832731
H            4.89069792864546       -2.01265484187760        1.65013738416885
H            6.90200369030300       -1.66063142372673        3.02729879056622
H            8.05566297560313        0.50024404983551        3.05464027000250
H            7.20841580262627        2.39911920730568        1.71597483619192
H            5.78308285266022        4.04583211973937        0.04181319512818
H            4.15252238840873        5.01415621336567       -1.54502409298197
H            2.33821166312331        3.64705316663046       -2.46156421560340
H            2.07199932757125        1.28602278343838       -1.81479615839882
H            1.20573089252005        0.16880397697668        0.16875467590995
H           -1.20333357284029        0.16982308119209        0.17037185813610

          :  Hamiltonian                  GFN2-xTB          :
         :: gradient norm              0.000046456682 Eh/a0 ::
         :: HOMO-LUMO gap              2.535614253704 eV    ::
         :: SCC energy               -99.341248253961 Eh    ::
         :: -> dispersion             -0.087100869247 Eh    ::
         :: -> Gsolv                  -0.040143677282 Eh    ::
         :: repulsion energy           1.806538879070 Eh    ::

    * Orbital Energies and Occupations

         #    Occupation            Energy/Eh            Energy/eV
      -------------------------------------------------------------
         1        2.0000           -0.7324691             -19.9315
       ...           ...                  ...                  ...
        79        2.0000           -0.4217442             -11.4762
        80        2.0000           -0.4198803             -11.4255
        81        2.0000           -0.4195330             -11.4161
        82        2.0000           -0.4189064             -11.3990
        83        2.0000           -0.4185375             -11.3890
        84        2.0000           -0.4063909             -11.0585
        85        2.0000           -0.4063475             -11.0573
        86        2.0000           -0.4001732             -10.8893
        87        2.0000           -0.3850525             -10.4778
        88        2.0000           -0.3797185             -10.3327
        89        2.0000           -0.3797156             -10.3326
        90        2.0000           -0.3652105              -9.9379
        91        2.0000           -0.3608039              -9.8180 (HOMO)
        92                         -0.2676218              -7.2824 (LUMO)
        93                         -0.2500562              -6.8044
        94                         -0.2473222              -6.7300
        95                         -0.2426029              -6.6016
        96                         -0.2375785              -6.4648
        97                         -0.2231276              -6.0716
        98                         -0.2231233              -6.0715
        99                         -0.2133656              -5.8060
       100                         -0.2100553              -5.7159
       101                         -0.1937206              -5.2714
       102                         -0.1893715              -5.1531
       ...                                ...                  ...
       183                          0.7431395              20.2219
      -------------------------------------------------------------
                  HL-Gap            0.0931821 Eh            2.5356 eV

     #   Z          covCN         q      C6AA      α(0)
     1   6 C        2.920    -0.042    29.050     8.839
     2   6 C        2.924    -0.035    28.864     8.810
     3   6 C        2.910    -0.052    29.290     8.874
     4   6 C        3.073     0.047    26.875     8.500
     5   6 C        3.067    -0.018    28.392     8.737
     6   6 C        2.912    -0.035    28.860     8.809
     7   6 C        3.067    -0.018    28.389     8.737
     8   6 C        2.912    -0.035    28.859     8.809
     9   6 C        2.919    -0.042    29.050     8.839
    10   6 C        2.923    -0.035    28.863     8.810
    11   6 C        2.910    -0.052    29.287     8.874
    12   6 C        3.073     0.047    26.878     8.500
    13   7 N        2.802    -0.045    22.105     6.983
    14   6 C        2.910     0.061    26.633     8.462
    15   6 C        2.925    -0.043    29.068     8.842
    16   6 C        2.934    -0.037    28.928     8.821
    17   6 C        3.002     0.035    27.205     8.556
    18  16 S        2.207    -0.088   144.743    20.249
    19   6 C        3.002     0.035    27.205     8.556
    20   6 C        2.934    -0.037    28.928     8.821
    21   6 C        2.925    -0.043    29.068     8.842
    22   6 C        2.910     0.061    26.633     8.462
    23   7 N        2.802    -0.045    22.105     6.983
    24   6 C        3.073     0.047    26.875     8.500
    25   6 C        2.910    -0.052    29.291     8.874
    26   6 C        2.924    -0.035    28.864     8.810
    27   6 C        2.920    -0.042    29.050     8.839
    28   6 C        2.912    -0.035    28.860     8.809
    29   6 C        3.067    -0.018    28.392     8.737
    30   6 C        3.067    -0.018    28.390     8.737
    31   6 C        2.912    -0.035    28.859     8.809
    32   6 C        2.920    -0.042    29.050     8.839
    33   6 C        2.923    -0.035    28.863     8.810
    34   6 C        2.910    -0.052    29.287     8.874
    35   6 C        3.073     0.047    26.878     8.500
    36   6 C        2.920    -0.047    29.155     8.855
    37   6 C        3.103    -0.001    27.921     8.658
    38   6 C        3.103    -0.001    27.922     8.659
    39   6 C        2.920    -0.047    29.155     8.855
    40   1 H        0.926     0.028     2.609     2.526
    41   1 H        0.926     0.031     2.577     2.510
    42   1 H        0.926     0.030     2.583     2.513
    43   1 H        0.926     0.031     2.576     2.510
    44   1 H        0.926     0.031     2.575     2.509
    45   1 H        0.926     0.028     2.610     2.526
    46   1 H        0.926     0.030     2.581     2.512
    47   1 H        0.926     0.029     2.598     2.521
    48   1 H        0.926     0.051     2.304     2.374
    49   1 H        0.926     0.050     2.317     2.380
    50   1 H        0.926     0.050     2.317     2.380
    51   1 H        0.926     0.051     2.304     2.374
    52   1 H        0.926     0.030     2.583     2.513
    53   1 H        0.926     0.031     2.577     2.510
    54   1 H        0.926     0.028     2.609     2.526
    55   1 H        0.926     0.031     2.576     2.510
    56   1 H        0.926     0.031     2.575     2.509
    57   1 H        0.926     0.028     2.610     2.526
    58   1 H        0.926     0.030     2.581     2.512
    59   1 H        0.926     0.029     2.598     2.521
    60   1 H        0.926     0.050     2.315     2.379
    61   1 H        0.926     0.050     2.315     2.379

molecular dipole:
                 x           y           z       tot (Debye)
 q only:       -0.001      -0.510      -0.132
   full:       -0.001      -0.417      -0.101       1.092

 projected vibrational frequencies (cm⁻¹)
eigval :       -0.00    -0.00    -0.00     0.00     0.00     0.00
eigval :       12.65    16.56    21.34    35.40    43.58    48.95
eigval :       89.09   103.78   111.13   111.20   120.78   143.11
eigval :      145.68   161.27   167.50   172.79   218.79   249.64
eigval :      267.11   271.55   271.68   276.68   277.13   315.62
eigval :      333.76   361.22   386.04   397.21   397.40   400.76
eigval :      421.32   421.70   425.40   434.27   436.37   439.67
eigval :      456.34   505.35   517.34   518.81   522.15   528.16
eigval :      539.13   540.53   541.35   542.28   560.96   583.33
eigval :      588.15   603.09   615.77   647.24   662.00   662.44
eigval :      669.95   673.35   673.65   691.02   708.66   708.72
eigval :      717.64   739.75   754.33   757.75   770.50   771.03
eigval :      782.23   782.47   814.81   827.17   828.24   866.62
eigval :      867.41   872.89   873.30   883.29   887.11   896.81
eigval :      897.15   901.33   901.68   906.29   907.28   917.28
eigval :      917.68   924.66   924.88   925.20   925.88   926.42
eigval :      997.05  1008.60  1011.85  1012.21  1048.40  1069.31
eigval :     1069.56  1073.06  1073.54  1087.48  1111.33  1117.74
eigval :     1151.01  1151.48  1158.88  1161.56  1170.06  1174.86
eigval :     1179.89  1180.43  1184.11  1190.46  1219.71  1224.61
eigval :     1230.72  1235.25  1235.67  1243.69  1267.52  1298.39
eigval :     1298.86  1299.74  1303.66  1329.43  1332.20  1346.91
eigval :     1352.41  1356.54  1357.69  1360.58  1361.78  1403.04
eigval :     1412.12  1421.67  1426.77  1427.00  1441.38  1456.44
eigval :     1467.51  1474.25  1476.90  1486.71  1486.74  1547.36
eigval :     1549.40  1572.74  1572.98  1581.21  1584.14  1587.00
eigval :     1587.20  1596.99  1597.06  1612.28  1612.56  3070.87
eigval :     3070.91  3071.78  3071.82  3076.85  3076.88  3077.51
eigval :     3077.54  3084.33  3084.39  3085.17  3085.29  3091.07
eigval :     3091.12  3093.33  3093.37  3093.74  3094.10  3098.24
eigval :     3101.27  3104.49  3104.87

   temp. (K)  partition function   enthalpy   heat capacity  entropy
                                   cal/mol     cal/K/mol   cal/K/mol   J/K/mol
 298.15  VIB  0.610E+12            16485.624    110.252     99.200
         ROT  0.510E+08              888.752      2.981     38.251
         INT  0.311E+20            17374.376    113.233    137.451
         TR   0.113E+29             1481.254      4.968     44.581
         TOT                       18855.6304   118.2012   182.0321   761.6224

       T/K    H(0)-H(T)+PV         H(T)/Eh          T*S/Eh         G(T)/Eh
   ------------------------------------------------------------------------
    298.15    0.300484E-01    0.489682E+00    0.864893E-01    0.403192E+00
   ------------------------------------------------------------------------

         :::::::::::::::::::::::::::::::::::::::::::::::::::::
         ::                  THERMODYNAMIC                  ::
         :::::::::::::::::::::::::::::::::::::::::::::::::::::
         :: total free energy         -97.131517171124 Eh   ::
         ::.................................................::
         :: total energy              -97.534709374304 Eh   ::
         :: zero point energy           0.459633179755 Eh   ::
         :: G(RRHO) w/o ZPVE           -0.056440976576 Eh   ::
         :: G(RRHO) contrib.            0.403192203180 Eh   ::
         :::::::::::::::::::::::::::::::::::::::::::::::::::::

           -------------------------------------------------
          | TOTAL ENERGY              -97.534709374304 Eh   |
          | TOTAL ENTHALPY            -97.045027834914 Eh   |
          | TOTAL FREE ENERGY         -97.131517171124 Eh   |
          | GRADIENT NORM               0.000046454735 Eh/α |
          | HOMO-LUMO GAP               2.535614163595 eV   |
           -------------------------------------------------

 * finished run on 2025/07/16 at 19:31:09.397
