   * xtb version 6.7.1 (edcfbbe) compiled by 'albert@albert-system' on 2024-07-22

   ID    Z sym.   atoms
    1    8 O      1, 28
    2    6 C      2-8, 10-15, 17-27, 30-35
    3    7 N      9, 29
    4   16 S      16
    5    1 H      36-53

          program call               : xtb data2507/gas/PTZ-NAI/PTZ-NAI_gas_S0_crest.xyz --gfn 2 --ohess vtight --parallel 40 --molden --ceasefiles --namespace data2507/gas/PTZ-NAI/PTZ-NAI_gas_S0_finalOpt
          :  Hamiltonian                  GFN2-xTB          :
 * total energy  :   -90.6994020 Eh     change       -0.2091525E-08 Eh
 * total energy  :   -90.6994031 Eh     change       -0.1054075E-05 Eh
 * total energy  :   -90.6994042 Eh     change       -0.1082680E-05 Eh
 * total energy  :   -90.6994062 Eh     change       -0.2059448E-05 Eh
 * total energy  :   -90.6994081 Eh     change       -0.1875677E-05 Eh
 * total energy  :   -90.6994094 Eh     change       -0.1237217E-05 Eh
 * total energy  :   -90.6994105 Eh     change       -0.1115423E-05 Eh
 * total energy  :   -90.6994119 Eh     change       -0.1464354E-05 Eh
 * total energy  :   -90.6994137 Eh     change       -0.1810928E-05 Eh
 * total energy  :   -90.6994150 Eh     change       -0.1290326E-05 Eh
 * total energy  :   -90.6994161 Eh     change       -0.3854988E-06 Eh
 * total energy  :   -90.6994164 Eh     change       -0.3405637E-06 Eh
 * total energy  :   -90.6994167 Eh     change       -0.3312199E-06 Eh
 * total energy  :   -90.6994170 Eh     change       -0.2517175E-06 Eh
 * total energy  :   -90.6994172 Eh     change       -0.1763596E-06 Eh
 * total energy  :   -90.6994173 Eh     change       -0.1711424E-06 Eh
 * total energy  :   -90.6994176 Eh     change       -0.2171856E-06 Eh
 * total energy  :   -90.6994178 Eh     change       -0.2055763E-06 Eh
 * total energy  :   -90.6994179 Eh     change       -0.9561874E-07 Eh
   *** GEOMETRY OPTIMIZATION CONVERGED AFTER 20 ITERATIONS ***

 final structure:
================
53
 xtb: 6.7.1 (edcfbbe)
O            4.13750334395708       -0.02415004578056        2.23993383387525
C            3.35870816276462       -0.02214400854987        1.31167513269789
C            1.89527131631011       -0.03549463009166        1.49236678338780
C            1.36722940729688       -0.06799628746950        2.76585118662005
C           -0.01712158677764       -0.07713819450785        2.95707512967003
C           -0.86853864635730       -0.05176766663407        1.88327111391086
C           -0.36365398059762       -0.01657607387072        0.56714364431142
C           -1.20178979646551        0.01184109014229       -0.57999344922742
N           -2.61624120157346        0.00761857502923       -0.43029666471836
C           -3.24376181234559        1.23516215218591       -0.21880624510465
C           -2.47656095650832        2.39126738447687       -0.07087500512775
C           -3.06510880505413        3.62559992502440        0.14040677118594
C           -4.43979556689027        3.73892114747471        0.22198988149396
C           -5.21723785564536        2.60381976311306        0.07493758830854
C           -4.63254565757489        1.36918062820351       -0.15376266484210
S           -5.73557801563656        0.00715152124403       -0.40808308879923
C           -4.63293269370427       -1.36925171390219       -0.24668762410688
C           -5.21766244666418       -2.61644422440397       -0.10144433584327
C           -4.44015232721152       -3.75874574125753       -0.02982580713023
C           -3.06533245768475       -3.64003397493316       -0.10108622110536
C           -2.47677087911458       -2.39426216379326       -0.22853232520877
C           -3.24415315387614       -1.23114498729479       -0.30169813899374
C           -0.66088098271772        0.04300152490457       -1.84333456515863
C            0.72381696568765        0.04765489768874       -2.02385872241610
C            1.56938667125397        0.02260056850020       -0.93537974338858
C            1.04028176458998       -0.00967565441022        0.37168446390686
C            3.02842637403954        0.02354016275813       -1.14825062837075
O            3.53317659363792        0.03135511916592       -2.24986874798246
N            3.81075622071642        0.00398925897163       -0.00149212747634
C            5.23353643707824        0.01093841623812       -0.19322487456133
C            5.98148046776216       -1.09072730620726        0.18917818418028
C            7.35256532184640       -1.07770669910479        0.00561887842299
C            7.96824683845242        0.02379319245866       -0.56387504695406
C            7.21310360063385        1.11897352534814       -0.94733718705457
C            5.84258475051820        1.11909180509516       -0.75929510327228
H            2.04435821466262       -0.08601734258875        3.60648749803473
H           -0.41381886735106       -0.10395840097547        3.96038750440411
H           -1.93748351613259       -0.05845858673227        2.03604212298642
H           -1.40119856587307        2.32714895561195       -0.13060014201877
H           -2.43713598013778        4.49731223226696        0.24254862144442
H           -4.90679613900328        4.69614135269444        0.39081885177944
H           -6.29397933852818        2.66196424233518        0.12134303280004
H           -6.29443540979349       -2.67765468712912       -0.05986570264882
H           -4.90718606940590       -4.72517807048200        0.07392399088200
H           -2.43730094419058       -4.51649957494088       -0.05586358843493
H           -1.40126319598389       -2.32581663827451       -0.28086656348790
H           -1.31833770252040        0.06354854180529       -2.69932163959315
H            1.15151125012365        0.07090096827934       -3.01459701344249
H            5.49241237243374       -1.94543871430412        0.63123771779031
H            7.93965408730481       -1.93272321749357        0.30547128614042
H            9.03821587759484        0.02868274210946       -0.70920685086866
H            7.69125753583169        1.97892676996518       -1.39173280876595
H            5.24562701132353        1.96869103164069       -1.05417831173219

          :  Hamiltonian                  GFN2-xTB          :
         :: gradient norm              0.000028321476 Eh/a0 ::
         :: HOMO-LUMO gap              0.675940726773 eV    ::
         :: SCC energy               -92.228998191064 Eh    ::
         :: -> dispersion             -0.078499799144 Eh    ::
         :: repulsion energy           1.529580331560 Eh    ::

    * Orbital Energies and Occupations

         #    Occupation            Energy/Eh            Energy/eV
      -------------------------------------------------------------
         1        2.0000           -0.7237421             -19.6940
       ...           ...                  ...                  ...
        71        2.0000           -0.4385738             -11.9342
        72        2.0000           -0.4345830             -11.8256
        73        2.0000           -0.4299569             -11.6997
        74        2.0000           -0.4250443             -11.5660
        75        2.0000           -0.4224463             -11.4953
        76        2.0000           -0.4190191             -11.4021
        77        2.0000           -0.4172973             -11.3552
        78        2.0000           -0.4161145             -11.3231
        79        2.0000           -0.4159436             -11.3184
        80        2.0000           -0.4104458             -11.1688
        81        2.0000           -0.4066268             -11.0649
        82        2.0000           -0.3884860             -10.5712
        83        2.0000           -0.3474202              -9.4538 (HOMO)
        84        0.0000           -0.3225799              -8.7778 (LUMO)
        85                         -0.2651671              -7.2156
        86                         -0.2621918              -7.1346
        87                         -0.2491898              -6.7808
        88                         -0.2394695              -6.5163
        89                         -0.2381811              -6.4812
        90                         -0.2327629              -6.3338
        91                         -0.2303013              -6.2668
        92                         -0.2301214              -6.2619
        93                         -0.2088515              -5.6831
        94                         -0.2023200              -5.5054
       ...                                ...                  ...
       163                          0.7211024              19.6222
      -------------------------------------------------------------
                  HL-Gap            0.0248403 Eh            0.6759 eV

     #   Z          covCN         q      C6AA      α(0)
     1   8 O        0.859    -0.397    21.625     6.235
     2   6 C        2.774     0.275    22.357     7.744
     3   6 C        2.976    -0.023    28.564     8.767
     4   6 C        2.922    -0.010    28.267     8.719
     5   6 C        2.915    -0.023    28.589     8.768
     6   6 C        2.917    -0.019    28.474     8.750
     7   6 C        2.985     0.008    27.840     8.655
     8   6 C        2.929     0.075    26.329     8.415
     9   7 N        2.750    -0.076    22.718     7.079
    10   6 C        2.944     0.059    26.675     8.471
    11   6 C        2.928    -0.058    29.445     8.899
    12   6 C        2.919    -0.033    28.830     8.805
    13   6 C        2.918    -0.038    28.951     8.823
    14   6 C        2.986    -0.039    28.967     8.829
    15   6 C        2.971     0.033    27.260     8.564
    16  16 S        2.133    -0.147   147.233    20.422
    17   6 C        2.971     0.033    27.260     8.564
    18   6 C        2.986    -0.039    28.967     8.829
    19   6 C        2.918    -0.038    28.950     8.823
    20   6 C        2.919    -0.033    28.829     8.805
    21   6 C        2.928    -0.058    29.445     8.899
    22   6 C        2.944     0.059    26.675     8.471
    23   6 C        2.917    -0.036    28.896     8.815
    24   6 C        2.921    -0.013    28.329     8.728
    25   6 C        2.975    -0.026    28.642     8.779
    26   6 C        2.994     0.009    27.799     8.649
    27   6 C        2.775     0.275    22.350     7.743
    28   8 O        0.859    -0.398    21.633     6.236
    29   7 N        2.746    -0.102    23.233     7.159
    30   6 C        2.938     0.086    26.092     8.377
    31   6 C        2.921    -0.026    28.640     8.776
    32   6 C        2.922    -0.024    28.607     8.771
    33   6 C        2.920    -0.027    28.674     8.781
    34   6 C        2.922    -0.024    28.606     8.771
    35   6 C        2.921    -0.026    28.640     8.776
    36   1 H        0.926     0.073     2.053     2.241
    37   1 H        0.926     0.052     2.298     2.370
    38   1 H        0.926     0.049     2.326     2.385
    39   1 H        0.926     0.027     2.629     2.535
    40   1 H        0.926     0.036     2.504     2.474
    41   1 H        0.926     0.038     2.469     2.457
    42   1 H        0.926     0.046     2.371     2.408
    43   1 H        0.926     0.046     2.371     2.408
    44   1 H        0.926     0.038     2.469     2.457
    45   1 H        0.926     0.036     2.503     2.474
    46   1 H        0.926     0.027     2.628     2.535
    47   1 H        0.926     0.058     2.219     2.330
    48   1 H        0.926     0.076     2.017     2.221
    49   1 H        0.926     0.045     2.383     2.414
    50   1 H        0.926     0.043     2.408     2.426
    51   1 H        0.926     0.041     2.430     2.438
    52   1 H        0.926     0.043     2.407     2.426
    53   1 H        0.926     0.045     2.384     2.414

molecular dipole:
                 x           y           z       tot (Debye)
 q only:       -0.543      -0.011       0.304
   full:       -0.516      -0.014       0.375       1.622

 projected vibrational frequencies (cm⁻¹)
eigval :       -0.00    -0.00    -0.00     0.00     0.00     0.00
eigval :        7.31    17.02    19.21    28.43    34.72    43.52
eigval :       61.96    63.93   101.43   121.82   123.38   127.70
eigval :      142.42   178.24   184.12   201.85   227.16   234.28
eigval :      241.40   273.28   294.86   312.19   326.42   347.30
eigval :      373.18   374.69   386.48   398.13   406.42   407.51
eigval :      411.84   416.87   422.72   459.40   476.61   487.04
eigval :      490.40   493.44   501.36   517.44   545.73   548.19
eigval :      575.40   589.83   609.45   624.98   628.99   639.95
eigval :      647.34   650.63   658.56   677.74   685.44   689.52
eigval :      716.46   729.54   749.70   760.84   769.16   770.67
eigval :      778.56   805.55   834.76   847.64   851.85   859.00
eigval :      859.15   871.22   900.08   900.42   900.99   906.70
eigval :      909.91   915.34   915.70   921.74   924.97   930.05
eigval :      930.70   931.71   987.21  1022.95  1042.22  1049.87
eigval :     1080.49  1100.24  1104.16  1104.72  1117.61  1128.14
eigval :     1137.41  1152.96  1158.61  1176.35  1180.61  1181.02
eigval :     1185.14  1188.43  1192.99  1202.40  1228.54  1242.34
eigval :     1246.02  1246.40  1256.66  1279.01  1286.89  1298.85
eigval :     1315.00  1321.69  1322.22  1333.30  1338.41  1358.32
eigval :     1388.98  1408.77  1414.04  1421.23  1438.23  1450.17
eigval :     1465.38  1469.36  1477.88  1505.03  1550.89  1557.65
eigval :     1571.60  1575.96  1578.11  1592.47  1593.48  1594.62
eigval :     1596.09  1694.82  1707.99  3081.00  3085.42  3088.12
eigval :     3088.32  3088.91  3092.37  3093.44  3093.81  3095.59
eigval :     3097.32  3097.94  3101.07  3101.21  3101.66  3104.34
eigval :     3104.78  3108.21  3108.58

   temp. (K)  partition function   enthalpy   heat capacity  entropy
                                   cal/mol     cal/K/mol   cal/K/mol   J/K/mol
 298.15  VIB  0.152E+13            15466.044     98.372     95.416
         ROT  0.300E+08              888.752      2.981     37.197
         INT  0.457E+20            16354.796    101.353    132.612
         TR   0.988E+28             1481.254      4.968     44.314
         TOT                       17836.0500   106.3209   176.9267   740.2613

       T/K    H(0)-H(T)+PV         H(T)/Eh          T*S/Eh         G(T)/Eh
   ------------------------------------------------------------------------
    298.15    0.284236E-01    0.415834E+00    0.840636E-01    0.331771E+00
   ------------------------------------------------------------------------

         :::::::::::::::::::::::::::::::::::::::::::::::::::::
         ::                  THERMODYNAMIC                  ::
         :::::::::::::::::::::::::::::::::::::::::::::::::::::
         :: total free energy         -90.367647123538 Eh   ::
         ::.................................................::
         :: total energy              -90.699417859493 Eh   ::
         :: zero point energy           0.387410762628 Eh   ::
         :: G(RRHO) w/o ZPVE           -0.055640026673 Eh   ::
         :: G(RRHO) contrib.            0.331770735955 Eh   ::
         :::::::::::::::::::::::::::::::::::::::::::::::::::::

           -------------------------------------------------
          | TOTAL ENERGY              -90.699417859493 Eh   |
          | TOTAL ENTHALPY            -90.283583541951 Eh   |
          | TOTAL FREE ENERGY         -90.367647123538 Eh   |
          | GRADIENT NORM               0.000028250139 Eh/α |
          | HOMO-LUMO GAP               0.675938736626 eV   |
           -------------------------------------------------

 * finished run on 2025/07/20 at 09:21:07.862
