   * xtb version 6.7.1 (edcfbbe) compiled by 'albert@albert-system' on 2024-07-22

   ID    Z sym.   atoms
    1    8 O      1, 28
    2    6 C      2-8, 10-15, 17-27, 30-35
    3    7 N      9, 29
    4   16 S      16
    5    1 H      36-53

          program call               : xtb data2507/gas/PTZ-NAI/PTZ-NAI_gas_T1_crest.xyz --gfn 2 --spinpol --tblite --uhf 2 --ohess vtight --parallel 40 --molden --ceasefiles --namespace data2507/gas/PTZ-NAI/PTZ-NAI_gas_T1_finalOpt
 * total energy  :   -90.6371601 Eh     change       -0.2975298E-08 Eh
 * total energy  :   -90.6371691 Eh     change       -0.8977305E-05 Eh
 * total energy  :   -90.6371727 Eh     change       -0.3600549E-05 Eh
 * total energy  :   -90.6371739 Eh     change       -0.1250529E-05 Eh
 * total energy  :   -90.6371752 Eh     change       -0.1309277E-05 Eh
 * total energy  :   -90.6371765 Eh     change       -0.1243412E-05 Eh
 * total energy  :   -90.6371779 Eh     change       -0.1407879E-05 Eh
 * total energy  :   -90.6371790 Eh     change       -0.1079364E-05 Eh
 * total energy  :   -90.6371796 Eh     change       -0.6662006E-06 Eh
 * total energy  :   -90.6371801 Eh     change       -0.4691158E-06 Eh
 * total energy  :   -90.6371809 Eh     change       -0.3329591E-06 Eh
 * total energy  :   -90.6371811 Eh     change       -0.1967909E-06 Eh
 * total energy  :   -90.6371812 Eh     change       -0.1108512E-06 Eh
 * total energy  :   -90.6371813 Eh     change       -0.1538745E-06 Eh
 * total energy  :   -90.6371815 Eh     change       -0.1161236E-06 Eh
 * total energy  :   -90.6371816 Eh     change       -0.1615921E-06 Eh
 * total energy  :   -90.6371818 Eh     change       -0.1527621E-06 Eh
 * total energy  :   -90.6371819 Eh     change       -0.1102328E-06 Eh
 * total energy  :   -90.6371819 Eh     change       -0.2206758E-07 Eh
   *** GEOMETRY OPTIMIZATION CONVERGED AFTER 20 ITERATIONS ***

 final structure:
================
53
 xtb: 6.7.1 (edcfbbe)
O            4.18665641621573        1.25504060874359        1.85408126899291
C            3.37749189709370        0.72185027408688        1.10454158276414
C            1.93974039831318        0.82994381970517        1.28137764379646
C            1.43053026391211        1.54076076231895        2.38711512961769
C            0.07514927439402        1.63490775896723        2.57823927362521
C           -0.81591119481440        1.05255975477314        1.67479182886034
C           -0.34581064747325        0.35939436081296        0.55219231261206
C           -1.19575557522468       -0.27650532791707       -0.39139279241875
N           -2.60639613386873       -0.17397953926764       -0.26751812914538
C           -3.19475760459735        1.05427018437333       -0.51780770178646
C           -2.39614046193003        2.13235838973339       -0.93062967033841
C           -2.93013617184784        3.38145148611567       -1.15443685957576
C           -4.29116091046381        3.60634930441991       -0.99153799971585
C           -5.10588899387374        2.55221753126689       -0.63786830520746
C           -4.57332550340692        1.28722059553051       -0.41093430517126
S           -5.73841339956454        0.02214165512686       -0.05153003418862
C           -4.70167210466510       -1.38008791463706        0.15870376958019
C           -5.34921943900522       -2.57218640811983        0.46348680806335
C           -4.62953601164940       -3.72196618659384        0.71138153218522
C           -3.24195099972365       -3.66663369376038        0.69069483654145
C           -2.59357067817575       -2.49017846487741        0.38784034231741
C           -3.30212936991856       -1.31887795096933        0.07465594813386
C           -0.66844474959315       -1.02353534149908       -1.46384107085150
C            0.68071417613788       -1.12292615752905       -1.64391802860365
C            1.56830968867207       -0.49413410079415       -0.73464973061951
C            1.06079833589618        0.23590846841389        0.35812095845521
C            2.99441516012926       -0.63154373662542       -0.93668800892807
O            3.48527933567948       -1.27479821869453       -1.85878155414958
N            3.80891249221707       -0.00542018712220        0.00227232570137
C            5.22137696703822       -0.12929156283075       -0.18072833204248
C            5.98787438035136       -0.76076147833901        0.78650760631672
C            7.35487082716391       -0.87299132268138        0.60800497770261
C            7.95193162926788       -0.36870650803502       -0.53469016257500
C            7.18036282728238        0.25564048458850       -1.49991224433076
C            5.81430891614215        0.38264048838338       -1.32440140590891
H            2.13594277760331        1.99360123206661        3.06528707632703
H           -0.31768135102158        2.17217974320796        3.42864918482339
H           -1.87852487769619        1.14530501763055        1.84673657315709
H           -1.34097070983179        1.97386180929549       -1.07868207341297
H           -2.28069381246058        4.18501571403028       -1.46391561650909
H           -4.71166393868829        4.58495888811417       -1.15778080489181
H           -6.17198504242811        2.68542683727402       -0.53500639138252
H           -6.42763843657166       -2.57336532241096        0.50696007212100
H           -5.14080918521600       -4.64285430608822        0.94093138853704
H           -2.66048007246577       -4.54551726221911        0.92052926038374
H           -1.51649212786924       -2.46109078887792        0.39854171045099
H           -1.35716932378618       -1.48006471818594       -2.16024628984293
H            1.10820379018701       -1.66370145572356       -2.47247769517986
H            5.51420626222997       -1.15232469253191        1.67377925248809
H            7.95414506714911       -1.36070442864535        1.36270998018079
H            9.01911902751951       -0.46255144342184       -0.67329255775721
H            7.64352834064971        0.65047570620974       -2.39220917059690
H            5.20574026548549        0.86879084870982       -2.07147989970527

 projected vibrational frequencies (cm⁻¹)
eigval :       -0.00    -0.00     0.00     0.00     0.00     0.00
eigval :       15.91    17.17    23.17    38.70    41.56    45.24
eigval :       66.14    68.91    99.14   128.52   128.85   138.72
eigval :      146.38   175.30   193.97   202.36   221.13   238.67
eigval :      245.07   271.34   299.16   303.71   336.34   345.16
eigval :      368.20   374.92   384.85   390.93   400.31   406.81
eigval :      418.97   422.60   434.17   461.71   472.98   477.81
eigval :      480.67   483.29   495.27   508.82   533.30   545.42
eigval :      559.12   588.48   594.73   608.12   629.34   636.34
eigval :      654.53   656.60   657.32   660.07   665.23   674.31
eigval :      703.26   718.14   727.44   756.65   759.19   770.63
eigval :      774.18   775.11   804.25   827.89   840.73   843.36
eigval :      866.39   866.59   868.70   890.38   897.10   902.60
eigval :      905.45   907.97   908.29   921.37   921.60   923.45
eigval :      927.75   929.04   984.44  1020.31  1045.90  1048.66
eigval :     1080.69  1093.29  1097.56  1098.35  1116.13  1119.31
eigval :     1128.35  1146.27  1150.15  1158.95  1172.84  1176.27
eigval :     1180.13  1182.11  1188.14  1192.20  1196.95  1211.71
eigval :     1234.60  1240.32  1254.02  1266.71  1279.57  1285.54
eigval :     1295.35  1322.20  1325.20  1329.03  1335.78  1363.69
eigval :     1369.04  1390.23  1396.37  1409.55  1410.27  1425.57
eigval :     1432.05  1439.25  1451.45  1470.17  1476.52  1495.42
eigval :     1533.82  1537.85  1554.96  1560.05  1564.35  1577.50
eigval :     1591.26  1592.43  1615.19  3071.04  3074.44  3074.94
eigval :     3080.27  3085.91  3089.11  3095.11  3095.72  3098.05
eigval :     3099.76  3101.47  3102.00  3111.37  3112.91  3113.23
eigval :     3114.01  3120.99  3124.31

   temp. (K)  partition function   enthalpy   heat capacity  entropy
                                   cal/mol     cal/K/mol   cal/K/mol   J/K/mol
 298.15  VIB  0.301E+12            15491.493     99.871     94.411
         ROT  0.302E+08              888.752      2.981     37.211
         INT  0.909E+19            16380.245    102.852    131.622
         TR   0.988E+28             1481.254      4.968     44.314
         TOT                       17861.4989   107.8198   175.9362   736.1172

       T/K    H(0)-H(T)+PV         H(T)/Eh          T*S/Eh         G(T)/Eh
   ------------------------------------------------------------------------
    298.15    0.284641E-01    0.412909E+00    0.835930E-01    0.329316E+00
   ------------------------------------------------------------------------

         :::::::::::::::::::::::::::::::::::::::::::::::::::::
         ::                  THERMODYNAMIC                  ::
         :::::::::::::::::::::::::::::::::::::::::::::::::::::
         :: total free energy         -90.307865444443 Eh   ::
         ::.................................................::
         :: total energy              -90.637181905322 Eh   ::
         :: zero point energy           0.384445336921 Eh   ::
         :: G(RRHO) w/o ZPVE           -0.055128876042 Eh   ::
         :: G(RRHO) contrib.            0.329316460879 Eh   ::
         :::::::::::::::::::::::::::::::::::::::::::::::::::::

           -------------------------------------------------
          | TOTAL ENERGY              -90.637181905322 Eh   |
          | TOTAL ENTHALPY            -90.224272458046 Eh   |
          | TOTAL FREE ENERGY         -90.307865444443 Eh   |
          | GRADIENT NORM               0.000093134723 Eh/α |
           -------------------------------------------------

 * finished run on 2025/07/20 at 09:24:13.242
