   * xtb version 6.7.1 (edcfbbe) compiled by 'albert@albert-system' on 2024-07-22

   ID    Z sym.   atoms
    1    8 O      1, 28
    2    6 C      2-8, 10-15, 17-27, 30-35
    3    7 N      9, 29
    4   16 S      16
    5    1 H      36-53

          program call               : xtb data2507/gas/PTZ-NAI/PTZ-NAI.xyz --gfn 2 --ohess vtight --parallel 40 --molden --ceasefiles --namespace data2507/gas/PTZ-NAI/PTZ-NAI_gas_S0_preOpt
          :  Hamiltonian                  GFN2-xTB          :
 * total energy  :   -90.6734464 Eh     change       -0.3072159E-08 Eh
 * total energy  :   -90.6883279 Eh     change       -0.1488146E-01 Eh
 * total energy  :   -90.6930530 Eh     change       -0.4725067E-02 Eh
 * total energy  :   -90.6946109 Eh     change       -0.1557920E-02 Eh
 * total energy  :   -90.6960880 Eh     change       -0.1477168E-02 Eh
 * total energy  :   -90.6968331 Eh     change       -0.7450669E-03 Eh
 * total energy  :   -90.6972242 Eh     change       -0.3910932E-03 Eh
 * total energy  :   -90.6975151 Eh     change       -0.2909058E-03 Eh
 * total energy  :   -90.6977707 Eh     change       -0.2555880E-03 Eh
 * total energy  :   -90.6980281 Eh     change       -0.2574096E-03 Eh
 * total energy  :   -90.6994004 Eh     change       -0.6572313E-06 Eh
 * total energy  :   -90.6994010 Eh     change       -0.5794048E-06 Eh
 * total energy  :   -90.6994014 Eh     change       -0.3960149E-06 Eh
 * total energy  :   -90.6994017 Eh     change       -0.3126069E-06 Eh
 * total energy  :   -90.6994020 Eh     change       -0.3374219E-06 Eh
 * total energy  :   -90.6994024 Eh     change       -0.4033667E-06 Eh
 * total energy  :   -90.6994029 Eh     change       -0.4650894E-06 Eh
 * total energy  :   -90.6994033 Eh     change       -0.4652064E-06 Eh
 * total energy  :   -90.6994034 Eh     change       -0.1142455E-07 Eh
   *** GEOMETRY OPTIMIZATION CONVERGED AFTER 68 ITERATIONS ***

 final structure:
================
53
 xtb: 6.7.1 (edcfbbe)
O            3.89165272128650        0.05650040802549        2.25734622807818
C            3.12740170280200        0.02603334481339        1.31748372040229
C            1.66154904381611        0.00835514220798        1.47620846944583
C            1.11448883951559        0.00240368276134        2.74205673864961
C           -0.27244417578343       -0.01417929392165        2.91248454823540
C           -1.10754137553433       -0.01486220077837        1.82563676009196
C           -0.58315380428173       -0.00124382413600        0.51673691004865
C           -1.40394532458324        0.00052322996581       -0.64331998759559
N           -2.81999463978796        0.00603923279024       -0.51588863319059
C           -3.44264978154242        1.22633747508152       -0.25308504932374
C           -2.67235174563440        2.37122515836444       -0.04517693525950
C           -3.25729290023253        3.59540451697195        0.22630864858699
C           -4.63200085299135        3.71057254532131        0.30499719072963
C           -5.41295229617933        2.58967752760348        0.08609504858725
C           -4.83168492664148        1.36582995464856       -0.20227876260562
S           -5.94079500282916        0.03260584347531       -0.56146961441141
C           -4.85262025258421       -1.36124566535482       -0.47208409759636
C           -5.44959339672936       -2.61029474514942       -0.42408633586267
C           -4.68210192070413       -3.76118684989778       -0.39898910960355
C           -3.30478910923375       -3.64958113959771       -0.40952245786434
C           -2.70485485324132       -2.40317543579849       -0.44005614321651
C           -3.46211448232011       -1.23162970099730       -0.47848559248940
C           -0.84330031800528       -0.00881545142339       -1.89879659847706
C            0.54365994276565       -0.01039005624619       -2.05827879697046
C            1.37277450962246       -0.00077921451593       -0.95671159744915
C            0.82363160387346        0.00277937630562        0.34239816758846
C            2.83466051843635       -0.00263883691347       -1.14738609568043
O            3.35613872023859       -0.02760535263705       -2.24100621331800
N            3.59963160206741        0.01559481477125        0.01121690910711
C            5.02510478278004        0.02318471228567       -0.15843650860883
C            5.77192500854608       -1.06035870217147        0.27473748069278
C            7.14580553123392       -1.04638264043856        0.11363076301893
C            7.76561740505507        0.03765977456837       -0.48418568595327
C            7.01166586566379        1.11441037509319       -0.91877943655553
C            5.63822125085483        1.11387431786333       -0.75335637498321
H            1.77885870907796        0.00903145435717        3.59296849293939
H           -0.68427102484262       -0.02533261503449        3.90998102407243
H           -2.17858935500109       -0.02633528367465        1.96251240539394
H           -1.59718847065522        2.30807227351960       -0.10632475149245
H           -2.62630657655600        4.45798065621658        0.37624333832305
H           -5.09622425895352        4.65935181788997        0.52214941889127
H           -6.48992873302907        2.65155061445959        0.12091089205832
H           -6.52752361881136       -2.66493464083630       -0.41984371129720
H           -5.15839040208292       -4.72832350876034       -0.37283649541835
H           -2.68404076718154       -4.53216660899572       -0.39041218831018
H           -1.62770215402859       -2.33950673889767       -0.44064265652711
H           -1.48762780477842       -0.01370522317077       -2.76498382499861
H            0.98641090163234       -0.01506765823365       -3.04263482126080
H            5.27969511206798       -1.90158326299471        0.73861638181399
H            7.73191558976484       -1.88700776124982        0.45344244526509
H            8.83786979406485        0.04332987814663       -0.61160040066919
H            7.49300118129415        1.96065340169446       -1.38551523111360
H            5.04229498830157        1.94934988262466       -1.08798887391270

          :  Hamiltonian                  GFN2-xTB          :
         :: gradient norm              0.000069245681 Eh/a0 ::
         :: HOMO-LUMO gap              0.690075608137 eV    ::
         :: SCC energy               -92.228878541678 Eh    ::
         :: -> dispersion             -0.078495626949 Eh    ::
         :: repulsion energy           1.529475184070 Eh    ::

    * Orbital Energies and Occupations

         #    Occupation            Energy/Eh            Energy/eV
      -------------------------------------------------------------
         1        2.0000           -0.7234860             -19.6871
       ...           ...                  ...                  ...
        71        2.0000           -0.4383833             -11.9290
        72        2.0000           -0.4347019             -11.8288
        73        2.0000           -0.4301889             -11.7060
        74        2.0000           -0.4248671             -11.5612
        75        2.0000           -0.4227176             -11.5027
        76        2.0000           -0.4192840             -11.4093
        77        2.0000           -0.4170355             -11.3481
        78        2.0000           -0.4157901             -11.3142
        79        2.0000           -0.4156761             -11.3111
        80        2.0000           -0.4101926             -11.1619
        81        2.0000           -0.4063117             -11.0563
        82        2.0000           -0.3887187             -10.5776
        83        2.0000           -0.3476607              -9.4603 (HOMO)
        84        0.0000           -0.3223009              -8.7703 (LUMO)
        85                         -0.2648824              -7.2078
        86                         -0.2619866              -7.1290
        87                         -0.2494754              -6.7886
        88                         -0.2392971              -6.5116
        89                         -0.2383861              -6.4868
        90                         -0.2329197              -6.3381
        91                         -0.2300510              -6.2600
        92                         -0.2299000              -6.2559
        93                         -0.2090535              -5.6886
        94                         -0.2025908              -5.5128
       ...                                ...                  ...
       163                          0.7212450              19.6261
      -------------------------------------------------------------
                  HL-Gap            0.0253599 Eh            0.6901 eV

     #   Z          covCN         q      C6AA      α(0)
     1   8 O        0.859    -0.398    21.631     6.236
     2   6 C        2.775     0.275    22.359     7.744
     3   6 C        2.976    -0.023    28.565     8.767
     4   6 C        2.922    -0.010    28.270     8.719
     5   6 C        2.915    -0.023    28.591     8.768
     6   6 C        2.917    -0.019    28.479     8.751
     7   6 C        2.984     0.008    27.843     8.656
     8   6 C        2.929     0.074    26.338     8.416
     9   7 N        2.750    -0.075    22.701     7.076
    10   6 C        2.942     0.059    26.675     8.471
    11   6 C        2.928    -0.058    29.445     8.899
    12   6 C        2.919    -0.033    28.830     8.805
    13   6 C        2.918    -0.038    28.951     8.823
    14   6 C        2.987    -0.039    28.967     8.829
    15   6 C        2.971     0.033    27.263     8.565
    16  16 S        2.134    -0.146   147.199    20.420
    17   6 C        2.971     0.033    27.255     8.563
    18   6 C        2.986    -0.039    28.966     8.829
    19   6 C        2.918    -0.038    28.945     8.822
    20   6 C        2.919    -0.033    28.827     8.805
    21   6 C        2.928    -0.058    29.438     8.898
    22   6 C        2.944     0.059    26.678     8.471
    23   6 C        2.917    -0.036    28.900     8.816
    24   6 C        2.921    -0.013    28.332     8.729
    25   6 C        2.975    -0.026    28.648     8.780
    26   6 C        2.994     0.009    27.800     8.649
    27   6 C        2.775     0.275    22.352     7.743
    28   8 O        0.859    -0.398    21.639     6.237
    29   7 N        2.746    -0.102    23.234     7.159
    30   6 C        2.938     0.086    26.092     8.377
    31   6 C        2.921    -0.026    28.640     8.776
    32   6 C        2.922    -0.024    28.608     8.771
    33   6 C        2.920    -0.027    28.675     8.781
    34   6 C        2.922    -0.024    28.608     8.771
    35   6 C        2.921    -0.026    28.641     8.776
    36   1 H        0.926     0.073     2.054     2.241
    37   1 H        0.926     0.052     2.300     2.371
    38   1 H        0.926     0.049     2.328     2.386
    39   1 H        0.926     0.027     2.623     2.533
    40   1 H        0.926     0.036     2.504     2.474
    41   1 H        0.926     0.039     2.469     2.457
    42   1 H        0.926     0.046     2.371     2.408
    43   1 H        0.926     0.046     2.370     2.407
    44   1 H        0.926     0.039     2.466     2.456
    45   1 H        0.926     0.036     2.499     2.472
    46   1 H        0.926     0.027     2.624     2.533
    47   1 H        0.926     0.058     2.224     2.332
    48   1 H        0.926     0.076     2.019     2.222
    49   1 H        0.926     0.045     2.383     2.414
    50   1 H        0.926     0.043     2.409     2.427
    51   1 H        0.926     0.041     2.431     2.438
    52   1 H        0.926     0.043     2.408     2.427
    53   1 H        0.926     0.045     2.383     2.414

molecular dipole:
                 x           y           z       tot (Debye)
 q only:       -0.582      -0.029       0.295
   full:       -0.558      -0.036       0.364       1.696

 projected vibrational frequencies (cm⁻¹)
eigval :       -0.00    -0.00     0.00     0.00     0.00     0.00
eigval :        8.96    17.04    18.71    28.73    35.87    43.64
eigval :       62.34    64.13   101.47   122.49   123.79   128.23
eigval :      142.54   178.82   184.41   201.82   226.93   234.88
eigval :      241.76   273.19   294.84   312.23   326.51   346.69
eigval :      373.22   374.75   386.64   398.20   406.64   407.60
eigval :      412.27   417.01   423.12   459.36   476.73   486.77
eigval :      490.53   493.71   501.18   517.25   545.90   548.25
eigval :      575.56   589.82   609.41   624.84   629.12   639.83
eigval :      647.58   650.55   658.53   677.69   685.58   689.51
eigval :      716.31   729.71   749.49   760.89   769.27   770.87
eigval :      778.50   805.61   834.73   847.64   851.87   859.24
eigval :      859.60   871.23   900.08   900.55   901.15   906.73
eigval :      909.96   915.41   915.82   921.71   924.97   930.00
eigval :      930.71   931.71   987.21  1023.09  1042.31  1049.90
eigval :     1080.53  1100.22  1104.19  1104.99  1117.67  1128.22
eigval :     1137.57  1152.99  1158.66  1176.47  1180.66  1181.04
eigval :     1185.22  1188.49  1193.05  1202.48  1228.54  1242.15
eigval :     1245.99  1246.50  1256.69  1279.10  1287.01  1298.85
eigval :     1314.62  1321.69  1321.75  1332.91  1338.30  1358.35
eigval :     1389.17  1408.56  1413.75  1421.09  1438.24  1449.91
eigval :     1465.20  1469.37  1477.68  1504.91  1550.25  1557.64
eigval :     1571.56  1575.79  1577.30  1592.29  1593.20  1594.58
eigval :     1596.08  1694.51  1707.43  3080.91  3085.37  3088.13
eigval :     3088.50  3089.01  3092.36  3093.39  3093.87  3095.29
eigval :     3097.34  3097.94  3100.73  3101.20  3102.80  3104.34
eigval :     3104.73  3108.21  3108.86

   temp. (K)  partition function   enthalpy   heat capacity  entropy
                                   cal/mol     cal/K/mol   cal/K/mol   J/K/mol
 298.15  VIB  0.120E+13            15457.128     98.398     95.174
         ROT  0.301E+08              888.752      2.981     37.199
         INT  0.359E+20            16345.881    101.379    132.373
         TR   0.988E+28             1481.254      4.968     44.314
         TOT                       17827.1347   106.3468   176.6873   739.2595

       T/K    H(0)-H(T)+PV         H(T)/Eh          T*S/Eh         G(T)/Eh
   ------------------------------------------------------------------------
    298.15    0.284093E-01    0.415834E+00    0.839498E-01    0.331884E+00
   ------------------------------------------------------------------------

         :::::::::::::::::::::::::::::::::::::::::::::::::::::
         ::                  THERMODYNAMIC                  ::
         :::::::::::::::::::::::::::::::::::::::::::::::::::::
         :: total free energy         -90.367519151261 Eh   ::
         ::.................................................::
         :: total energy              -90.699403357608 Eh   ::
         :: zero point energy           0.387424677957 Eh   ::
         :: G(RRHO) w/o ZPVE           -0.055540471610 Eh   ::
         :: G(RRHO) contrib.            0.331884206347 Eh   ::
         :::::::::::::::::::::::::::::::::::::::::::::::::::::

           -------------------------------------------------
          | TOTAL ENERGY              -90.699403357608 Eh   |
          | TOTAL ENTHALPY            -90.283569332127 Eh   |
          | TOTAL FREE ENERGY         -90.367519151261 Eh   |
          | GRADIENT NORM               0.000069195558 Eh/α |
          | HOMO-LUMO GAP               0.690076738755 eV   |
           -------------------------------------------------

 * finished run on 2025/07/20 at 09:18:59.142
