   * xtb version 6.7.1 (edcfbbe) compiled by 'albert@albert-system' on 2024-07-22

   ID    Z sym.   atoms
    1    8 O      1, 28
    2    6 C      2-8, 10-15, 17-27, 30-35
    3    7 N      9, 29
    4   16 S      16
    5    1 H      36-53

          program call               : xtb data2507/gas/PTZ-NAI/PTZ-NAI_gas_S0_finalOpt.xtbopt.xyz --gfn 2 --spinpol --tblite --uhf 2 --ohess vtight --parallel 40 --molden --ceasefiles --namespace data2507/gas/PTZ-NAI/PTZ-NAI_gas_T1_preOpt
 * total energy  :   -90.6301621 Eh     change       -0.1636563E-07 Eh
 * total energy  :   -90.6344250 Eh     change       -0.4262906E-02 Eh
 * total energy  :   -90.6354938 Eh     change       -0.1068727E-02 Eh
 * total energy  :   -90.6355782 Eh     change       -0.8443914E-04 Eh
 * total energy  :   -90.6356475 Eh     change       -0.6934755E-04 Eh
 * total energy  :   -90.6356853 Eh     change       -0.3771198E-04 Eh
 * total energy  :   -90.6357356 Eh     change       -0.5029268E-04 Eh
 * total energy  :   -90.6358100 Eh     change       -0.7440290E-04 Eh
 * total energy  :   -90.6358927 Eh     change       -0.8277454E-04 Eh
 * total energy  :   -90.6359504 Eh     change       -0.5771576E-04 Eh
 * total energy  :   -90.6371596 Eh     change       -0.1295903E-05 Eh
 * total energy  :   -90.6371608 Eh     change       -0.1250592E-05 Eh
 * total energy  :   -90.6371620 Eh     change       -0.1202286E-05 Eh
 * total energy  :   -90.6371631 Eh     change       -0.1134621E-05 Eh
 * total energy  :   -90.6371642 Eh     change       -0.1071424E-05 Eh
 * total energy  :   -90.6371652 Eh     change       -0.9957805E-06 Eh
 * total energy  :   -90.6371661 Eh     change       -0.9296704E-06 Eh
 * total energy  :   -90.6371670 Eh     change       -0.8609946E-06 Eh
 * total energy  :   -90.6371670 Eh     change       -0.5496787E-08 Eh
   *** GEOMETRY OPTIMIZATION CONVERGED AFTER 94 ITERATIONS ***

 final structure:
================
53
 xtb: 6.7.1 (edcfbbe)
O            4.19000394615034        0.44199357613836        2.23546549655562
C            3.37942589713336        0.25036414182594        1.33692571980739
C            1.94223661079495        0.26801886612569        1.54556727742084
C            1.43398941416175        0.47515895835420        2.84411002884263
C            0.07892844114498        0.47675631431557        3.05962244208664
C           -0.81300107364107        0.29558482037954        2.00098426344338
C           -0.34377727076203        0.10773466994208        0.69460202231477
C           -1.19427268540813       -0.11223834456574       -0.42081806807183
N           -2.60560775319775       -0.08288056605794       -0.26199109368225
C           -3.21039722436085        1.14058460509200       -0.03047412780589
C           -2.42579556357707        2.30384799336896        0.00712523438052
C           -2.97846466865735        3.53852134447133        0.26351642738987
C           -4.34448548283824        3.66901230509820        0.47908020225604
C           -5.14445479201099        2.54920651756900        0.40049539279605
C           -4.59307591895364        1.29853193389644        0.14158198144888
S           -5.73982842208466       -0.02404560589825       -0.01123595698238
C           -4.68135638234311       -1.39213812027671       -0.31680727643912
C           -5.30936576131635       -2.62330671141239       -0.46875809743369
C           -4.57108314329285       -3.77261214825632       -0.65709797276237
C           -3.18456321770054       -3.69136821730302       -0.65852606032703
C           -2.55543176103104       -2.47555021556644       -0.51013983951749
C           -3.28327336034629       -1.28292768678132       -0.36949568759108
C           -0.66905690562488       -0.37079497244181       -1.70210735065004
C            0.67984678713841       -0.37387310242966       -1.91156964692967
C            1.56828121845748       -0.14610438528678       -0.83072456514150
C            1.06243592826588        0.08397198867719        0.46385140735580
C            2.99395281530043       -0.17327296183853       -1.07504909234033
O            3.48529482995763       -0.38494618535625       -2.17918236886085
N            3.80905323487679        0.03268298133271        0.03399041771738
C            5.22136045752297        0.01093552193665       -0.18799564079508
C            6.00056294972077       -0.95499316821502        0.42955792055206
C            7.36717818863652       -0.96782901941301        0.21651178621176
C            7.95113982973852       -0.02913794118794       -0.61679655947283
C            7.16685126900310        0.92962485976184       -1.23523557978894
C            5.80095038838194        0.95663798072974       -1.01938674527362
H            2.13998625515410        0.62448069663458        3.64527217586422
H           -0.31280724533942        0.62836401996767        4.05448116388117
H           -1.87548100361517        0.30487019432372        2.19702909597295
H           -1.36674183618776        2.22520596537657       -0.17361459075114
H           -2.33974929216282        4.40722666490048        0.28964197622774
H           -4.77987387586341        4.63317435463924        0.68639632669501
H           -6.21323370565297        2.62076252873574        0.53274503618452
H           -6.38742967703641       -2.65741163038991       -0.43013835158120
H           -5.06728376550732       -4.72189028645857       -0.77873253464305
H           -2.58894979682020       -4.58394901256883       -0.76765448053190
H           -1.47880693537793       -2.43414054411835       -0.49192604587514
H           -1.35895265701527       -0.52534327492415       -2.51932538481282
H            1.10591175467929       -0.53778582306823       -2.88792646867120
H            5.53687602508333       -1.68367878412131        1.07685106707618
H            7.97652911391780       -1.71705970587133        0.70014806704145
H            9.01816278917339       -0.04476118861825       -0.78449010487770
H            7.61986040508795        1.66356540456915       -1.88540718983666
H            5.18214727355401        1.70097878257472       -1.49683297220539

 projected vibrational frequencies (cm⁻¹)
eigval :       -0.00    -0.00     0.00     0.00     0.00     0.00
eigval :       15.95    17.03    22.61    37.53    41.50    44.72
eigval :       65.99    68.64    98.64   127.54   128.18   138.63
eigval :      145.56   174.64   193.69   202.13   221.41   237.80
eigval :      244.36   271.14   298.76   303.21   335.84   345.72
eigval :      368.37   374.81   384.74   391.09   400.24   407.00
eigval :      418.60   422.43   433.55   461.69   472.94   477.72
eigval :      480.58   483.48   495.09   508.54   533.25   545.46
eigval :      558.94   588.56   595.03   607.90   629.14   636.37
eigval :      654.55   656.46   657.33   659.83   664.99   674.20
eigval :      703.13   718.11   727.40   756.32   759.08   770.52
eigval :      774.21   775.00   803.59   827.93   840.64   843.12
eigval :      866.08   866.56   868.90   889.68   897.19   902.65
eigval :      905.50   907.98   908.25   921.32   921.56   923.53
eigval :      927.91   929.28   984.43  1020.02  1045.93  1048.60
eigval :     1080.57  1093.33  1097.35  1098.13  1116.03  1119.09
eigval :     1127.93  1146.07  1150.12  1158.86  1172.71  1176.23
eigval :     1179.91  1182.03  1187.91  1192.01  1196.96  1211.95
eigval :     1234.53  1240.13  1254.06  1266.71  1279.43  1286.25
eigval :     1295.23  1322.11  1324.53  1329.37  1335.79  1363.51
eigval :     1368.85  1390.73  1396.65  1408.78  1410.46  1425.62
eigval :     1431.94  1439.29  1451.59  1470.31  1476.40  1494.92
eigval :     1532.18  1538.05  1555.10  1557.91  1564.62  1577.62
eigval :     1591.54  1592.48  1613.96  3070.72  3074.53  3075.20
eigval :     3080.27  3085.69  3089.11  3095.12  3095.74  3097.77
eigval :     3099.50  3101.49  3101.97  3111.28  3112.89  3113.19
eigval :     3114.18  3120.64  3124.40

   temp. (K)  partition function   enthalpy   heat capacity  entropy
                                   cal/mol     cal/K/mol   cal/K/mol   J/K/mol
 298.15  VIB  0.332E+12            15503.558     99.845     94.523
         ROT  0.302E+08              888.752      2.981     37.210
         INT  0.101E+20            16392.310    102.826    131.733
         TR   0.988E+28             1481.254      4.968     44.314
         TOT                       17873.5642   107.7939   176.0476   736.5833

       T/K    H(0)-H(T)+PV         H(T)/Eh          T*S/Eh         G(T)/Eh
   ------------------------------------------------------------------------
    298.15    0.284833E-01    0.412879E+00    0.836459E-01    0.329233E+00
   ------------------------------------------------------------------------

         :::::::::::::::::::::::::::::::::::::::::::::::::::::
         ::                  THERMODYNAMIC                  ::
         :::::::::::::::::::::::::::::::::::::::::::::::::::::
         :: total free energy         -90.307934316887 Eh   ::
         ::.................................................::
         :: total energy              -90.637167010868 Eh   ::
         :: zero point energy           0.384395266475 Eh   ::
         :: G(RRHO) w/o ZPVE           -0.055162572494 Eh   ::
         :: G(RRHO) contrib.            0.329232693980 Eh   ::
         :::::::::::::::::::::::::::::::::::::::::::::::::::::

           -------------------------------------------------
          | TOTAL ENERGY              -90.637167010868 Eh   |
          | TOTAL ENTHALPY            -90.224288406737 Eh   |
          | TOTAL FREE ENERGY         -90.307934316887 Eh   |
          | GRADIENT NORM               0.000059020319 Eh/α |
           -------------------------------------------------

 * finished run on 2025/07/20 at 09:21:17.204
