   * xtb version 6.7.1 (edcfbbe) compiled by 'albert@albert-system' on 2024-07-22

   ID    Z sym.   atoms
    1    6 C      1, 3-19, 21-26, 28-32, 34-37, 39-47, 49, 50
    2    8 O      2, 20, 33
    3    7 N      27, 48
    4   16 S      38
    5    1 H      51-80

          program call               : xtb data2507/gas/MCZ-P2-DTM/MCZ-P2-DTM.xyz --gfn 2 --ohess vtight --parallel 40 --molden --ceasefiles --namespace data2507/gas/MCZ-P2-DTM/MCZ-P2-DTM_gas_S0_preOpt
          :  Hamiltonian                  GFN2-xTB          :
 * total energy  :  -130.8326913 Eh     change       -0.2411724E-08 Eh
 * total energy  :  -130.8495814 Eh     change       -0.1689010E-01 Eh
 * total energy  :  -130.8541956 Eh     change       -0.4614119E-02 Eh
 * total energy  :  -130.8554632 Eh     change       -0.1267633E-02 Eh
 * total energy  :  -130.8563591 Eh     change       -0.8958911E-03 Eh
 * total energy  :  -130.8566329 Eh     change       -0.2738425E-03 Eh
 * total energy  :  -130.8568079 Eh     change       -0.1749606E-03 Eh
 * total energy  :  -130.8569724 Eh     change       -0.1644881E-03 Eh
 * total energy  :  -130.8571297 Eh     change       -0.1573497E-03 Eh
 * total energy  :  -130.8572947 Eh     change       -0.1649911E-03 Eh
 * total energy  :  -130.8584184 Eh     change       -0.4155360E-06 Eh
 * total energy  :  -130.8584188 Eh     change       -0.3843626E-06 Eh
 * total energy  :  -130.8584191 Eh     change       -0.3490012E-06 Eh
 * total energy  :  -130.8584194 Eh     change       -0.3019217E-06 Eh
 * total energy  :  -130.8584197 Eh     change       -0.2537613E-06 Eh
 * total energy  :  -130.8584199 Eh     change       -0.2144499E-06 Eh
 * total energy  :  -130.8584201 Eh     change       -0.2015818E-06 Eh
 * total energy  :  -130.8584203 Eh     change       -0.2279364E-06 Eh
 * total energy  :  -130.8584203 Eh     change       -0.1467043E-08 Eh
   *** GEOMETRY OPTIMIZATION CONVERGED AFTER 68 ITERATIONS ***

 final structure:
================
80
 xtb: 6.7.1 (edcfbbe)
C           -7.74264307816840        7.14137653060749        0.83719794729781
O           -7.40014450971766        5.95248153119333        1.50510225842124
C           -6.32735878799774        5.24029756882855        1.05768792593100
C           -5.52688057047139        5.59286223385343       -0.02270539854419
C           -4.46005603735824        4.78928467591706       -0.38394688834583
C           -4.16508163911412        3.61981503194814        0.30754640215132
C           -3.03589883623915        2.76788712750520       -0.09146534615955
C           -1.82085499339292        3.34349615633507       -0.48432789319015
C           -0.73638844033788        2.58283239271739       -0.87481612880848
C           -0.87725638947945        1.20469755954835       -0.87823316863590
C           -2.08870037921856        0.60457219441022       -0.47835441063265
C           -3.16396317551612        1.38398655460530       -0.08464709549949
C           -1.90376407054194       -0.81809509217033       -0.59234391379525
C           -2.75207297206363       -1.89172486500045       -0.38171520904639
C           -2.29903323516226       -3.17927238659017       -0.64546608430402
C           -3.17346026130801       -4.33818959146422       -0.41920292883863
C           -3.99285514619058       -4.40199020433464        0.70231986575755
C           -4.81829532792732       -5.48777874362438        0.93394932270298
C           -4.84558628937592       -6.54396505614225        0.03045951420551
O           -5.61674031906323       -7.66070646782073        0.15224213852371
C           -6.46594935928149       -7.77268973575377        1.26732890523164
C           -4.03040731731171       -6.48681194074237       -1.10142324499097
C           -3.20793763307098       -5.40457794773039       -1.31833365928788
C           -1.00496202630579       -3.35772825981068       -1.14770652691026
C           -0.14229922104770       -2.29897380340672       -1.35700967448734
C           -0.58113300545384       -1.02061230539595       -1.04475848985853
N            0.04845209387295        0.21120065820500       -1.18720982955041
C            1.36861113728450        0.43466305275815       -1.52279554702714
C            2.38451740426737       -0.45225138877375       -1.13616107947288
C            3.67907043643455       -0.18244551220946       -1.52167102367164
C            3.94953681309556        0.97031892889186       -2.26474099956583
C            5.29831090397296        1.32786754387975       -2.75981929906319
O            5.44929493361728        1.93194286824063       -3.80408556279157
C            6.45301774205521        0.91421297529060       -1.92429637904763
C            7.66649341852237        0.63739340236072       -2.56813651519962
C            8.78189733904072        0.25990760958188       -1.85367438580116
C            8.68541943074591        0.17638533060686       -0.47210665914980
S            9.97149803581268       -0.27472466848701        0.61738400308586
C            8.91195158247292       -0.06676138267825        1.99690857191777
C            9.25942516248674       -0.26603967084402        3.32258679456672
C            8.29720792036099       -0.05876435367651        4.29216597062239
C            7.01013490236306        0.33988263236944        3.94381568728650
C            6.66567112122280        0.53782067342282        2.62251287733152
C            7.61819316692583        0.33693939027968        1.62757834587397
C            7.48540465879443        0.47626890085592        0.19973160471042
C            6.36918372755639        0.84567280107335       -0.53957845706622
C            2.86778379800702        1.79853352828972       -2.56695451449180
N            1.62967298304958        1.54815319114440       -2.20587668982678
C           -4.97692734670059        3.27464616968394        1.38862042117721
C           -6.03665948050878        4.07026010718143        1.76127707341959
H           -8.61442081664020        7.53265904160770        1.35944958583722
H           -8.00323859014279        6.95453742349972       -0.20985283719593
H           -6.93338334160389        7.87757021219723        0.88427705042722
H           -5.72438201650583        6.48696228295435       -0.59331284433371
H           -3.86003036411614        5.06925710790742       -1.23737468751326
H           -1.72499930120889        4.41886166209539       -0.46440626425990
H            0.18822176913230        3.04464747133234       -1.17911580302300
H           -4.09612791905341        0.92091182968557        0.20107620197053
H           -3.76499211193718       -1.72536689221805       -0.04835181056688
H           -3.97179222938100       -3.59767069110564        1.42326446811033
H           -5.43100880572715       -5.49879559558223        1.82192421469754
H           -7.20582486314671       -6.96588335252571        1.29287316292659
H           -5.90079695625480       -7.77730345408619        2.20529386246135
H           -6.97884449782227       -8.72642017505203        1.15298625011975
H           -4.06553007487733       -7.30931448671043       -1.79842727597586
H           -2.59920126970179       -5.37174979434979       -2.20964142478049
H           -0.66407252501317       -4.35842914893817       -1.36726729866123
H            0.83377665492567       -2.47975792033344       -1.77937610355119
H            2.15939572284378       -1.31019811826521       -0.52438424588214
H            4.47619588601105       -0.86397571335881       -1.26022529895930
H            7.70438559958845        0.72218494487155       -3.64347224282754
H            9.71364055895181        0.03739395358228       -2.34960520572038
H           10.25915662968418       -0.57582096389198        3.58406632327512
H            8.54767095952900       -0.20834919167619        5.33142481610461
H            6.27398393724408        0.49566069592026        4.71798625240676
H            5.66638006935049        0.84731200638593        2.35557943561721
H            5.45257292941024        1.10500959769964       -0.03093047603226
H            3.02612480640304        2.71246882014382       -3.12395716309308
H           -4.75854147114305        2.38168962082586        1.95546184646550
H           -6.66175723244497        3.81035388248886        2.60118588479565

          :  Hamiltonian                  GFN2-xTB          :
         :: gradient norm              0.000029579417 Eh/a0 ::
         :: HOMO-LUMO gap              1.841684490064 eV    ::
         :: SCC energy              -133.066711821620 Eh    ::
         :: -> dispersion             -0.105772498351 Eh    ::
         :: repulsion energy           2.208291499670 Eh    ::

    * Orbital Energies and Occupations

         #    Occupation            Energy/Eh            Energy/eV
      -------------------------------------------------------------
         1        2.0000           -0.7358514             -20.0235
       ...           ...                  ...                  ...
       108        2.0000           -0.4175286             -11.3615
       109        2.0000           -0.4135199             -11.2524
       110        2.0000           -0.4076492             -11.0927
       111        2.0000           -0.4051323             -11.0242
       112        2.0000           -0.4031290             -10.9697
       113        2.0000           -0.4017882             -10.9332
       114        2.0000           -0.3992156             -10.8632
       115        2.0000           -0.3851358             -10.4801
       116        2.0000           -0.3848102             -10.4712
       117        2.0000           -0.3834664             -10.4347
       118        2.0000           -0.3781476             -10.2899
       119        2.0000           -0.3704673             -10.0809
       120        2.0000           -0.3601274              -9.7996 (HOMO)
       121                         -0.2924468              -7.9579 (LUMO)
       122                         -0.2683624              -7.3025
       123                         -0.2599286              -7.0730
       124                         -0.2521703              -6.8619
       125                         -0.2453684              -6.6768
       126                         -0.2412915              -6.5659
       127                         -0.2396657              -6.5216
       128                         -0.2274441              -6.1891
       129                         -0.2225827              -6.0568
       130                         -0.2205300              -6.0009
       131                         -0.2152918              -5.8584
       ...                                ...                  ...
       235                          0.7461164              20.3029
      -------------------------------------------------------------
                  HL-Gap            0.0676807 Eh            1.8417 eV

     #   Z          covCN         q      C6AA      α(0)
     1   6 C        3.644     0.039    20.250     6.468
     2   8 O        1.705    -0.271    18.502     5.807
     3   6 C        2.866     0.141    24.917     8.182
     4   6 C        2.916    -0.067    29.671     8.932
     5   6 C        2.926    -0.036    28.902     8.816
     6   6 C        2.976    -0.001    28.037     8.685
     7   6 C        2.976     0.004    27.920     8.667
     8   6 C        2.930    -0.037    28.918     8.819
     9   6 C        2.909    -0.046    29.140     8.852
    10   6 C        3.066     0.050    26.820     8.492
    11   6 C        3.062    -0.014    28.295     8.723
    12   6 C        2.919    -0.039    28.959     8.825
    13   6 C        3.063    -0.012    28.254     8.716
    14   6 C        2.919    -0.038    28.945     8.822
    15   6 C        2.976     0.004    27.922     8.668
    16   6 C        2.976    -0.001    28.046     8.687
    17   6 C        2.927    -0.036    28.901     8.816
    18   6 C        2.916    -0.067    29.674     8.933
    19   6 C        2.866     0.142    24.906     8.181
    20   8 O        1.705    -0.271    18.486     5.805
    21   6 C        3.644     0.039    20.254     6.469
    22   6 C        2.919    -0.055    29.366     8.886
    23   6 C        2.925    -0.034    28.858     8.810
    24   6 C        2.928    -0.039    28.960     8.825
    25   6 C        2.909    -0.050    29.252     8.869
    26   6 C        3.060     0.043    26.973     8.517
    27   7 N        2.803    -0.034    21.895     6.950
    28   6 C        2.899     0.153    24.684     8.146
    29   6 C        2.915    -0.059    29.455     8.900
    30   6 C        2.928    -0.013    28.329     8.729
    31   6 C        2.966    -0.032    28.786     8.800
    32   6 C        2.828     0.224    23.296     7.909
    33   8 O        0.858    -0.372    21.125     6.162
    34   6 C        2.971    -0.017    28.435     8.747
    35   6 C        2.928    -0.021    28.520     8.758
    36   6 C        2.934    -0.037    28.918     8.819
    37   6 C        3.003     0.042    27.052     8.532
    38  16 S        2.213    -0.073   144.098    20.204
    39   6 C        3.004     0.039    27.117     8.542
    40   6 C        2.935    -0.037    28.924     8.820
    41   6 C        2.924    -0.029    28.713     8.787
    42   6 C        2.919    -0.033    28.822     8.804
    43   6 C        2.917    -0.031    28.770     8.796
    44   6 C        3.104    -0.003    27.958     8.664
    45   6 C        3.105    -0.002    27.940     8.661
    46   6 C        2.919    -0.031    28.767     8.795
    47   6 C        2.910     0.072    26.384     8.423
    48   7 N        1.844    -0.236    27.032     7.705
    49   6 C        2.925    -0.035    28.865     8.811
    50   6 C        2.919    -0.055    29.375     8.888
    51   1 H        0.925     0.060     2.196     2.317
    52   1 H        0.924     0.039     2.459     2.452
    53   1 H        0.924     0.039     2.461     2.453
    54   1 H        0.926     0.033     2.542     2.493
    55   1 H        0.926     0.036     2.505     2.475
    56   1 H        0.926     0.037     2.491     2.468
    57   1 H        0.926     0.053     2.285     2.364
    58   1 H        0.926     0.036     2.500     2.473
    59   1 H        0.926     0.037     2.484     2.465
    60   1 H        0.926     0.034     2.525     2.485
    61   1 H        0.926     0.033     2.541     2.493
    62   1 H        0.924     0.040     2.455     2.450
    63   1 H        0.924     0.039     2.460     2.453
    64   1 H        0.925     0.061     2.189     2.314
    65   1 H        0.926     0.047     2.360     2.402
    66   1 H        0.926     0.038     2.480     2.462
    67   1 H        0.926     0.036     2.505     2.475
    68   1 H        0.926     0.031     2.575     2.510
    69   1 H        0.926     0.047     2.352     2.398
    70   1 H        0.926     0.041     2.439     2.442
    71   1 H        0.926     0.061     2.181     2.310
    72   1 H        0.926     0.049     2.336     2.390
    73   1 H        0.926     0.043     2.403     2.424
    74   1 H        0.926     0.040     2.445     2.445
    75   1 H        0.926     0.038     2.478     2.462
    76   1 H        0.926     0.037     2.494     2.470
    77   1 H        0.926     0.039     2.456     2.451
    78   1 H        0.925     0.062     2.177     2.308
    79   1 H        0.926     0.037     2.494     2.470
    80   1 H        0.926     0.046     2.373     2.409

molecular dipole:
                 x           y           z       tot (Debye)
 q only:       -0.652      -0.416       1.579
   full:       -0.524      -0.502       1.796       4.924

 projected vibrational frequencies (cm⁻¹)
eigval :       -0.00    -0.00     0.00     0.00     0.00     0.00
eigval :        6.76     9.25    15.90    23.20    24.60    28.49
eigval :       34.37    35.46    46.34    57.46    62.23    69.49
eigval :       85.37    87.47    98.76   103.90   114.96   118.28
eigval :      120.38   130.84   139.60   152.85   171.91   187.23
eigval :      193.46   202.61   216.18   229.10   232.72   238.60
eigval :      244.60   254.42   264.11   269.94   277.17   281.92
eigval :      300.68   309.54   347.45   378.37   380.09   382.17
eigval :      383.50   388.70   392.65   394.24   396.96   406.96
eigval :      414.88   422.19   429.57   433.12   440.07   446.51
eigval :      458.74   472.52   483.40   488.16   491.89   506.92
eigval :      517.10   525.59   539.75   545.83   571.79   575.02
eigval :      584.60   589.36   601.52   608.02   611.43   615.10
eigval :      624.96   634.31   652.24   673.56   677.31   687.78
eigval :      692.97   694.27   696.39   700.99   702.40   709.88
eigval :      713.85   736.67   743.06   774.64   789.24   802.00
eigval :      802.91   816.39   819.49   824.51   829.90   833.49
eigval :      842.47   861.02   861.83   872.36   875.44   876.27
eigval :      879.84   882.90   901.26   903.72   905.89   907.44
eigval :      909.62   914.40   914.69   915.97   922.71   923.37
eigval :      923.97   928.99   940.30   958.31   990.47  1001.52
eigval :     1002.57  1031.48  1032.64  1048.39  1065.64  1065.77
eigval :     1075.51  1076.72  1078.46  1096.47  1122.75  1122.82
eigval :     1130.61  1130.65  1134.33  1151.90  1155.77  1158.12
eigval :     1159.50  1161.27  1162.05  1171.59  1182.29  1192.85
eigval :     1193.39  1199.63  1218.40  1222.01  1224.63  1227.34
eigval :     1236.36  1243.12  1246.51  1252.42  1256.13  1273.42
eigval :     1274.30  1278.85  1291.81  1295.33  1307.29  1310.90
eigval :     1330.83  1332.43  1338.49  1341.18  1345.48  1353.00
eigval :     1373.56  1397.14  1400.31  1402.10  1402.71  1405.12
eigval :     1412.07  1412.46  1417.92  1430.70  1435.56  1455.56
eigval :     1463.31  1467.91  1471.96  1472.74  1472.88  1485.08
eigval :     1485.18  1500.75  1503.02  1533.26  1544.82  1563.69
eigval :     1564.25  1568.30  1571.58  1572.99  1577.74  1579.12
eigval :     1586.36  1595.24  1602.50  1607.47  1614.03  1687.22
eigval :     2928.59  2928.73  2943.14  2943.21  3026.22  3026.89
eigval :     3067.97  3072.50  3078.59  3080.27  3081.72  3082.82
eigval :     3083.52  3085.27  3086.90  3088.13  3088.68  3090.52
eigval :     3094.00  3095.84  3096.58  3098.09  3099.76  3100.09
eigval :     3104.03  3104.28  3105.58  3105.61  3111.78  3117.54

   temp. (K)  partition function   enthalpy   heat capacity  entropy
                                   cal/mol     cal/K/mol   cal/K/mol   J/K/mol
 298.15  VIB  0.350E+20            24304.435    149.917    152.306
         ROT  0.193E+09              888.752      2.981     40.896
         INT  0.677E+28            25193.187    152.898    193.201
         TR   0.167E+29             1481.254      4.968     45.353
         TOT                       26674.4414   157.8662   238.5542   998.1108

       T/K    H(0)-H(T)+PV         H(T)/Eh          T*S/Eh         G(T)/Eh
   ------------------------------------------------------------------------
    298.15    0.425084E-01    0.645013E+00    0.113345E+00    0.531669E+00
   ------------------------------------------------------------------------

         :::::::::::::::::::::::::::::::::::::::::::::::::::::
         ::                  THERMODYNAMIC                  ::
         :::::::::::::::::::::::::::::::::::::::::::::::::::::
         :: total free energy        -130.326751652200 Eh   ::
         ::.................................................::
         :: total energy             -130.858420321950 Eh   ::
         :: zero point energy           0.602505047743 Eh   ::
         :: G(RRHO) w/o ZPVE           -0.070836377993 Eh   ::
         :: G(RRHO) contrib.            0.531668669750 Eh   ::
         :::::::::::::::::::::::::::::::::::::::::::::::::::::

           -------------------------------------------------
          | TOTAL ENERGY             -130.858420321950 Eh   |
          | TOTAL ENTHALPY           -130.213406846057 Eh   |
          | TOTAL FREE ENERGY        -130.326751652200 Eh   |
          | GRADIENT NORM               0.000029569530 Eh/α |
          | HOMO-LUMO GAP               1.841684955255 eV   |
           -------------------------------------------------

 * finished run on 2025/08/24 at 06:36:12.280
