   * xtb version 6.7.1 (edcfbbe) compiled by 'albert@albert-system' on 2024-07-22

   ID    Z sym.   atoms
    1    6 C      1, 3-19, 21-26, 28-32, 34-37, 39-47, 49, 50
    2    8 O      2, 20, 33
    3    7 N      27, 48
    4   16 S      38
    5    1 H      51-80

          program call               : xtb data2507/gas/MCZ-P2-DTM/MCZ-P2-DTM_gas_S0_finalOpt.xtbopt.xyz --gfn 2 --spinpol --tblite --uhf 2 --ohess vtight --parallel 40 --molden --ceasefiles --namespace data2507/gas/MCZ-P2-DTM/MCZ-P2-DTM_gas_T1_preOpt
 * total energy  :  -130.7744863 Eh     change        0.2541512E-07 Eh
 * total energy  :  -130.7776656 Eh     change       -0.3179234E-02 Eh
 * total energy  :  -130.7785560 Eh     change       -0.8904770E-03 Eh
 * total energy  :  -130.7786891 Eh     change       -0.1330612E-03 Eh
 * total energy  :  -130.7787893 Eh     change       -0.1001790E-03 Eh
 * total energy  :  -130.7788559 Eh     change       -0.6660409E-04 Eh
 * total energy  :  -130.7789268 Eh     change       -0.7091843E-04 Eh
 * total energy  :  -130.7789781 Eh     change       -0.5132583E-04 Eh
 * total energy  :  -130.7790159 Eh     change       -0.3778434E-04 Eh
 * total energy  :  -130.7790536 Eh     change       -0.3763652E-04 Eh
 * total energy  :  -130.7799136 Eh     change       -0.8683360E-06 Eh
 * total energy  :  -130.7799145 Eh     change       -0.8386067E-06 Eh
 * total energy  :  -130.7799154 Eh     change       -0.8799002E-06 Eh
 * total energy  :  -130.7799162 Eh     change       -0.8218726E-06 Eh
 * total energy  :  -130.7799167 Eh     change       -0.4825378E-06 Eh
 * total energy  :  -130.7799175 Eh     change       -0.8023952E-06 Eh
 * total energy  :  -130.7799183 Eh     change       -0.8616247E-06 Eh
 * total energy  :  -130.7799192 Eh     change       -0.8626281E-06 Eh
 * total energy  :  -130.7799192 Eh     change       -0.1467902E-07 Eh
   *** GEOMETRY OPTIMIZATION CONVERGED AFTER 221 ITERATIONS ***

 final structure:
================
80
 xtb: 6.7.1 (edcfbbe)
C           -3.77919307696604        9.10507121759587       -0.90755399371637
O           -2.70897053614850        8.56012615667858       -0.17446071915999
C           -2.50897110490935        7.21685386331195       -0.21058026316301
C           -3.28278403679469        6.30965339092530       -0.92849509916220
C           -2.98494194491514        4.96082463049149       -0.88446392999343
C           -1.91135331585296        4.47490840516748       -0.14151225163348
C           -1.60230350128730        3.04340529925441       -0.11077072242088
C           -0.26725511567897        2.60839565932073       -0.09620560514484
C            0.06944169681636        1.27208439518707       -0.06827440414916
C           -0.96020573779911        0.33970761223308       -0.05523864783449
C           -2.31358511016782        0.75581673452847       -0.05853334713187
C           -2.63031501281056        2.10068091329331       -0.09259761343418
C           -3.10668710456120       -0.44470918438210       -0.03485503750936
C           -4.46913270317185       -0.67519911832207       -0.03437329179855
C           -4.94023636720692       -1.98760652146218       -0.03781339209766
C           -6.37889624963334       -2.25918931496694        0.00186596126715
C           -7.28762529948210       -1.44990994049179       -0.68573689875424
C           -8.63855697523030       -1.70223142689083       -0.63709212888276
C           -9.13639556935117       -2.77125943385609        0.11328922578079
O          -10.48617231169253       -2.92623728997284        0.10266748061473
C          -11.05142108077433       -3.98385321350075        0.83888624924181
C           -8.24145107299865       -3.58337731275862        0.80366323980494
C           -6.88493244151026       -3.32728708313531        0.73915976734405
C           -4.01986142102659       -3.04643547410196       -0.08652716683744
C           -2.65705163407495       -2.83721146230291       -0.09348378986048
C           -2.19203212650367       -1.52825068892772       -0.02916697812741
N           -0.90278500614434       -1.03832825457129       -0.01680660354686
C            0.26908642608614       -1.78046334547600        0.09915767590786
C            0.34639648249218       -2.93012321040072        0.90530861528962
C            1.54357348376694       -3.58784009179237        0.99512228117556
C            2.69095260379631       -3.09171125262930        0.32243407820567
C            3.94294047916046       -3.80022806335349        0.39924138894250
O            3.95896798268672       -5.01477684465053        0.73557849845424
C            5.19723445006553       -3.09797274013814        0.11964989375163
C            6.29312279327746       -3.85131802090502       -0.34289698145927
C            7.51220289208491       -3.26342361034952       -0.58649059709811
C            7.65586914940467       -1.90308065867991       -0.34888397082009
S            9.11385955537103       -0.96300815585244       -0.57631053352193
C            8.30632515220882        0.47833323245754        0.00331212215147
C            8.87749254046904        1.73437708740319        0.12264484615103
C            8.09631874949353        2.77037136847614        0.59861878622786
C            6.76710377670159        2.55530054225930        0.94787003734621
C            6.19973527582731        1.30217984708056        0.82861865089944
C            6.96645894575187        0.24282605744097        0.35497233714256
C            6.58887558290276       -1.13384155019142        0.15080247463866
C            5.36599129414327       -1.73952070580029        0.39271580751609
C            2.49244914255838       -1.93266791049937       -0.46497846356715
N            1.34146672338171       -1.33169509643632       -0.56201351286252
C           -1.13922421674011        5.39638364161178        0.57170401288349
C           -1.43331522228324        6.73933215508721        0.54359940133805
H           -3.66947480800243        8.91550756059411       -1.98017697459846
H           -3.74376349922951       10.17821190407760       -0.72708038196328
H           -4.74209807373571        8.71273354939722       -0.56497895800267
H           -4.11570928565667        6.64239476415305       -1.52794124303617
H           -3.58428743000831        4.27542356374519       -1.46534558562233
H            0.51966063022405        3.34624245433075       -0.13300596925690
H            1.09914245771054        0.95357690334147       -0.07396405700145
H           -3.66210401184425        2.41717252709033       -0.07786243041600
H           -5.15999396877656        0.15340974348749       -0.00636694838498
H           -6.92353990932350       -0.63018132022997       -1.28665254212463
H           -9.34150994265450       -1.08571989282149       -1.17487108804292
H          -10.70099753518073       -4.95657032038802        0.47923015497770
H          -12.12650776025478       -3.90942526623573        0.68361944955971
H          -10.83367312616794       -3.89076203609303        1.90775119268192
H           -8.58931947866748       -4.41408995651873        1.39745789284784
H           -6.20832347720496       -3.95619638670239        1.29861448690020
H           -4.39341020780127       -4.05707265111806       -0.15180007799319
H           -1.97849301707473       -3.67175917659674       -0.17449219346843
H           -0.51118476247169       -3.25083422023180        1.47560407103561
H            1.64282508976202       -4.47366073015823        1.60243859245199
H            6.15035317330920       -4.90756998290380       -0.51071333751121
H            8.34502460147838       -3.84383441714648       -0.95243770333690
H            9.90921590594624        1.89245039916640       -0.15065741570878
H            8.52351697364769        3.75672978906692        0.69981117090630
H            6.17397534564621        3.37888639798369        1.31665191308156
H            5.16777150338495        1.13839697027195        1.10066680684483
H            4.56383724512383       -1.16299972430954        0.82708935020498
H            3.28685903000386       -1.52621795014323       -1.07473664717071
H           -0.31576821805887        5.04758378070389        1.17637089523930
H           -0.84568780039818        7.45136476642226        1.10132847250673

 projected vibrational frequencies (cm⁻¹)
eigval :       -0.00    -0.00    -0.00    -0.00     0.00     0.00
eigval :        6.83    10.14    14.01    23.73    25.19    29.02
eigval :       33.22    36.43    46.85    60.57    62.09    64.83
eigval :       87.00    98.20    99.47   105.64   113.70   119.83
eigval :      121.27   135.05   140.59   158.90   169.49   191.41
eigval :      194.92   200.45   219.68   229.35   234.04   236.90
eigval :      242.49   254.66   261.09   263.37   277.99   286.70
eigval :      289.97   314.59   344.07   365.31   373.46   379.50
eigval :      381.05   382.89   388.50   393.87   397.90   400.99
eigval :      410.42   413.29   421.69   424.47   436.73   441.37
eigval :      452.40   466.70   469.53   482.96   491.86   498.64
eigval :      504.97   511.00   518.85   537.84   559.02   571.46
eigval :      575.41   586.87   591.10   598.89   600.84   609.19
eigval :      609.66   619.97   631.02   651.50   654.17   669.50
eigval :      674.99   687.35   688.35   693.94   698.85   700.66
eigval :      706.14   709.91   730.67   772.64   789.37   800.15
eigval :      802.97   804.37   807.12   816.39   817.70   826.86
eigval :      830.76   851.22   857.02   857.98   869.10   870.14
eigval :      872.60   875.89   893.50   900.06   904.70   905.09
eigval :      905.44   906.91   908.38   909.58   912.76   921.50
eigval :      921.69   923.09   923.86   939.94   987.90   988.99
eigval :      996.07   999.74  1028.12  1044.26  1063.49  1063.74
eigval :     1069.01  1071.06  1076.36  1092.72  1120.82  1120.86
eigval :     1126.40  1130.38  1131.40  1138.59  1147.01  1152.13
eigval :     1155.05  1158.39  1158.86  1167.77  1181.67  1188.61
eigval :     1188.84  1194.88  1209.66  1218.76  1220.91  1226.56
eigval :     1237.23  1238.56  1245.23  1247.76  1255.56  1271.92
eigval :     1273.83  1277.47  1283.58  1292.30  1299.91  1301.89
eigval :     1329.20  1330.70  1335.15  1338.61  1339.39  1347.61
eigval :     1357.55  1368.31  1393.63  1399.02  1401.08  1401.35
eigval :     1406.63  1409.72  1414.40  1417.45  1422.11  1427.84
eigval :     1433.23  1439.06  1451.73  1464.54  1468.44  1471.05
eigval :     1471.06  1481.70  1482.18  1494.11  1496.53  1514.90
eigval :     1532.25  1546.94  1554.13  1556.21  1559.83  1560.89
eigval :     1562.52  1569.81  1581.97  1584.41  1598.43  1603.93
eigval :     2933.26  2933.51  2946.94  2947.21  3029.17  3029.21
eigval :     3065.35  3079.30  3082.60  3083.33  3085.56  3087.05
eigval :     3088.36  3089.67  3090.19  3091.20  3091.92  3092.17
eigval :     3093.79  3094.09  3094.86  3101.09  3102.10  3102.35
eigval :     3103.09  3105.59  3106.44  3107.05  3107.72  3111.86

   temp. (K)  partition function   enthalpy   heat capacity  entropy
                                   cal/mol     cal/K/mol   cal/K/mol   J/K/mol
 298.15  VIB  0.348E+20            24505.782    151.589    153.084
         ROT  0.181E+09              888.752      2.981     40.763
         INT  0.629E+28            25394.534    154.570    193.847
         TR   0.167E+29             1481.254      4.968     45.353
         TOT                       26875.7881   159.5377   239.1998  1000.8121

       T/K    H(0)-H(T)+PV         H(T)/Eh          T*S/Eh         G(T)/Eh
   ------------------------------------------------------------------------
    298.15    0.428293E-01    0.641778E+00    0.113652E+00    0.528126E+00
   ------------------------------------------------------------------------

         :::::::::::::::::::::::::::::::::::::::::::::::::::::
         ::                  THERMODYNAMIC                  ::
         :::::::::::::::::::::::::::::::::::::::::::::::::::::
         :: total free energy        -130.251793032083 Eh   ::
         ::.................................................::
         :: total energy             -130.779919209366 Eh   ::
         :: zero point energy           0.598948441355 Eh   ::
         :: G(RRHO) w/o ZPVE           -0.070822264071 Eh   ::
         :: G(RRHO) contrib.            0.528126177284 Eh   ::
         :::::::::::::::::::::::::::::::::::::::::::::::::::::

           -------------------------------------------------
          | TOTAL ENERGY             -130.779919209366 Eh   |
          | TOTAL ENTHALPY           -130.138141473493 Eh   |
          | TOTAL FREE ENERGY        -130.251793032083 Eh   |
          | GRADIENT NORM               0.000074739176 Eh/α |
           -------------------------------------------------

 * finished run on 2025/08/24 at 06:44:11.624
