   * xtb version 6.7.1 (edcfbbe) compiled by 'albert@albert-system' on 2024-07-22

   ID    Z sym.   atoms
    1    6 C      1, 3-19, 21-26, 28-32, 34-37, 39-47, 49, 50
    2    8 O      2, 20, 33
    3    7 N      27, 48
    4   16 S      38
    5    1 H      51-80

          program call               : xtb data2507/gas/MCZ-P2-DTM/MCZ-P2-DTM_gas_T1_crest.xyz --gfn 2 --spinpol --tblite --uhf 2 --ohess vtight --parallel 40 --molden --ceasefiles --namespace data2507/gas/MCZ-P2-DTM/MCZ-P2-DTM_gas_T1_finalOpt
 * total energy  :  -130.7806839 Eh     change        0.3426749E-08 Eh
 * total energy  :  -130.7807351 Eh     change       -0.5117019E-04 Eh
 * total energy  :  -130.7807555 Eh     change       -0.2042805E-04 Eh
 * total energy  :  -130.7807585 Eh     change       -0.3002785E-05 Eh
 * total energy  :  -130.7807622 Eh     change       -0.3754648E-05 Eh
 * total energy  :  -130.7807659 Eh     change       -0.3639553E-05 Eh
 * total energy  :  -130.7807691 Eh     change       -0.3240484E-05 Eh
 * total energy  :  -130.7807718 Eh     change       -0.2685184E-05 Eh
 * total energy  :  -130.7807742 Eh     change       -0.2429978E-05 Eh
 * total energy  :  -130.7807772 Eh     change       -0.2969909E-05 Eh
 * total energy  :  -130.7808147 Eh     change       -0.2013973E-06 Eh
 * total energy  :  -130.7808148 Eh     change       -0.1935993E-06 Eh
 * total energy  :  -130.7808150 Eh     change       -0.1628430E-06 Eh
 * total energy  :  -130.7808151 Eh     change       -0.1143273E-06 Eh
 * total energy  :  -130.7808153 Eh     change       -0.1354011E-06 Eh
 * total energy  :  -130.7808155 Eh     change       -0.1939713E-06 Eh
 * total energy  :  -130.7808156 Eh     change       -0.1228116E-06 Eh
 * total energy  :  -130.7808157 Eh     change       -0.1116904E-06 Eh
 * total energy  :  -130.7808158 Eh     change       -0.8983113E-07 Eh
   *** GEOMETRY OPTIMIZATION CONVERGED AFTER 55 ITERATIONS ***

 final structure:
================
80
 xtb: 6.7.1 (edcfbbe)
C           -9.18260962434558        6.55356880182236       -1.13203894824678
O           -8.79620116627607        5.32164500729173       -1.69136228231736
C           -7.64267898712262        4.74373296715651       -1.26483460758444
C           -6.79378893665353        5.26837825504706       -0.29483634174217
C           -5.64096928257287        4.59051944455549        0.05433387030722
C           -5.30276209904958        3.37552898062602       -0.53655467428258
C           -4.08110672077650        2.66328649285989       -0.15352653117846
C           -2.90298778079355        3.37591917666081        0.11804261743053
C           -1.73188726559263        2.74827897478116        0.48718391387166
C           -1.73857280582696        1.36336088629482        0.60609448808959
C           -2.90811780506878        0.62348892139230        0.30016755686158
C           -4.07054251845737        1.27122758991387       -0.07241982867315
C           -2.55918527504609       -0.76573780960491        0.44520362836109
C           -3.26217980117096       -1.94349725393116        0.27686278333498
C           -2.61265057042416       -3.16060493853658        0.48471710663999
C           -3.33481613141153       -4.42289868080183        0.30947088961209
C           -4.67162722237748       -4.54759080254957        0.69868819237007
C           -5.34879281532792       -5.73352487939296        0.53787345236000
C           -4.71593734746946       -6.84276234070140       -0.03045662216310
O           -5.47507106876417       -7.96320045386712       -0.14813506170119
C           -4.89465942039804       -9.11883632891044       -0.70283470036278
C           -3.38673621466690       -6.72911527451027       -0.42760213038009
C           -2.71245088927168       -5.53566397378382       -0.25185932537507
C           -1.26177530240176       -3.16623814611651        0.86823297160348
C           -0.54574437959903       -2.00272870690505        1.05191073933956
C           -1.19636568000117       -0.79635073264537        0.82772762271133
N           -0.72028061032669        0.49318219343409        0.93661153627381
C            0.55824042084269        0.83916377343072        1.35996726951348
C            0.78257180271378        1.91714457484048        2.23443120694386
C            2.06791993115921        2.20326738363879        2.60573918274308
C            3.15313976590008        1.44234197758628        2.09336348986949
C            4.50818131728589        1.75746044087633        2.46716925550976
O            4.70920652574009        2.47293448548346        3.48544876359298
C            5.63228134591781        1.23394306156441        1.69098871039757
C            6.86272470027971        1.05066156675098        2.35059247408384
C            7.97484743413070        0.60170136766957        1.67814787805054
C            7.87039829761890        0.34083400914029        0.31849386140233
S            9.15518337357715       -0.22793624891975       -0.72408586791759
C            8.08395954096131       -0.18957511844477       -2.10821884863810
C            8.42411657204006       -0.53759830952730       -3.40488090585248
C            7.45379863101231       -0.45238286825852       -4.38521140862861
C            6.16569538793523       -0.02857867583408       -4.07463960796231
C            5.82862626446973        0.31798751535081       -2.78130202094352
C            6.78876783696078        0.24378023275067       -1.77769150169063
C            6.66345310877661        0.54940267294301       -0.37385063734399
C            5.55063442978844        1.00410564197621        0.31665282872782
C            2.79649351606092        0.31507948860703        1.31286211799854
N            1.57010909016752        0.05830220654824        0.96185518767336
C           -6.16600890995757        2.85606467478685       -1.50520091327497
C           -7.31040740915738        3.52719363408571       -1.86726333377504
H           -9.35275517104115        6.46989389187782       -0.05380189333622
H          -10.11698823299309        6.82007462424163       -1.62335548729990
H           -8.43845971802464        7.33322976140712       -1.32384759806284
H           -7.02155932511453        6.20099557812155        0.19717637839597
H           -5.00544175433278        5.00442948725433        0.82321284062166
H           -2.90627464470251        4.44916422874029        0.00255490977926
H           -0.83333560102727        3.32193740893260        0.65229776398266
H           -4.96502982195107        0.70479152256185       -0.28133909729836
H           -4.29411236508553       -1.92196272373737       -0.03856714764302
H           -5.17363571102077       -3.70959430589607        1.15851170679556
H           -6.37685793719704       -5.83607351858420        0.84767794482433
H           -4.57137066184595       -8.95045561738881       -1.73512010021787
H           -5.67669794854852       -9.87629284180094       -0.69045879674706
H           -4.04478133731712       -9.46722045587632       -0.10728517569037
H           -2.86843141357734       -7.56146067119345       -0.87737028455593
H           -1.68786830402748       -5.46143911335215       -0.58480070048382
H           -0.77870300828633       -4.11335570248307        1.05440826217309
H            0.48859840706158       -2.02127243595857        1.35534691560553
H           -0.05395022163563        2.46427980049797        2.64060276020617
H            2.27808192747869        3.01196425760433        3.28728293620234
H            6.91065405061391        1.26893373958723        3.40627446599885
H            8.91312592539887        0.45607903305154        2.19080975322358
H            9.42536057476279       -0.86643982762403       -3.63635917527132
H            7.69925945681024       -0.71850588649429       -5.40236403960929
H            5.42189948310271        0.02924656072560       -4.85533202374853
H            4.82756142372341        0.64512800573189       -2.54361485864279
H            4.63952965454805        1.21481462904937       -0.22209241311043
H            3.54038125815758       -0.39585865961201        0.98266545709869
H           -5.91819742260405        1.92822711671152       -1.99848684705542
H           -7.97257752054140        3.13434682393305       -2.62264125057220

 projected vibrational frequencies (cm⁻¹)
eigval :       -0.00    -0.00     0.00     0.00     0.00     0.00
eigval :        6.97     9.68    15.85    22.62    25.57    31.19
eigval :       33.63    35.52    45.32    54.70    63.65    75.78
eigval :       86.76    92.71    99.11   108.72   115.68   118.94
eigval :      122.67   134.17   141.06   154.79   172.65   179.23
eigval :      202.17   203.29   211.32   231.07   232.76   235.28
eigval :      254.06   258.82   262.14   264.72   275.50   282.18
eigval :      291.56   317.64   347.57   370.07   374.31   379.14
eigval :      381.96   382.69   388.51   391.52   398.00   403.33
eigval :      407.82   416.97   419.59   426.05   440.31   442.76
eigval :      453.67   469.95   471.30   483.38   490.00   491.04
eigval :      510.16   514.75   519.52   535.24   567.12   571.01
eigval :      575.46   585.50   592.71   598.94   603.00   609.42
eigval :      609.89   622.17   627.93   653.91   656.53   665.27
eigval :      676.63   686.69   687.62   695.37   699.36   700.54
eigval :      705.97   710.48   730.25   772.96   789.75   800.06
eigval :      803.89   805.03   806.40   816.23   819.33   828.35
eigval :      830.28   851.14   856.93   857.65   870.60   871.24
eigval :      873.56   876.51   897.51   900.91   903.64   905.13
eigval :      905.52   908.06   908.44   912.42   913.02   921.26
eigval :      921.85   922.79   923.57   939.13   988.22   989.32
eigval :      995.19   999.62  1028.27  1044.39  1063.16  1063.77
eigval :     1068.86  1071.14  1076.48  1093.06  1120.70  1120.98
eigval :     1125.87  1130.10  1130.78  1137.54  1147.84  1152.96
eigval :     1155.18  1158.39  1158.59  1167.78  1181.63  1188.12
eigval :     1189.27  1195.31  1211.43  1218.96  1221.24  1227.25
eigval :     1237.00  1239.03  1246.57  1247.57  1254.88  1272.38
eigval :     1274.22  1278.11  1283.65  1293.19  1298.14  1302.48
eigval :     1328.58  1330.94  1335.97  1338.54  1339.65  1348.02
eigval :     1353.89  1366.76  1394.20  1397.76  1400.67  1401.67
eigval :     1406.60  1410.09  1414.30  1417.45  1422.80  1429.45
eigval :     1433.29  1442.65  1453.43  1465.21  1469.31  1471.00
eigval :     1471.26  1481.57  1481.97  1493.76  1495.77  1516.49
eigval :     1530.74  1548.52  1555.79  1557.99  1559.55  1561.69
eigval :     1563.72  1569.88  1582.31  1584.97  1598.83  1604.71
eigval :     2933.13  2933.63  2946.80  2947.23  3028.87  3028.98
eigval :     3065.49  3079.88  3082.81  3084.41  3085.88  3087.03
eigval :     3087.20  3088.39  3089.45  3090.66  3091.91  3092.25
eigval :     3093.41  3094.30  3095.60  3100.90  3101.43  3102.63
eigval :     3102.81  3104.66  3107.21  3107.25  3109.42  3109.70

   temp. (K)  partition function   enthalpy   heat capacity  entropy
                                   cal/mol     cal/K/mol   cal/K/mol   J/K/mol
 298.15  VIB  0.300E+20            24477.817    151.486    152.789
         ROT  0.191E+09              888.752      2.981     40.874
         INT  0.573E+28            25366.570    154.466    193.664
         TR   0.167E+29             1481.254      4.968     45.353
         TOT                       26847.8236   159.4346   239.0164  1000.0448

       T/K    H(0)-H(T)+PV         H(T)/Eh          T*S/Eh         G(T)/Eh
   ------------------------------------------------------------------------
    298.15    0.427847E-01    0.641892E+00    0.113564E+00    0.528327E+00
   ------------------------------------------------------------------------

         :::::::::::::::::::::::::::::::::::::::::::::::::::::
         ::                  THERMODYNAMIC                  ::
         :::::::::::::::::::::::::::::::::::::::::::::::::::::
         :: total free energy        -130.252488301359 Eh   ::
         ::.................................................::
         :: total energy             -130.780815772961 Eh   ::
         :: zero point energy           0.599107164751 Eh   ::
         :: G(RRHO) w/o ZPVE           -0.070779693149 Eh   ::
         :: G(RRHO) contrib.            0.528327471602 Eh   ::
         :::::::::::::::::::::::::::::::::::::::::::::::::::::

           -------------------------------------------------
          | TOTAL ENERGY             -130.780815772961 Eh   |
          | TOTAL ENTHALPY           -130.138923877911 Eh   |
          | TOTAL FREE ENERGY        -130.252488301359 Eh   |
          | GRADIENT NORM               0.000074785238 Eh/α |
           -------------------------------------------------

 * finished run on 2025/08/24 at 06:53:52.734
