   * xtb version 6.7.1 (edcfbbe) compiled by 'albert@albert-system' on 2024-07-22

   ID    Z sym.   atoms
    1    6 C      1, 3-19, 21-26, 28-32, 34-37, 39-47, 49, 50
    2    8 O      2, 20, 33
    3    7 N      27, 48
    4   16 S      38
    5    1 H      51-80

          program call               : xtb data2507/gas/MCZ-P2-DTM/MCZ-P2-DTM_gas_S0_crest.xyz --gfn 2 --ohess vtight --parallel 40 --molden --ceasefiles --namespace data2507/gas/MCZ-P2-DTM/MCZ-P2-DTM_gas_S0_finalOpt
          :  Hamiltonian                  GFN2-xTB          :
 * total energy  :  -130.8593195 Eh     change       -0.1584255E-08 Eh
 * total energy  :  -130.8593210 Eh     change       -0.1423068E-05 Eh
 * total energy  :  -130.8593236 Eh     change       -0.2665369E-05 Eh
 * total energy  :  -130.8593292 Eh     change       -0.5625369E-05 Eh
 * total energy  :  -130.8593388 Eh     change       -0.9520963E-05 Eh
 * total energy  :  -130.8593473 Eh     change       -0.8537550E-05 Eh
 * total energy  :  -130.8593521 Eh     change       -0.4780965E-05 Eh
 * total energy  :  -130.8593562 Eh     change       -0.4073059E-05 Eh
 * total energy  :  -130.8593622 Eh     change       -0.6024549E-05 Eh
 * total energy  :  -130.8593690 Eh     change       -0.6831058E-05 Eh
 * total energy  :  -130.8594243 Eh     change       -0.5057674E-06 Eh
 * total energy  :  -130.8594249 Eh     change       -0.5364325E-06 Eh
 * total energy  :  -130.8594254 Eh     change       -0.5636205E-06 Eh
 * total energy  :  -130.8594259 Eh     change       -0.5257487E-06 Eh
 * total energy  :  -130.8594264 Eh     change       -0.4489331E-06 Eh
 * total energy  :  -130.8594268 Eh     change       -0.3763491E-06 Eh
 * total energy  :  -130.8594271 Eh     change       -0.2951261E-06 Eh
 * total energy  :  -130.8594274 Eh     change       -0.3209405E-06 Eh
 * total energy  :  -130.8594274 Eh     change       -0.3211653E-08 Eh
   *** GEOMETRY OPTIMIZATION CONVERGED AFTER 44 ITERATIONS ***

 final structure:
================
80
 xtb: 6.7.1 (edcfbbe)
C           -3.75391731448004        9.07066276758829       -0.72245418674758
O           -2.64492767233487        8.50921829924882       -0.06531491469627
C           -2.44519058540468        7.16417508991585       -0.15852687193128
C           -3.25510884820008        6.28168137951535       -0.86390866351534
C           -2.95242537637406        4.93180028394133       -0.88409377827108
C           -1.84322177087379        4.42567865936786       -0.21591202549634
C           -1.53223147622087        2.98969361711020       -0.24827576332491
C           -0.20547358815802        2.55929980916397       -0.37558478933410
C            0.13475855152388        1.22148786565731       -0.41614817237585
C           -0.88504229248886        0.28819630798783       -0.32594924926210
C           -2.22670797437708        0.69986757216737       -0.19018405178876
C           -2.54893419378022        2.04654460828931       -0.15433433566678
C           -3.02177084614311       -0.49764838472985       -0.11741485952283
C           -4.38644165915063       -0.71151021445693       -0.02354949279994
C           -4.87273568389876       -2.01372536494019       -0.02683753502410
C           -6.31396727930896       -2.27271197312923        0.09317128639339
C           -7.24668163826280       -1.46592894075898       -0.55966460909225
C           -8.59671280117825       -1.70679775097167       -0.44164410884468
C           -9.06372520274745       -2.76300576850397        0.34276618464210
O          -10.41726555979121       -2.91035205696693        0.39721274524873
C          -10.94856853340047       -3.95824014047156        1.16970134520357
C           -8.14360553815625       -3.57256695755103        0.99884108918529
C           -6.78869694336711       -3.32543092050569        0.86738534429991
C           -3.97406124794188       -3.07814575710465       -0.16495644880999
C           -2.60974945577056       -2.88389207473768       -0.26192757317485
C           -2.12495501642494       -1.58563386768957       -0.19914141699319
N           -0.82514557014793       -1.10247594550749       -0.29568345926419
C            0.34012974818242       -1.84244841336864       -0.27346738129353
C            0.44407439174803       -3.02957858590228        0.46693973463043
C            1.64906436119671       -3.69348366105481        0.47229465196137
C            2.73645626014007       -3.16701322580294       -0.23254405081742
C            4.03179491157774       -3.88460233939977       -0.23191958562976
O            4.08096523183520       -5.09934936959639       -0.19278598410456
C            5.25569234586512       -3.04932297315967       -0.27558870602480
C            6.42095188422186       -3.60769613005326       -0.81879584883357
C            7.59706649727728       -2.89288396651583       -0.86941243008815
C            7.61137652035475       -1.60476086760146       -0.35340680628802
S            8.98861460614060       -0.53504955756646       -0.30781491552919
C            8.03396825336959        0.70527835158468        0.48015714107167
C            8.48751208652051        1.95626212840437        0.86376659501244
C            7.59685475020176        2.81937400925633        1.47277154038569
C            6.27597743440935        2.44059111630132        1.69331363485270
C            5.82606339228492        1.19352095081206        1.31119642095559
C            6.70546948558524        0.30525891071308        0.69877242774112
C            6.46018605213696       -1.03042097278198        0.21785358979481
C            5.28264812160062       -1.76489339827513        0.25351101361261
C            2.51870699435800       -1.98906899659247       -0.94539847134466
N            1.36872895269927       -1.35105950003177       -0.96263337822988
C           -1.03598477085105        5.32127715201207        0.48636488452811
C           -1.33127018204234        6.66535799343218        0.51894142469243
H           -3.70110269558397        8.91656245857328       -1.80532271820895
H           -3.71386200593450       10.13786753360972       -0.50969484268597
H           -4.69638786253400        8.66224491963000       -0.34291951206196
H           -4.12110376901787        6.63147959332810       -1.40403526783770
H           -3.58273872591941        4.26312464596373       -1.45200530183511
H            0.57442672165842        3.30031112922837       -0.46884699700012
H            1.15982222840984        0.91060031142653       -0.53232849403719
H           -3.57536079390121        2.35697890722825       -0.03133489982329
H           -5.06193513328094        0.12553897506602        0.06416235047712
H           -6.90502584070249       -0.65453469357753       -1.18495084286006
H           -9.32032938937522       -1.08991596631833       -0.95100060394431
H          -10.61823865226621       -4.93605678411279        0.80391389270408
H          -12.02986663401805       -3.88280258470084        1.06550040013647
H          -10.68005798721482       -3.85589927332328        2.22639330358930
H           -8.46728738890090       -4.39533464463674        1.61713354406217
H           -6.08906032197203       -3.95404178185752        1.39884233363282
H           -4.36319998820347       -4.08353484066093       -0.22603155956411
H           -1.95673713488786       -3.72887304925816       -0.41514089531253
H           -0.38591704193542       -3.38329617156849        1.05568623732952
H            1.78313078796584       -4.60464469890769        1.03679928290637
H            6.37206133314488       -4.61520827015609       -1.20295444138162
H            8.49177770728015       -3.31955473328939       -1.29497712136003
H            9.51241649507061        2.24312291455389        0.68749842908411
H            7.93034888929109        3.79909759927986        1.77958043925451
H            5.59692392927054        3.13206038476004        2.16893072806660
H            4.80059824954855        0.90275021004654        1.48258093777185
H            4.40427777697321       -1.34155829791936        0.71692619793591
H            3.29929975223229       -1.54771431291926       -1.55218747800148
H           -0.17930701836940        4.95305856223985        1.03108912367922
H           -0.71367249117930        7.35941515923043        1.06716508988802

          :  Hamiltonian                  GFN2-xTB          :
         :: gradient norm              0.000044253260 Eh/a0 ::
         :: HOMO-LUMO gap              1.878264171577 eV    ::
         :: SCC energy              -133.068065011250 Eh    ::
         :: -> dispersion             -0.106277758935 Eh    ::
         :: repulsion energy           2.208637619410 Eh    ::

    * Orbital Energies and Occupations

         #    Occupation            Energy/Eh            Energy/eV
      -------------------------------------------------------------
         1        2.0000           -0.7345630             -19.9885
       ...           ...                  ...                  ...
       108        2.0000           -0.4173099             -11.3556
       109        2.0000           -0.4133006             -11.2465
       110        2.0000           -0.4084113             -11.1134
       111        2.0000           -0.4052640             -11.0278
       112        2.0000           -0.4039718             -10.9926
       113        2.0000           -0.3999036             -10.8819
       114        2.0000           -0.3973553             -10.8126
       115        2.0000           -0.3861883             -10.5087
       116        2.0000           -0.3853021             -10.4846
       117        2.0000           -0.3824128             -10.4060
       118        2.0000           -0.3798076             -10.3351
       119        2.0000           -0.3708139             -10.0904
       120        2.0000           -0.3607880              -9.8175 (HOMO)
       121                         -0.2917631              -7.9393 (LUMO)
       122                         -0.2670162              -7.2659
       123                         -0.2583858              -7.0310
       124                         -0.2531184              -6.8877
       125                         -0.2456264              -6.6838
       126                         -0.2416721              -6.5762
       127                         -0.2383454              -6.4857
       128                         -0.2273756              -6.1872
       129                         -0.2227044              -6.0601
       130                         -0.2213528              -6.0233
       131                         -0.2139664              -5.8223
       ...                                ...                  ...
       235                          0.7456246              20.2895
      -------------------------------------------------------------
                  HL-Gap            0.0690249 Eh            1.8783 eV

     #   Z          covCN         q      C6AA      α(0)
     1   6 C        3.644     0.039    20.251     6.468
     2   8 O        1.705    -0.271    18.497     5.807
     3   6 C        2.866     0.142    24.914     8.182
     4   6 C        2.916    -0.067    29.673     8.933
     5   6 C        2.927    -0.036    28.898     8.816
     6   6 C        2.976    -0.001    28.037     8.685
     7   6 C        2.976     0.004    27.923     8.668
     8   6 C        2.930    -0.037    28.928     8.820
     9   6 C        2.909    -0.046    29.148     8.853
    10   6 C        3.066     0.050    26.823     8.492
    11   6 C        3.062    -0.014    28.293     8.723
    12   6 C        2.919    -0.039    28.957     8.824
    13   6 C        3.063    -0.012    28.257     8.717
    14   6 C        2.919    -0.038    28.944     8.822
    15   6 C        2.976     0.004    27.921     8.668
    16   6 C        2.976    -0.001    28.044     8.687
    17   6 C        2.925    -0.034    28.856     8.809
    18   6 C        2.919    -0.055    29.366     8.886
    19   6 C        2.866     0.142    24.907     8.181
    20   8 O        1.705    -0.271    18.487     5.805
    21   6 C        3.644     0.039    20.253     6.469
    22   6 C        2.916    -0.067    29.674     8.933
    23   6 C        2.927    -0.036    28.903     8.817
    24   6 C        2.929    -0.038    28.953     8.824
    25   6 C        2.909    -0.050    29.247     8.868
    26   6 C        3.061     0.043    26.967     8.516
    27   7 N        2.803    -0.034    21.898     6.950
    28   6 C        2.897     0.153    24.687     8.146
    29   6 C        2.914    -0.057    29.428     8.895
    30   6 C        2.932    -0.004    28.120     8.697
    31   6 C        2.966    -0.031    28.772     8.798
    32   6 C        2.827     0.224    23.301     7.910
    33   8 O        0.858    -0.374    21.165     6.168
    34   6 C        2.971    -0.019    28.481     8.754
    35   6 C        2.928    -0.020    28.510     8.756
    36   6 C        2.934    -0.037    28.919     8.819
    37   6 C        3.002     0.042    27.042     8.530
    38  16 S        2.213    -0.072   144.054    20.201
    39   6 C        3.004     0.039    27.116     8.542
    40   6 C        2.935    -0.037    28.923     8.820
    41   6 C        2.924    -0.028    28.711     8.787
    42   6 C        2.919    -0.033    28.814     8.802
    43   6 C        2.917    -0.030    28.755     8.793
    44   6 C        3.104    -0.002    27.949     8.663
    45   6 C        3.106    -0.001    27.919     8.657
    46   6 C        2.919    -0.031    28.767     8.795
    47   6 C        2.904     0.064    26.577     8.453
    48   7 N        1.845    -0.240    27.128     7.719
    49   6 C        2.925    -0.035    28.864     8.810
    50   6 C        2.919    -0.055    29.372     8.887
    51   1 H        0.924     0.039     2.459     2.452
    52   1 H        0.925     0.060     2.194     2.316
    53   1 H        0.924     0.039     2.460     2.453
    54   1 H        0.926     0.033     2.543     2.494
    55   1 H        0.926     0.035     2.519     2.482
    56   1 H        0.926     0.036     2.496     2.471
    57   1 H        0.926     0.050     2.322     2.383
    58   1 H        0.926     0.036     2.504     2.475
    59   1 H        0.926     0.038     2.480     2.463
    60   1 H        0.926     0.038     2.477     2.461
    61   1 H        0.926     0.047     2.361     2.403
    62   1 H        0.924     0.039     2.457     2.451
    63   1 H        0.925     0.061     2.190     2.314
    64   1 H        0.924     0.039     2.459     2.452
    65   1 H        0.926     0.033     2.542     2.493
    66   1 H        0.926     0.034     2.531     2.488
    67   1 H        0.926     0.036     2.506     2.476
    68   1 H        0.926     0.033     2.548     2.496
    69   1 H        0.926     0.050     2.324     2.384
    70   1 H        0.926     0.058     2.228     2.334
    71   1 H        0.926     0.062     2.171     2.304
    72   1 H        0.926     0.049     2.335     2.390
    73   1 H        0.926     0.043     2.404     2.425
    74   1 H        0.926     0.040     2.443     2.444
    75   1 H        0.926     0.038     2.470     2.457
    76   1 H        0.926     0.038     2.479     2.462
    77   1 H        0.926     0.040     2.451     2.448
    78   1 H        0.925     0.044     2.391     2.418
    79   1 H        0.926     0.037     2.492     2.469
    80   1 H        0.926     0.046     2.371     2.408

molecular dipole:
                 x           y           z       tot (Debye)
 q only:       -0.822       1.136       0.381
   full:       -1.028       0.778       0.612       3.626

 projected vibrational frequencies (cm⁻¹)
eigval :       -0.00    -0.00    -0.00     0.00     0.00     0.00
eigval :        7.27     8.74    14.74    22.24    24.26    28.92
eigval :       33.03    34.85    46.17    59.30    62.18    65.89
eigval :       85.96    91.81    97.71   104.72   110.94   117.82
eigval :      120.57   134.97   139.34   157.60   168.75   190.63
eigval :      192.04   198.64   222.15   230.17   232.09   239.62
eigval :      241.14   254.68   263.64   269.12   280.39   286.10
eigval :      296.49   310.52   347.84   378.99   380.32   381.87
eigval :      382.53   389.20   393.01   395.36   398.55   406.52
eigval :      415.05   422.42   430.69   436.47   440.15   447.00
eigval :      457.50   473.83   478.04   484.70   491.59   507.52
eigval :      518.63   524.66   539.59   547.58   571.00   575.13
eigval :      583.35   589.57   601.48   603.65   611.28   618.90
eigval :      624.32   635.05   651.76   674.69   677.02   687.50
eigval :      692.51   693.89   694.54   700.56   708.32   710.44
eigval :      714.52   734.86   745.09   774.66   789.25   802.77
eigval :      802.88   816.48   819.81   824.40   829.47   833.57
eigval :      840.88   861.03   861.66   872.22   874.80   876.02
eigval :      878.55   879.57   902.69   905.22   907.43   909.10
eigval :      910.19   912.36   915.16   919.14   922.44   923.84
eigval :      924.00   926.79   935.18   958.79   990.49  1001.66
eigval :     1003.10  1030.46  1033.04  1048.25  1065.74  1065.85
eigval :     1075.51  1076.62  1077.71  1096.99  1122.74  1122.85
eigval :     1130.23  1130.94  1134.49  1144.55  1155.63  1158.15
eigval :     1159.39  1160.48  1160.92  1171.88  1182.26  1191.71
eigval :     1193.29  1198.91  1218.46  1221.74  1226.84  1231.16
eigval :     1241.87  1244.94  1245.11  1252.26  1256.69  1273.71
eigval :     1274.15  1278.96  1294.60  1295.08  1308.15  1310.22
eigval :     1330.47  1332.51  1338.46  1342.69  1346.41  1352.41
eigval :     1373.20  1395.34  1401.23  1402.16  1402.51  1404.31
eigval :     1412.58  1412.64  1418.19  1430.18  1435.50  1456.35
eigval :     1464.17  1468.03  1471.57  1472.75  1472.81  1484.93
eigval :     1485.39  1500.86  1502.83  1531.28  1544.60  1563.70
eigval :     1564.57  1568.03  1571.12  1573.34  1577.86  1579.30
eigval :     1586.28  1595.15  1602.50  1607.58  1614.06  1684.30
eigval :     2928.36  2928.79  2942.82  2943.36  3026.34  3026.69
eigval :     3051.90  3078.48  3079.30  3082.51  3083.09  3084.30
eigval :     3085.32  3086.48  3087.25  3088.07  3089.40  3090.47
eigval :     3094.59  3095.59  3096.89  3097.74  3099.84  3100.01
eigval :     3104.01  3104.64  3105.26  3105.30  3113.70  3116.39

   temp. (K)  partition function   enthalpy   heat capacity  entropy
                                   cal/mol     cal/K/mol   cal/K/mol   J/K/mol
 298.15  VIB  0.392E+20            24299.650    149.866    152.299
         ROT  0.176E+09              888.752      2.981     40.708
         INT  0.689E+28            25188.403    152.847    193.006
         TR   0.167E+29             1481.254      4.968     45.353
         TOT                       26669.6568   157.8153   238.3593   997.2952

       T/K    H(0)-H(T)+PV         H(T)/Eh          T*S/Eh         G(T)/Eh
   ------------------------------------------------------------------------
    298.15    0.425008E-01    0.645016E+00    0.113252E+00    0.531763E+00
   ------------------------------------------------------------------------

         :::::::::::::::::::::::::::::::::::::::::::::::::::::
         ::                  THERMODYNAMIC                  ::
         :::::::::::::::::::::::::::::::::::::::::::::::::::::
         :: total free energy        -130.327663895709 Eh   ::
         ::.................................................::
         :: total energy             -130.859427391839 Eh   ::
         :: zero point energy           0.602514870682 Eh   ::
         :: G(RRHO) w/o ZPVE           -0.070751374552 Eh   ::
         :: G(RRHO) contrib.            0.531763496130 Eh   ::
         :::::::::::::::::::::::::::::::::::::::::::::::::::::

           -------------------------------------------------
          | TOTAL ENERGY             -130.859427391839 Eh   |
          | TOTAL ENTHALPY           -130.214411717833 Eh   |
          | TOTAL FREE ENERGY        -130.327663895709 Eh   |
          | GRADIENT NORM               0.000044245980 Eh/α |
          | HOMO-LUMO GAP               1.878263754848 eV   |
           -------------------------------------------------

 * finished run on 2025/08/24 at 06:43:38.440
