   * xtb version 6.7.1 (edcfbbe) compiled by 'albert@albert-system' on 2024-07-22

   ID    Z sym.   atoms
    1    6 C      1-5, 7-26, 28-48
    2    7 N      6, 27
    3    1 H      49-94

          program call               : xtb data2507/gas/C2MPI/C2MPI_gas_S0_finalOpt.xtbopt.xyz --gfn 2 --spinpol --tblite --uhf 2 --ohess vtight --parallel 40 --molden --ceasefiles --namespace data2507/gas/C2MPI/C2MPI_gas_T1_preOpt
 * total energy  :  -127.7330933 Eh     change       -0.6103262E-07 Eh
 * total energy  :  -127.7355394 Eh     change       -0.2446079E-02 Eh
 * total energy  :  -127.7361993 Eh     change       -0.6599548E-03 Eh
 * total energy  :  -127.7364236 Eh     change       -0.2243227E-03 Eh
 * total energy  :  -127.7360804 Eh     change        0.3432080E-03 Eh
 * total energy  :  -127.7369021 Eh     change       -0.8216761E-03 Eh
 * total energy  :  -127.7370400 Eh     change       -0.1379033E-03 Eh
 * total energy  :  -127.7372315 Eh     change       -0.1915025E-03 Eh
 * total energy  :  -127.7372957 Eh     change       -0.6423473E-04 Eh
 * total energy  :  -127.7373619 Eh     change       -0.6619344E-04 Eh
 * total energy  :  -127.7376485 Eh     change       -0.2249109E-05 Eh
 * total energy  :  -127.7376501 Eh     change       -0.1636821E-05 Eh
 * total energy  :  -127.7376487 Eh     change        0.1359531E-05 Eh
 * total energy  :  -127.7376519 Eh     change       -0.3125324E-05 Eh
 * total energy  :  -127.7376523 Eh     change       -0.4224211E-06 Eh
 * total energy  :  -127.7376530 Eh     change       -0.6847736E-06 Eh
 * total energy  :  -127.7376524 Eh     change        0.5495217E-06 Eh
 * total energy  :  -127.7376532 Eh     change       -0.7412806E-06 Eh
 * total energy  :  -127.7376532 Eh     change       -0.3525329E-07 Eh
   *** GEOMETRY OPTIMIZATION CONVERGED AFTER 40 ITERATIONS ***

 final structure:
================
94
 xtb: 6.7.1 (edcfbbe)
C           -3.24693974351030       -4.95187903827613       -3.21439451162483
C           -3.03783686192775       -3.74754225199198       -2.34753561539114
C           -1.75736118429243       -3.27549250876957       -2.08431000042036
C           -1.55715974229823       -2.15325486429433       -1.30823613117339
C           -2.63465933328616       -1.45950157968316       -0.76551575497455
N           -2.40319372807809       -0.31565681126122        0.01635213697824
C           -3.43393670962445        0.62332120758738        0.12389435680925
C           -4.10703506996482        1.04069987449512       -1.02906309473978
C           -5.10089230731066        1.99264019960253       -0.95444804572803
C           -5.46058288463243        2.56619936076806        0.26139239211737
C           -6.52788578131942        3.61631518946788        0.32278271653547
C           -4.79171879361026        2.14863486940468        1.40351885805185
C           -3.79757283631588        1.19070655391973        1.34511350280326
C           -1.52266029562435       -0.44934791777478        1.13377847498903
C           -1.82660612067791       -1.47549851089546        2.02514795159495
C           -1.16294826067800       -1.61393797704324        3.22663992660785
C           -0.18572731099054       -0.69102717993533        3.55203170705437
C            0.15913383133627        0.29471132720025        2.64854774787469
C           -0.45458067600205        0.42772291798185        1.40350209451903
C            0.02311278027041        1.49127518503212        0.40874041423711
C            0.23568837774141        0.79982423181092       -0.93966022701877
C           -0.64606652573055        0.98798590366468       -1.99972235809770
C           -0.50189337199677        0.37234235809295       -3.22823571901545
C            0.58452477473600       -0.46872383680799       -3.46271704885981
C            1.50839979108585       -0.63640821161758       -2.45976572558748
C            1.35630016653475       -0.03642725750214       -1.20552631192377
N            2.45818755403227       -0.22171728869587       -0.32871336276295
C            2.37715470565339       -0.96447135662503        0.83186331305951
C            3.25556165763851       -0.69629646916894        1.91873153222831
C            3.25386566888056       -1.50944695734269        3.02407319033060
C            2.40627024256486       -2.61317038569216        3.11703608153420
C            2.39853960691096       -3.50176074604979        4.31827358430688
C            1.53656045521090       -2.87592722255923        2.03757586816259
C            1.51836406892153       -2.07540763461956        0.93017135215296
C            3.67645177556744        0.20341790636065       -0.79007622629524
C            3.79419887767099        1.32028336153576       -1.66263477424849
C            5.01200771147725        1.76001521308272       -2.07483908230998
C            6.21385133871141        1.09938535012821       -1.67642825078995
C            7.53348762453837        1.60735975847135       -2.15073212511622
C            6.09830488632736       -0.04147513340968       -0.87355906564557
C            4.88735658072497       -0.49639898887018       -0.43378152192859
C           -1.03916523595406        2.61638609257119        0.38121189460902
C           -0.47966666570271        3.91759960306488       -0.18384020789028
C            0.51370504414692        4.53850218525138        0.80386547350008
C            1.16739936197322        3.44058028854917        1.64654131823405
C            1.35667924013705        2.17912529467533        0.80770512303854
C           -3.92066484118968       -1.93994726365970       -1.01248913119254
C           -4.11173104059200       -3.06082307723761       -1.79608143497158
H           -2.51582228888879       -5.72445009492763       -2.98410408908076
H           -3.12814500380584       -4.68301860367704       -4.26467738630031
H           -4.24564115320177       -5.36014369073978       -3.07921464062182
H           -0.90286864563592       -3.79032659629668       -2.50015686024407
H           -0.56158205582873       -1.78707377397318       -1.13086149287327
H           -3.83656950468726        0.60973401027317       -1.98192601577433
H           -5.60639824017111        2.30286173794557       -1.85808108612388
H           -6.13526374784540        4.57258541265324       -0.02515993279727
H           -6.88645133704813        3.74655690464909        1.34094343958963
H           -7.36847735107162        3.34997285672258       -0.31527736255593
H           -5.05761840377091        2.57250255943315        2.36162903269430
H           -3.29839905179979        0.87808580993060        2.25004474578994
H           -2.63174176899851       -2.15043777925671        1.76855546561311
H           -1.42863759224792       -2.40756800887846        3.90843353171401
H            0.31839257295850       -0.73931051028610        4.50536984415864
H            0.93597225418709        0.98051242395124        2.94047294067277
H           -1.48729223380210        1.64910971362070       -1.88345691382737
H           -1.22729461682161        0.55307985847348       -4.00653050272341
H            0.70630412889389       -0.96616552328994       -4.41197712564243
H            2.37984265913161       -1.25748688489396       -2.61701349470862
H            3.89711437165132        0.17136808664463        1.87555720488856
H            3.91836993380593       -1.28346307781656        3.84666677391046
H            2.71361524516785       -4.51125488456901        4.04937504935445
H            3.06855626531575       -3.12563977724105        5.08765280700650
H            1.39276307196416       -3.57371079605129        4.73292519397469
H            0.88210565055259       -3.73335848800677        2.08848971877851
H            0.87553865633513       -2.31670799854197        0.09974216085996
H            2.89632228674614        1.83034643119131       -1.98025354088434
H            5.08759143944004        2.62306966682225       -2.71951878572760
H            7.56994537414590        1.62733814236453       -3.24163127956009
H            8.34627406494258        0.98332813307604       -1.78702639497528
H            7.69832532970223        2.62937595620604       -1.80354787762969
H            6.99411849166544       -0.58840768020050       -0.61241413621407
H            4.81015796293655       -1.42053198999849        0.11675235517669
H           -1.91907429213807        2.32071805482032       -0.17768110006332
H           -1.37458319595098        2.79240681199453        1.40551567455428
H            0.00859959506367        3.71160661717876       -1.13823094486791
H           -1.29798998899388        4.61304579798901       -0.37973202952607
H            1.27826637613637        5.09403061618328        0.25746392097356
H            0.00130168632454        5.24533554088045        1.45921647224914
H            2.14076983824736        3.78041276301499        2.00744417770186
H            0.55408287983415        3.22306923220525        2.52202204630404
H            1.87075389599268        2.47945559408380       -0.10652233776153
H            2.01271285100228        1.49214000853001        1.33288945992072
H           -4.77436977715219       -1.43813064144525       -0.58031478311400
H           -5.11799104591810       -3.41472535742141       -1.97192596989180

 projected vibrational frequencies (cm⁻¹)
eigval :       -0.00    -0.00     0.00     0.00     0.00     0.00
eigval :        9.45    11.40    12.62    16.73    21.69    36.91
eigval :       39.89    41.47    43.14    46.07    53.24    53.44
eigval :       59.06    64.42    68.17    78.96    82.21    88.41
eigval :      101.06   112.41   124.79   126.34   129.47   146.04
eigval :      149.14   154.33   166.92   171.59   178.77   188.84
eigval :      223.52   229.96   234.55   246.05   258.60   261.17
eigval :      288.70   293.50   297.44   306.26   316.88   329.07
eigval :      342.37   347.46   350.43   366.12   371.36   374.37
eigval :      376.93   384.85   391.18   393.18   397.82   401.01
eigval :      411.75   426.38   438.73   443.18   458.32   467.61
eigval :      475.02   488.33   508.22   528.04   530.83   538.93
eigval :      549.10   554.51   560.76   572.75   580.00   588.34
eigval :      592.45   599.22   605.11   612.23   613.43   621.74
eigval :      641.93   656.98   664.69   666.04   675.04   699.27
eigval :      705.84   711.86   741.16   752.32   769.42   772.69
eigval :      784.10   791.00   795.15   798.20   802.08   805.01
eigval :      806.22   815.07   825.53   835.09   855.36   867.82
eigval :      870.89   871.94   873.25   885.18   888.51   892.43
eigval :      895.47   899.38   900.99   902.03   908.88   911.30
eigval :      913.23   918.32   920.48   926.01   928.65   931.21
eigval :      932.45   944.75   947.98   960.21   975.64   978.58
eigval :      987.18   991.68  1005.95  1007.87  1008.86  1013.03
eigval :     1017.21  1021.04  1027.20  1032.53  1032.89  1058.38
eigval :     1086.69  1089.76  1094.11  1108.61  1117.11  1123.16
eigval :     1125.69  1132.21  1140.20  1140.41  1146.39  1146.96
eigval :     1148.48  1153.96  1162.73  1174.55  1178.38  1185.12
eigval :     1189.83  1191.75  1197.85  1200.43  1202.79  1207.25
eigval :     1215.96  1224.85  1235.40  1239.91  1241.65  1242.55
eigval :     1246.98  1256.70  1262.39  1269.13  1272.35  1275.15
eigval :     1278.79  1292.72  1295.46  1300.55  1305.96  1307.11
eigval :     1314.64  1323.64  1325.64  1332.21  1334.69  1338.07
eigval :     1342.37  1342.77  1351.15  1351.30  1357.60  1361.58
eigval :     1398.70  1399.25  1404.34  1405.06  1405.26  1411.67
eigval :     1414.86  1420.79  1422.88  1430.34  1439.41  1448.71
eigval :     1450.61  1460.56  1473.83  1474.72  1477.20  1479.33
eigval :     1482.69  1482.94  1485.86  1486.58  1489.72  1489.92
eigval :     1490.93  1493.22  1493.50  1494.28  1500.23  1505.77
eigval :     1519.12  1528.74  1533.76  1564.65  1566.00  1572.80
eigval :     1604.83  1608.25  2958.62  2961.77  2967.22  2974.31
eigval :     2978.49  2980.03  2983.80  2983.98  2989.33  2992.06
eigval :     2992.78  2994.10  2999.75  3000.24  3025.47  3026.84
eigval :     3039.14  3039.28  3039.78  3040.77  3056.78  3061.48
eigval :     3064.21  3066.55  3068.09  3069.30  3070.34  3070.49
eigval :     3072.65  3074.67  3079.07  3080.83  3081.42  3082.33
eigval :     3084.17  3084.89  3085.21  3088.52  3092.18  3092.80
eigval :     3095.04  3098.29  3118.68  3127.16  3131.19  3147.29

   temp. (K)  partition function   enthalpy   heat capacity  entropy
                                   cal/mol     cal/K/mol   cal/K/mol   J/K/mol
 298.15  VIB  0.611E+22            26596.086    161.879    169.013
         ROT  0.533E+08              888.752      2.981     38.336
         INT  0.326E+30            27484.838    164.860    207.349
         TR   0.152E+29             1481.254      4.968     45.169
         TOT                       28966.0922   169.8285   252.5179  1056.5350

       T/K    H(0)-H(T)+PV         H(T)/Eh          T*S/Eh         G(T)/Eh
   ------------------------------------------------------------------------
    298.15    0.461604E-01    0.817208E+00    0.119979E+00    0.697228E+00
   ------------------------------------------------------------------------

         :::::::::::::::::::::::::::::::::::::::::::::::::::::
         ::                  THERMODYNAMIC                  ::
         :::::::::::::::::::::::::::::::::::::::::::::::::::::
         :: total free energy        -127.040425160496 Eh   ::
         ::.................................................::
         :: total energy             -127.737653275201 Eh   ::
         :: zero point energy           0.771047123947 Eh   ::
         :: G(RRHO) w/o ZPVE           -0.073819009241 Eh   ::
         :: G(RRHO) contrib.            0.697228114705 Eh   ::
         :::::::::::::::::::::::::::::::::::::::::::::::::::::

           -------------------------------------------------
          | TOTAL ENERGY             -127.737653275201 Eh   |
          | TOTAL ENTHALPY           -126.920445745122 Eh   |
          | TOTAL FREE ENERGY        -127.040425160496 Eh   |
          | GRADIENT NORM               0.000067719184 Eh/α |
           -------------------------------------------------

 * finished run on 2025/08/29 at 20:50:14.176
