   * xtb version 6.7.1 (edcfbbe) compiled by 'albert@albert-system' on 2024-07-22

   ID    Z sym.   atoms
    1    6 C      1-5, 7-26, 28-48
    2    7 N      6, 27
    3    1 H      49-94

          program call               : xtb data2507/gas/C2MPI/C2MPI.xyz --gfn 2 --ohess vtight --parallel 40 --molden --ceasefiles --namespace data2507/gas/C2MPI/C2MPI_gas_S0_preOpt
          :  Hamiltonian                  GFN2-xTB          :
 * total energy  :  -127.8059320 Eh     change       -0.3468585E-08 Eh
 * total energy  :  -127.8263351 Eh     change       -0.2040306E-01 Eh
 * total energy  :  -127.8357315 Eh     change       -0.9396366E-02 Eh
 * total energy  :  -127.8396141 Eh     change       -0.3882666E-02 Eh
 * total energy  :  -127.8418636 Eh     change       -0.2249480E-02 Eh
 * total energy  :  -127.8429354 Eh     change       -0.1071799E-02 Eh
 * total energy  :  -127.8434177 Eh     change       -0.4822708E-03 Eh
 * total energy  :  -127.8437446 Eh     change       -0.3269734E-03 Eh
 * total energy  :  -127.8439997 Eh     change       -0.2550387E-03 Eh
 * total energy  :  -127.8441809 Eh     change       -0.1811697E-03 Eh
 * total energy  :  -127.8448310 Eh     change       -0.2778356E-06 Eh
 * total energy  :  -127.8448316 Eh     change       -0.5881951E-06 Eh
 * total energy  :  -127.8448318 Eh     change       -0.1408668E-06 Eh
 * total energy  :  -127.8448320 Eh     change       -0.1874213E-06 Eh
 * total energy  :  -127.8448321 Eh     change       -0.1730515E-06 Eh
 * total energy  :  -127.8448321 Eh     change        0.2254590E-07 Eh
 * total energy  :  -127.8448323 Eh     change       -0.1481553E-06 Eh
 * total energy  :  -127.8448323 Eh     change        0.4612218E-08 Eh
 * total energy  :  -127.8448323 Eh     change       -0.9092233E-07 Eh
   *** GEOMETRY OPTIMIZATION CONVERGED AFTER 130 ITERATIONS ***

 final structure:
================
94
 xtb: 6.7.1 (edcfbbe)
C           -3.61101109025831        5.17172314299441        2.35468809285955
C           -3.30040190124506        3.88119824511331        1.65831781479165
C           -4.29221520751496        3.19382906408046        0.96768309424244
C           -4.01997796327575        2.01311566223112        0.30772113147461
C           -2.73586299298584        1.46707678532530        0.33084962703663
N           -2.42610505995446        0.25806426397000       -0.32211682462935
C           -3.48267800860193       -0.62115067804835       -0.59710199581799
C           -3.64904122646227       -1.21922940095308       -1.84354216066460
C           -4.67633665833972       -2.12066142833388       -2.05666555981346
C           -5.56797872683555       -2.44971902030152       -1.04728585853450
C           -6.68804085748911       -3.41944262069179       -1.27476570245001
C           -5.39911237581199       -1.84929152089232        0.19721635091606
C           -4.37559466857274       -0.95585633958516        0.42506191956605
C           -1.34681441233408        0.30499264818696       -1.26053218841698
C           -1.45203607385200        1.28186769993824       -2.25048414704428
C           -0.51303951897308        1.40810318569873       -3.25264538672139
C            0.54659035227698        0.52265597286423       -3.27991693852224
C            0.66766996782632       -0.43848835622895       -2.29344158932261
C           -0.24442755597009       -0.56906602422149       -1.24930305188204
C            0.00564292946668       -1.58613092300337       -0.12738217401729
C            0.29709838501692       -0.73133414750516        1.11108732031263
C           -0.56281139211565       -0.75193437404715        2.20738570254519
C           -0.39614866982734        0.06095344343547        3.31309247130488
C            0.65050989202093        0.96178985832641        3.35355018106880
C            1.52273018590443        1.00470248869589        2.28603946849952
C            1.37634984266633        0.17051202165173        1.17736519240009
N            2.38923080886838        0.30367041761018        0.17353715865258
C            2.59090724117699        1.58923403435682       -0.35420147802901
C            1.49458367249268        2.37018555571119       -0.71096409353177
C            1.66469549331270        3.63100441488065       -1.24502342235912
C            2.93089703283138        4.16369653785304       -1.44414821212971
C            3.11875590762884        5.52038794678279       -2.05324991963652
C            4.02392234484709        3.39178181747859       -1.07083472471177
C            3.86452705426880        2.13291425030922       -0.52736390432663
C            3.49965499104045       -0.55192449991086        0.26424737936259
C            3.85943048484914       -1.17891105904872        1.45398351163179
C            4.94406358890810       -2.03803600289750        1.49344520139401
C            5.70144749827746       -2.29407160376192        0.36145922563839
C            6.87624301862487       -3.22374813183329        0.39746412776269
C            5.34338939603834       -1.65965410788169       -0.82543756979431
C            4.26382243410118       -0.80602967434413       -0.87959579984076
C           -1.22883324169649       -2.51807155938267       -0.04012728934330
C           -0.94663122042643       -3.92315432258323        0.51247626569500
C            0.21346276611338       -3.92023074347090        1.49590654659566
C            1.48111799414102       -3.45036619129108        0.78060391737760
C            1.17746978706085       -2.54152547141165       -0.41503641048673
C           -1.74021906707904        2.15843229493085        1.01367838904555
C           -2.02079051473631        3.34482681035956        1.66259557170595
H           -4.52604751766748        5.08396867494285        2.93796764923111
H           -3.75692485980052        5.96876565364296        1.62489573802879
H           -2.79845673652953        5.45994571470881        3.01698019924717
H           -5.29463188716095        3.59753037899096        0.93582199416591
H           -4.80743600635475        1.51251939390793       -0.23697347653997
H           -2.97343337630181       -0.97606927199641       -2.65069880800374
H           -4.78600013520693       -2.57003913059421       -3.03374251672186
H           -6.64346971949482       -4.23122672502013       -0.54963012867825
H           -6.63813673220209       -3.84320162611419       -2.27462319061644
H           -7.65096426020746       -2.92242951171493       -1.15753328103947
H           -6.07880625780559       -2.09484890032211        1.00107766204880
H           -4.25201105740335       -0.50557855490510        1.39968810322952
H           -2.30487773278213        1.94622685745277       -2.21896646644419
H           -0.61684889129067        2.17489172110184       -4.00518182214845
H            1.28759223124407        0.58101561653137       -4.06307970323978
H            1.51200065675919       -1.10332686694659       -2.34933991218229
H           -1.40795681410607       -1.41910832952432        2.21289792500070
H           -1.09435130896442       -0.00396740642795        4.13418706203496
H            0.79058641697163        1.61550554281291        4.20109816711483
H            2.35436651759525        1.69641556813607        2.29229052585369
H            0.50040400929242        1.98404383994649       -0.57488372666832
H            0.79025781147854        4.20703956913407       -1.51261204841498
H            3.29451721014768        5.42931552350877       -3.12604548306888
H            2.23426801533515        6.13602128318859       -1.90730406443826
H            3.97735736155272        6.02603952582340       -1.61598188949272
H            5.02230529436768        3.78805205946141       -1.19424185739418
H            4.73790533809854        1.57466667533933       -0.22395237675237
H            3.29777539087288       -0.98240456326031        2.35576830440053
H            5.20538567558395       -2.51084623354641        2.42974607379603
H            7.03263898756139       -3.61387168389698        1.39996961039399
H            7.78149539318566       -2.70731411511216        0.07983129629400
H            6.71765682531548       -4.06225649212576       -0.28020309807426
H            5.92035422415899       -1.84470687745976       -1.72048562324573
H            3.99479385635284       -0.32316712376884       -1.80805729184724
H           -2.02198853203374       -2.06055338132288        0.53967930563653
H           -1.61574957637887       -2.63024911820871       -1.05557470600178
H           -1.85088831525086       -4.30309818245915        0.99245178302103
H           -0.70574955512013       -4.60667051824946       -0.30446042686842
H           -0.01430336072191       -3.25564404939679        2.32925176005825
H            0.36067769943371       -4.92131321034034        1.90604201505843
H            2.12326559655677       -2.92042235795920        1.48493873844298
H            2.04697950540296       -4.30995783194364        0.41437628206420
H            2.09121404539999       -2.01106373651856       -0.65782252273973
H            0.90450722819623       -3.15096865998829       -1.27925016793997
H           -0.74249468255503        1.75830994016025        1.04744804885298
H           -1.22488064091982        3.85533955911633        2.18594708478591

          :  Hamiltonian                  GFN2-xTB          :
         :: gradient norm              0.000049097031 Eh/a0 ::
         :: HOMO-LUMO gap              3.024867542915 eV    ::
         :: SCC energy              -130.136185599248 Eh    ::
         :: -> dispersion             -0.143275023438 Eh    ::
         :: repulsion energy           2.291353254196 Eh    ::

    * Orbital Energies and Occupations

         #    Occupation            Energy/Eh            Energy/eV
      -------------------------------------------------------------
         1        2.0000           -0.6544110             -17.8074
       ...           ...                  ...                  ...
       108        2.0000           -0.4004506             -10.8968
       109        2.0000           -0.3984920             -10.8435
       110        2.0000           -0.3980892             -10.8326
       111        2.0000           -0.3957228             -10.7682
       112        2.0000           -0.3943535             -10.7309
       113        2.0000           -0.3928337             -10.6895
       114        2.0000           -0.3918001             -10.6614
       115        2.0000           -0.3905966             -10.6287
       116        2.0000           -0.3875742             -10.5464
       117        2.0000           -0.3850928             -10.4789
       118        2.0000           -0.3845307             -10.4636
       119        2.0000           -0.3410675              -9.2809
       120        2.0000           -0.3396981              -9.2437 (HOMO)
       121                         -0.2285363              -6.2188 (LUMO)
       122                         -0.2247748              -6.1164
       123                         -0.2229203              -6.0660
       124                         -0.2180912              -5.9346
       125                         -0.2171851              -5.9099
       126                         -0.2166766              -5.8961
       127                         -0.2153046              -5.8587
       128                         -0.2123389              -5.7780
       129                         -0.2104635              -5.7270
       130                         -0.2084255              -5.6715
       131                         -0.1927347              -5.2446
       ...                                ...                  ...
       238                          0.6777512              18.4425
      -------------------------------------------------------------
                  HL-Gap            0.1111618 Eh            3.0249 eV

     #   Z          covCN         q      C6AA      α(0)
     1   6 C        3.757    -0.107    22.597     6.777
     2   6 C        2.965     0.008    27.841     8.655
     3   6 C        2.926    -0.042    29.034     8.837
     4   6 C        2.921    -0.051    29.278     8.873
     5   6 C        2.929     0.063    26.594     8.457
     6   7 N        2.749    -0.110    23.401     7.185
     7   6 C        2.927     0.066    26.513     8.444
     8   6 C        2.920    -0.054    29.352     8.884
     9   6 C        2.925    -0.040    29.003     8.832
    10   6 C        2.965     0.006    27.879     8.661
    11   6 C        3.757    -0.107    22.597     6.777
    12   6 C        2.925    -0.041    29.027     8.835
    13   6 C        2.922    -0.051    29.258     8.870
    14   6 C        2.929     0.061    26.644     8.465
    15   6 C        2.928    -0.041    29.026     8.835
    16   6 C        2.917    -0.032    28.787     8.798
    17   6 C        2.920    -0.033    28.816     8.803
    18   6 C        2.928    -0.036    28.908     8.817
    19   6 C        2.974     0.001    27.999     8.680
    20   6 C        3.903     0.019    20.198     6.388
    21   6 C        2.971     0.008    27.829     8.653
    22   6 C        2.928    -0.035    28.863     8.811
    23   6 C        2.920    -0.034    28.840     8.806
    24   6 C        2.916    -0.033    28.814     8.802
    25   6 C        2.928    -0.041    29.031     8.836
    26   6 C        2.928     0.061    26.636     8.464
    27   7 N        2.749    -0.108    23.356     7.178
    28   6 C        2.927     0.062    26.607     8.459
    29   6 C        2.925    -0.055    29.364     8.886
    30   6 C        2.925    -0.040    28.987     8.829
    31   6 C        2.965     0.006    27.888     8.662
    32   6 C        3.757    -0.106    22.586     6.776
    33   6 C        2.926    -0.042    29.040     8.837
    34   6 C        2.922    -0.055    29.361     8.886
    35   6 C        2.926     0.067    26.497     8.442
    36   6 C        2.920    -0.052    29.285     8.874
    37   6 C        2.924    -0.040    28.997     8.831
    38   6 C        2.965     0.008    27.841     8.655
    39   6 C        3.757    -0.107    22.605     6.779
    40   6 C        2.925    -0.041    29.030     8.836
    41   6 C        2.922    -0.049    29.228     8.866
    42   6 C        3.813    -0.062    21.684     6.628
    43   6 C        3.804    -0.053    21.517     6.604
    44   6 C        3.803    -0.055    21.565     6.611
    45   6 C        3.804    -0.054    21.549     6.609
    46   6 C        3.814    -0.062    21.682     6.628
    47   6 C        2.924    -0.053    29.318     8.879
    48   6 C        2.925    -0.039    28.980     8.828
    49   1 H        0.925     0.042     2.426     2.436
    50   1 H        0.924     0.043     2.404     2.425
    51   1 H        0.925     0.039     2.460     2.453
    52   1 H        0.926     0.028     2.616     2.529
    53   1 H        0.926     0.028     2.612     2.527
    54   1 H        0.926     0.024     2.680     2.560
    55   1 H        0.926     0.026     2.643     2.543
    56   1 H        0.925     0.042     2.423     2.434
    57   1 H        0.925     0.038     2.472     2.459
    58   1 H        0.925     0.043     2.415     2.430
    59   1 H        0.926     0.028     2.614     2.528
    60   1 H        0.926     0.029     2.601     2.522
    61   1 H        0.925     0.031     2.572     2.508
    62   1 H        0.926     0.031     2.568     2.506
    63   1 H        0.926     0.030     2.583     2.513
    64   1 H        0.926     0.043     2.413     2.429
    65   1 H        0.926     0.045     2.379     2.412
    66   1 H        0.926     0.030     2.589     2.516
    67   1 H        0.926     0.030     2.588     2.516
    68   1 H        0.925     0.030     2.584     2.514
    69   1 H        0.926     0.030     2.584     2.514
    70   1 H        0.926     0.026     2.647     2.544
    71   1 H        0.924     0.043     2.415     2.430
    72   1 H        0.925     0.039     2.462     2.454
    73   1 H        0.925     0.040     2.452     2.449
    74   1 H        0.925     0.026     2.639     2.540
    75   1 H        0.926     0.027     2.630     2.536
    76   1 H        0.926     0.026     2.643     2.542
    77   1 H        0.926     0.027     2.627     2.534
    78   1 H        0.925     0.039     2.462     2.454
    79   1 H        0.925     0.043     2.408     2.427
    80   1 H        0.925     0.043     2.405     2.425
    81   1 H        0.926     0.029     2.595     2.519
    82   1 H        0.926     0.032     2.554     2.499
    83   1 H        0.925     0.044     2.396     2.421
    84   1 H        0.924     0.030     2.584     2.514
    85   1 H        0.924     0.025     2.662     2.552
    86   1 H        0.924     0.030     2.591     2.517
    87   1 H        0.925     0.033     2.542     2.493
    88   1 H        0.924     0.025     2.664     2.553
    89   1 H        0.924     0.028     2.616     2.529
    90   1 H        0.924     0.025     2.656     2.549
    91   1 H        0.925     0.043     2.411     2.428
    92   1 H        0.924     0.033     2.540     2.492
    93   1 H        0.926     0.033     2.547     2.496
    94   1 H        0.926     0.027     2.625     2.534

molecular dipole:
                 x           y           z       tot (Debye)
 q only:        0.041      -0.295       0.026
   full:        0.042      -0.105       0.001       0.287

 projected vibrational frequencies (cm⁻¹)
eigval :       -0.00    -0.00     0.00     0.00     0.00     0.00
eigval :      -15.07     9.88    10.81    13.33    15.71    18.14
eigval :       23.63    28.85    40.36    46.86    46.95    49.90
eigval :       58.30    59.56    68.20    74.19    80.91    89.97
eigval :      103.55   113.62   114.66   131.29   137.25   143.75
eigval :      151.64   155.90   159.26   169.62   180.96   216.13
eigval :      227.59   239.57   247.32   260.37   262.45   281.73
eigval :      290.29   301.48   313.61   315.44   330.08   331.07
eigval :      339.24   343.47   353.62   360.59   371.61   372.26
eigval :      380.54   385.04   390.89   395.11   404.13   411.58
eigval :      443.43   449.51   462.19   470.13   476.87   481.04
eigval :      491.19   492.28   521.97   531.33   538.98   542.64
eigval :      552.83   555.45   567.38   574.80   586.85   612.34
eigval :      613.54   614.00   614.47   620.84   653.78   661.75
eigval :      664.03   667.55   669.61   678.95   703.35   716.50
eigval :      726.75   772.38   776.64   793.57   798.76   801.36
eigval :      803.26   804.70   807.46   810.88   818.37   825.65
eigval :      827.28   865.87   872.92   875.30   877.93   881.31
eigval :      882.40   893.35   909.80   909.86   911.33   911.80
eigval :      914.02   915.45   918.12   921.08   924.37   925.19
eigval :      926.57   930.64   931.20   932.02   935.74   941.53
eigval :      948.18   953.84   963.05   976.93  1000.01  1007.80
eigval :     1008.17  1008.64  1008.97  1015.75  1016.89  1026.51
eigval :     1026.71  1033.37  1033.44  1033.62  1033.66  1080.60
eigval :     1094.64  1111.68  1115.56  1126.38  1131.34  1142.75
eigval :     1144.83  1145.76  1147.60  1150.56  1154.64  1168.58
eigval :     1178.15  1178.96  1186.74  1193.11  1198.64  1201.01
eigval :     1201.52  1205.65  1207.50  1210.32  1217.89  1235.19
eigval :     1236.71  1239.93  1244.60  1246.74  1254.60  1266.30
eigval :     1269.95  1275.14  1276.53  1277.95  1278.45  1282.39
eigval :     1291.83  1293.48  1299.59  1300.87  1312.60  1314.38
eigval :     1325.45  1325.94  1329.67  1335.82  1336.11  1340.21
eigval :     1346.29  1357.02  1360.20  1404.73  1404.89  1405.57
eigval :     1405.71  1411.95  1412.14  1415.14  1416.74  1422.60
eigval :     1424.30  1464.11  1467.60  1482.75  1483.53  1483.71
eigval :     1484.96  1487.57  1487.63  1488.04  1488.69  1491.07
eigval :     1492.23  1493.68  1495.43  1497.92  1501.14  1505.51
eigval :     1514.76  1529.08  1566.16  1568.16  1569.66  1570.69
eigval :     1576.50  1577.07  1589.74  1592.63  1609.76  1610.65
eigval :     1613.09  1614.42  2959.80  2961.93  2971.09  2975.68
eigval :     2978.66  2988.63  2990.19  2995.37  2999.73  3000.01
eigval :     3001.81  3009.50  3015.14  3015.33  3022.44  3028.62
eigval :     3037.67  3042.36  3043.46  3044.28  3067.30  3067.71
eigval :     3068.34  3068.80  3069.75  3070.02  3071.35  3071.58
eigval :     3071.93  3073.95  3074.53  3078.94  3080.87  3081.21
eigval :     3082.78  3084.73  3085.13  3086.00  3086.54  3088.31
eigval :     3092.81  3093.75  3123.24  3134.37  3152.55  3156.79

   temp. (K)  partition function   enthalpy   heat capacity  entropy
                                   cal/mol     cal/K/mol   cal/K/mol   J/K/mol
 298.15  VIB  0.311E+23            26194.541    157.366    167.356
         ROT  0.534E+08              888.752      2.981     38.342
         INT  0.166E+31            27083.293    160.347    205.698
         TR   0.152E+29             1481.254      4.968     45.169
         TOT                       28564.5470   165.3151   250.8670  1049.6276

       T/K    H(0)-H(T)+PV         H(T)/Eh          T*S/Eh         G(T)/Eh
   ------------------------------------------------------------------------
    298.15    0.455205E-01    0.824819E+00    0.119195E+00    0.705624E+00
   ------------------------------------------------------------------------

         :::::::::::::::::::::::::::::::::::::::::::::::::::::
         ::                  THERMODYNAMIC                  ::
         :::::::::::::::::::::::::::::::::::::::::::::::::::::
         :: total free energy        -127.139208785862 Eh   ::
         ::.................................................::
         :: total energy             -127.844832345052 Eh   ::
         :: zero point energy           0.779298068252 Eh   ::
         :: G(RRHO) w/o ZPVE           -0.073674509063 Eh   ::
         :: G(RRHO) contrib.            0.705623559190 Eh   ::
         :::::::::::::::::::::::::::::::::::::::::::::::::::::

           -------------------------------------------------
          | TOTAL ENERGY             -127.844832345052 Eh   |
          | TOTAL ENTHALPY           -127.020013773664 Eh   |
          | TOTAL FREE ENERGY        -127.139208785862 Eh   |
          | GRADIENT NORM               0.000049131411 Eh/α |
          | HOMO-LUMO GAP               3.024867044524 eV   |
           -------------------------------------------------

 * finished run on 2025/08/29 at 20:39:22.493
