   * xtb version 6.7.1 (edcfbbe) compiled by 'albert@albert-system' on 2024-07-22

   ID    Z sym.   atoms
    1    6 C      1-5, 7-26, 28-48
    2    7 N      6, 27
    3    1 H      49-94

          program call               : xtb data2507/gas/C2MPI/C2MPI_gas_S0_crest.xyz --gfn 2 --ohess vtight --parallel 40 --molden --ceasefiles --namespace data2507/gas/C2MPI/C2MPI_gas_S0_finalOpt
          :  Hamiltonian                  GFN2-xTB          :
 * total energy  :  -127.8496485 Eh     change       -0.1753762E-08 Eh
 * total energy  :  -127.8496493 Eh     change       -0.8555739E-06 Eh
 * total energy  :  -127.8496499 Eh     change       -0.5691905E-06 Eh
 * total energy  :  -127.8496511 Eh     change       -0.1190717E-05 Eh
 * total energy  :  -127.8496516 Eh     change       -0.5044423E-06 Eh
 * total energy  :  -127.8496520 Eh     change       -0.3910774E-06 Eh
 * total energy  :  -127.8496524 Eh     change       -0.4369807E-06 Eh
 * total energy  :  -127.8496529 Eh     change       -0.5214772E-06 Eh
 * total energy  :  -127.8496533 Eh     change       -0.3124634E-06 Eh
 * total energy  :  -127.8496532 Eh     change        0.4833463E-07 Eh
 * total energy  :  -127.8496604 Eh     change        0.3624493E-06 Eh
 * total energy  :  -127.8496598 Eh     change        0.5623827E-06 Eh
 * total energy  :  -127.8496601 Eh     change       -0.3176501E-06 Eh
 * total energy  :  -127.8496607 Eh     change       -0.5891950E-06 Eh
 * total energy  :  -127.8496614 Eh     change       -0.6733816E-06 Eh
 * total energy  :  -127.8496617 Eh     change       -0.3095340E-06 Eh
 * total energy  :  -127.8496616 Eh     change        0.9345487E-07 Eh
 * total energy  :  -127.8496618 Eh     change       -0.2280036E-06 Eh
 * total energy  :  -127.8496619 Eh     change       -0.8273481E-07 Eh
   *** GEOMETRY OPTIMIZATION CONVERGED AFTER 50 ITERATIONS ***

 final structure:
================
94
 xtb: 6.7.1 (edcfbbe)
C           -3.18669800491351       -4.94573611076183       -3.21664505615228
C           -2.99836302546943       -3.74046483396615       -2.34567824666382
C           -1.72447369421535       -3.30035634498612       -2.00663245255197
C           -1.54366419403718       -2.17726818447735       -1.22757595443867
C           -2.63308394924851       -1.44882146159020       -0.75845376046365
N           -2.40681354665874       -0.30403320507482        0.02183959590442
C           -3.43826778110174        0.63522560085309        0.14434322804879
C           -4.11220899209965        1.07396943730223       -0.99962251968114
C           -5.10286406306799        2.02816322463758       -0.90782445603416
C           -5.45726266438762        2.58443101681605        0.31716769362158
C           -6.52010656605205        3.63810100512113        0.39779685687084
C           -4.78659379373785        2.14706722725019        1.45024723261645
C           -3.79653672448364        1.18563028054909        1.37415248647667
C           -1.51620896227310       -0.43835219431545        1.13130756754889
C           -1.80814637722635       -1.47275460494994        2.01887554408331
C           -1.13355290170617       -1.61796784536021        3.21206301358388
C           -0.16413213752722       -0.69036378487487        3.54023871716081
C            0.17048094777404        0.30241775354843        2.63899260659267
C           -0.44895858076129        0.43750728184912        1.39894332495370
C            0.02962612612026        1.50228402454247        0.40500030561162
C            0.26950991385773        0.78749144467408       -0.93019424226964
C           -0.63502965714511        0.91038975007427       -1.98197099221844
C           -0.47939504738722        0.25684140611674       -3.19016625415838
C            0.61680432346829       -0.55768045839345       -3.39815577965757
C            1.54867894204336       -0.67445196253593       -2.38928112588269
C            1.40028634716924       -0.01586248394980       -1.16822443338524
N            2.49957703225551       -0.15035316372313       -0.27030914192123
C            2.42556710363786       -0.99572769203683        0.84215196833870
C            3.15976207572562       -0.71089570721204        1.99466042203156
C            3.09371335931218       -1.54459546547508        3.09246187084194
C            2.29028676655229       -2.67717379694674        3.08851354243324
C            2.21583714342519       -3.58537362261338        4.27821127041703
C            1.56230240799429       -2.95830577997980        1.93947213349455
C            1.63269223116059       -2.13957192055967        0.83145291715275
C            3.73962542861532        0.26888873169740       -0.75918479136374
C            3.81309348232950        1.34236669279929       -1.65101029387716
C            5.02976793654221        1.77625483872334       -2.13370099342083
C            6.21846002727655        1.16378793989894       -1.75417780020994
C            7.53162031412243        1.65062617894704       -2.28852426160334
C            6.14185195426257        0.08315684334179       -0.88702027597103
C            4.92917162338521       -0.36546794964826       -0.40139522121124
C           -1.04339810775828        2.61507033043308        0.35104793497957
C           -0.48772321004018        3.91794773205927       -0.21383883898076
C            0.48265732903005        4.55522331183706        0.78622227125770
C            1.13708818839245        3.46860142228143        1.64317705621446
C            1.35066091976807        2.20638068907213        0.81185275964886
C           -3.91317181044588       -1.90076374682766       -1.07556573101224
C           -4.08449632123149       -3.02308886390548       -1.86256452911499
H           -2.48606293437945       -5.73247534221332       -2.94341852459150
H           -3.00666901401187       -4.68661908792346       -4.26072399140156
H           -4.19981840493572       -5.33173602466350       -3.13265222769176
H           -0.85993051229446       -3.84264900905790       -2.36294299878939
H           -0.55344102470320       -1.83936424648205       -0.97821869946104
H           -3.84730275012984        0.65767159896705       -1.96066719613667
H           -5.60940090248956        2.35368310906002       -1.80556304412108
H           -6.12222798876676        4.59984416077112        0.07147494310188
H           -6.88081284189434        3.74829402621805        1.41760601084617
H           -7.36028618290743        3.38918367967403       -0.24776370162109
H           -5.04713950416076        2.55779782792277        2.41559403602045
H           -3.29601585604688        0.85890282017202        2.27345980068384
H           -2.61084584130067       -2.15048668874321        1.76237079528927
H           -1.38810208428560       -2.42004671058283        3.88846092707122
H            0.34434450157848       -0.74095799057246        4.49092305487091
H            0.94219841631904        0.99329745622484        2.93154676149629
H           -1.49465563123878        1.54877922865923       -1.87886835406707
H           -1.21716454979796        0.38981233410727       -3.96730082148378
H            0.75002567687109       -1.08527240962171       -4.33029272743283
H            2.43197034086705       -1.28169604743556       -2.53223136006009
H            3.79284720804272        0.16475478876663        2.02265013567214
H            3.67364161806378       -1.30400929247488        3.97262942853204
H            2.72302607160937       -4.52745588095423        4.06826414112950
H            2.68670823755824       -3.13011982868480        5.14614045876341
H            1.17900334864609       -3.81317124702718        4.51925158859476
H            0.93801082947105       -3.83969107689734        1.90577568394081
H            1.08560862424131       -2.40125016147332       -0.05966332210995
H            2.90737489452570        1.83042580366637       -1.97950340777079
H            5.05832872313448        2.61124201455919       -2.81967446552722
H            7.58853476853499        1.48504574449271       -3.36452211048011
H            8.36048474328406        1.12936291588697       -1.81605526721525
H            7.64465007465498        2.71939567950962       -2.11108483542298
H            7.04652101320776       -0.42950199938028       -0.59125659489529
H            4.90417312636604       -1.22549380992447        0.25097570851136
H           -1.91215558405493        2.30914303950723       -0.21930140762543
H           -1.39734850703230        2.79534721175616        1.36837880479594
H            0.01786665332830        3.71068184209597       -1.15893140656176
H           -1.30988737303880        4.60354806799633       -0.42747485412903
H            1.24848186445585        5.11799706215268        0.24916539999606
H           -0.04883779509766        5.25831439692274        1.43030047090893
H            2.10152016319013        3.82113284640354        2.01541976333013
H            0.51438460185304        3.24809160753804        2.51139030535977
H            1.86891768066185        2.50688387829755       -0.09967654756103
H            2.01065959379788        1.52710010152478        1.34085871191025
H           -4.77965768933898       -1.37876575635277       -0.69657209328272
H           -5.08734767910190       -3.35373080474358       -2.09461846422313

          :  Hamiltonian                  GFN2-xTB          :
         :: gradient norm              0.000044838587 Eh/a0 ::
         :: HOMO-LUMO gap              3.028024883324 eV    ::
         :: SCC energy              -130.144968794190 Eh    ::
         :: -> dispersion             -0.144498332705 Eh    ::
         :: repulsion energy           2.295306863133 Eh    ::

    * Orbital Energies and Occupations

         #    Occupation            Energy/Eh            Energy/eV
      -------------------------------------------------------------
         1        2.0000           -0.6541909             -17.8014
       ...           ...                  ...                  ...
       108        2.0000           -0.4012076             -10.9174
       109        2.0000           -0.3991428             -10.8612
       110        2.0000           -0.3979487             -10.8287
       111        2.0000           -0.3967206             -10.7953
       112        2.0000           -0.3955677             -10.7639
       113        2.0000           -0.3937551             -10.7146
       114        2.0000           -0.3923673             -10.6769
       115        2.0000           -0.3918385             -10.6625
       116        2.0000           -0.3888702             -10.5817
       117        2.0000           -0.3853893             -10.4870
       118        2.0000           -0.3834712             -10.4348
       119        2.0000           -0.3400099              -9.2521
       120        2.0000           -0.3384378              -9.2094 (HOMO)
       121                         -0.2271599              -6.1813 (LUMO)
       122                         -0.2235794              -6.0839
       123                         -0.2224834              -6.0541
       124                         -0.2184147              -5.9434
       125                         -0.2176114              -5.9215
       126                         -0.2159208              -5.8755
       127                         -0.2145097              -5.8371
       128                         -0.2130784              -5.7982
       129                         -0.2106412              -5.7318
       130                         -0.2095773              -5.7029
       131                         -0.1916468              -5.2150
       ...                                ...                  ...
       238                          0.6827277              18.5780
      -------------------------------------------------------------
                  HL-Gap            0.1112779 Eh            3.0280 eV

     #   Z          covCN         q      C6AA      α(0)
     1   6 C        3.757    -0.107    22.592     6.777
     2   6 C        2.966     0.007    27.864     8.658
     3   6 C        2.925    -0.040    28.994     8.830
     4   6 C        2.925    -0.052    29.292     8.876
     5   6 C        2.927     0.062    26.604     8.459
     6   7 N        2.750    -0.101    23.224     7.157
     7   6 C        2.927     0.065    26.539     8.448
     8   6 C        2.922    -0.052    29.293     8.876
     9   6 C        2.925    -0.042    29.036     8.837
    10   6 C        2.965     0.006    27.881     8.661
    11   6 C        3.757    -0.107    22.596     6.777
    12   6 C        2.925    -0.040    28.995     8.830
    13   6 C        2.920    -0.054    29.336     8.882
    14   6 C        2.931     0.059    26.667     8.469
    15   6 C        2.929    -0.043    29.062     8.841
    16   6 C        2.917    -0.032    28.807     8.801
    17   6 C        2.920    -0.034    28.852     8.808
    18   6 C        2.929    -0.040    28.984     8.829
    19   6 C        2.970    -0.000    28.030     8.684
    20   6 C        3.903     0.016    20.243     6.395
    21   6 C        2.969     0.002    27.988     8.678
    22   6 C        2.928    -0.035    28.874     8.812
    23   6 C        2.920    -0.034    28.835     8.806
    24   6 C        2.916    -0.032    28.796     8.800
    25   6 C        2.930    -0.042    29.032     8.836
    26   6 C        2.929     0.058    26.700     8.474
    27   7 N        2.751    -0.093    23.062     7.132
    28   6 C        2.918     0.063    26.586     8.455
    29   6 C        2.923    -0.050    29.239     8.867
    30   6 C        2.925    -0.041    29.009     8.833
    31   6 C        2.966     0.009    27.825     8.652
    32   6 C        3.757    -0.106    22.577     6.774
    33   6 C        2.926    -0.039    28.964     8.826
    34   6 C        2.923    -0.052    29.284     8.874
    35   6 C        2.928     0.062    26.613     8.460
    36   6 C        2.923    -0.053    29.328     8.881
    37   6 C        2.925    -0.041    29.019     8.834
    38   6 C        2.965     0.005    27.916     8.666
    39   6 C        3.757    -0.107    22.589     6.776
    40   6 C        2.925    -0.041    29.007     8.832
    41   6 C        2.921    -0.056    29.380     8.889
    42   6 C        3.813    -0.059    21.627     6.619
    43   6 C        3.804    -0.053    21.523     6.605
    44   6 C        3.805    -0.056    21.573     6.612
    45   6 C        3.803    -0.053    21.528     6.606
    46   6 C        3.812    -0.064    21.718     6.633
    47   6 C        2.921    -0.053    29.308     8.878
    48   6 C        2.925    -0.041    29.028     8.835
    49   1 H        0.925     0.041     2.436     2.441
    50   1 H        0.924     0.043     2.404     2.425
    51   1 H        0.925     0.039     2.461     2.453
    52   1 H        0.926     0.027     2.635     2.538
    53   1 H        0.926     0.030     2.592     2.517
    54   1 H        0.926     0.031     2.569     2.507
    55   1 H        0.926     0.028     2.614     2.528
    56   1 H        0.924     0.043     2.407     2.426
    57   1 H        0.925     0.039     2.463     2.454
    58   1 H        0.925     0.041     2.435     2.440
    59   1 H        0.926     0.027     2.633     2.537
    60   1 H        0.926     0.025     2.664     2.552
    61   1 H        0.925     0.031     2.568     2.506
    62   1 H        0.926     0.029     2.600     2.522
    63   1 H        0.926     0.032     2.563     2.504
    64   1 H        0.926     0.043     2.404     2.425
    65   1 H        0.926     0.045     2.389     2.417
    66   1 H        0.926     0.029     2.604     2.523
    67   1 H        0.926     0.031     2.578     2.511
    68   1 H        0.925     0.031     2.569     2.506
    69   1 H        0.926     0.031     2.575     2.510
    70   1 H        0.926     0.028     2.614     2.528
    71   1 H        0.924     0.044     2.403     2.424
    72   1 H        0.925     0.039     2.466     2.456
    73   1 H        0.925     0.042     2.420     2.433
    74   1 H        0.926     0.028     2.612     2.527
    75   1 H        0.926     0.028     2.611     2.527
    76   1 H        0.926     0.023     2.688     2.564
    77   1 H        0.926     0.027     2.634     2.538
    78   1 H        0.925     0.042     2.425     2.435
    79   1 H        0.925     0.038     2.477     2.461
    80   1 H        0.925     0.041     2.434     2.440
    81   1 H        0.926     0.026     2.643     2.542
    82   1 H        0.926     0.028     2.613     2.528
    83   1 H        0.925     0.040     2.444     2.445
    84   1 H        0.924     0.035     2.522     2.484
    85   1 H        0.924     0.031     2.572     2.508
    86   1 H        0.924     0.026     2.649     2.545
    87   1 H        0.924     0.027     2.635     2.539
    88   1 H        0.924     0.026     2.649     2.545
    89   1 H        0.924     0.025     2.656     2.549
    90   1 H        0.924     0.030     2.585     2.514
    91   1 H        0.924     0.041     2.433     2.439
    92   1 H        0.925     0.043     2.404     2.425
    93   1 H        0.926     0.029     2.607     2.525
    94   1 H        0.926     0.027     2.627     2.534

molecular dipole:
                 x           y           z       tot (Debye)
 q only:       -0.049       0.188       0.120
   full:       -0.115      -0.001       0.120       0.424

 projected vibrational frequencies (cm⁻¹)
eigval :       -0.00    -0.00    -0.00    -0.00     0.00     0.00
eigval :      -10.67    12.44    13.44    17.75    18.77    22.67
eigval :       23.78    34.81    40.75    41.65    46.24    51.04
eigval :       52.28    64.16    67.33    77.50    82.33    94.04
eigval :       99.20   113.80   122.07   129.24   132.96   149.55
eigval :      156.60   162.82   169.06   174.18   181.45   191.68
eigval :      228.68   232.92   244.44   259.46   262.60   272.09
eigval :      294.82   307.86   315.08   319.48   328.77   331.45
eigval :      349.01   352.49   357.56   368.93   377.73   379.22
eigval :      385.07   390.83   393.99   398.42   405.02   409.62
eigval :      444.90   451.24   455.69   461.85   473.81   483.29
eigval :      489.00   491.86   514.09   525.94   536.97   552.83
eigval :      553.77   561.82   570.33   574.82   590.61   598.16
eigval :      612.10   612.51   613.38   614.93   646.45   659.35
eigval :      660.66   664.61   665.24   671.22   703.70   707.39
eigval :      719.81   773.40   778.21   791.01   796.16   798.96
eigval :      800.37   804.47   805.52   806.79   809.78   825.41
eigval :      827.11   862.01   869.33   872.54   877.71   878.75
eigval :      879.42   889.83   906.86   910.03   911.83   912.81
eigval :      913.24   916.04   917.42   919.76   923.32   924.72
eigval :      925.96   927.79   930.83   932.85   934.66   936.10
eigval :      937.13   950.08   976.34   992.10  1007.17  1007.97
eigval :     1008.18  1008.47  1009.53  1015.36  1019.85  1026.89
eigval :     1029.46  1032.61  1033.49  1033.70  1033.83  1071.23
eigval :     1091.77  1106.67  1117.30  1124.75  1129.36  1137.04
eigval :     1142.97  1143.55  1147.58  1149.18  1153.12  1161.72
eigval :     1178.39  1179.38  1189.01  1192.74  1198.12  1200.01
eigval :     1202.20  1204.29  1207.06  1210.93  1218.87  1236.29
eigval :     1238.19  1239.61  1241.77  1246.44  1249.15  1263.60
eigval :     1271.07  1271.70  1275.17  1276.89  1279.73  1282.06
eigval :     1295.01  1296.33  1305.54  1307.19  1318.71  1324.51
eigval :     1325.01  1326.37  1331.21  1337.01  1338.31  1342.13
eigval :     1342.88  1351.62  1357.74  1403.87  1405.10  1405.53
eigval :     1405.71  1412.55  1413.27  1417.28  1417.65  1424.79
eigval :     1425.75  1465.90  1467.97  1483.57  1483.99  1484.09
eigval :     1484.15  1487.37  1487.79  1487.92  1489.10  1490.68
eigval :     1493.79  1496.99  1497.38  1497.98  1500.68  1505.37
eigval :     1519.53  1531.65  1566.88  1568.01  1569.56  1570.99
eigval :     1575.43  1576.77  1591.13  1594.21  1610.24  1611.63
eigval :     1613.80  1614.60  2958.82  2967.72  2974.76  2980.85
eigval :     2983.77  2990.32  2992.35  2992.61  2992.86  2997.09
eigval :     2998.07  3001.25  3015.57  3023.11  3025.86  3026.41
eigval :     3039.05  3039.93  3040.36  3042.26  3063.84  3065.83
eigval :     3067.29  3068.08  3069.30  3070.22  3070.77  3071.42
eigval :     3071.98  3072.51  3076.11  3079.24  3080.28  3081.98
eigval :     3082.32  3085.44  3085.60  3087.55  3091.17  3091.74
eigval :     3093.54  3094.14  3114.23  3130.83  3138.21  3148.65

   temp. (K)  partition function   enthalpy   heat capacity  entropy
                                   cal/mol     cal/K/mol   cal/K/mol   J/K/mol
 298.15  VIB  0.119E+23            26155.397    157.495    166.274
         ROT  0.534E+08              888.752      2.981     38.339
         INT  0.636E+30            27044.149    160.475    204.614
         TR   0.152E+29             1481.254      4.968     45.169
         TOT                       28525.4030   165.4435   249.7826  1045.0904

       T/K    H(0)-H(T)+PV         H(T)/Eh          T*S/Eh         G(T)/Eh
   ------------------------------------------------------------------------
    298.15    0.454581E-01    0.824659E+00    0.118680E+00    0.705979E+00
   ------------------------------------------------------------------------

         :::::::::::::::::::::::::::::::::::::::::::::::::::::
         ::                  THERMODYNAMIC                  ::
         :::::::::::::::::::::::::::::::::::::::::::::::::::::
         :: total free energy        -127.143682483447 Eh   ::
         ::.................................................::
         :: total energy             -127.849661931058 Eh   ::
         :: zero point energy           0.779201098855 Eh   ::
         :: G(RRHO) w/o ZPVE           -0.073221651245 Eh   ::
         :: G(RRHO) contrib.            0.705979447611 Eh   ::
         :::::::::::::::::::::::::::::::::::::::::::::::::::::

           -------------------------------------------------
          | TOTAL ENERGY             -127.849661931058 Eh   |
          | TOTAL ENTHALPY           -127.025002708994 Eh   |
          | TOTAL FREE ENERGY        -127.143682483447 Eh   |
          | GRADIENT NORM               0.000044846321 Eh/α |
          | HOMO-LUMO GAP               3.028025411246 eV   |
           -------------------------------------------------

 * finished run on 2025/08/29 at 20:49:58.934
