   * xtb version 6.7.1 (edcfbbe) compiled by 'albert@albert-system' on 2024-07-22

   ID    Z sym.   atoms
    1    6 C      1-5, 7-26, 28-48
    2    7 N      6, 27
    3    1 H      49-94

          program call               : xtb data2507/gas/C2MPI/C2MPI_gas_T1_crest.xyz --gfn 2 --spinpol --tblite --uhf 2 --ohess vtight --parallel 40 --molden --ceasefiles --namespace data2507/gas/C2MPI/C2MPI_gas_T1_finalOpt
 * total energy  :  -127.7452348 Eh     change        0.1759304E-09 Eh
 * total energy  :  -127.7452705 Eh     change       -0.3573066E-04 Eh
 * total energy  :  -127.7452882 Eh     change       -0.1764896E-04 Eh
 * total energy  :  -127.7452933 Eh     change       -0.5084181E-05 Eh
 * total energy  :  -127.7452969 Eh     change       -0.3591512E-05 Eh
 * total energy  :  -127.7452997 Eh     change       -0.2852955E-05 Eh
 * total energy  :  -127.7453036 Eh     change       -0.3847921E-05 Eh
 * total energy  :  -127.7453064 Eh     change       -0.2857307E-05 Eh
 * total energy  :  -127.7453086 Eh     change       -0.2154041E-05 Eh
 * total energy  :  -127.7453103 Eh     change       -0.1697780E-05 Eh
 * total energy  :  -127.7454863 Eh     change       -0.9602547E-06 Eh
 * total energy  :  -127.7454867 Eh     change       -0.4000622E-06 Eh
 * total energy  :  -127.7454871 Eh     change       -0.4366403E-06 Eh
 * total energy  :  -127.7454874 Eh     change       -0.2978955E-06 Eh
 * total energy  :  -127.7454879 Eh     change       -0.4818237E-06 Eh
 * total energy  :  -127.7454881 Eh     change       -0.2209525E-06 Eh
 * total energy  :  -127.7454883 Eh     change       -0.1810936E-06 Eh
 * total energy  :  -127.7454884 Eh     change       -0.1113196E-06 Eh
 * total energy  :  -127.7454885 Eh     change       -0.9446710E-07 Eh
   *** GEOMETRY OPTIMIZATION CONVERGED AFTER 147 ITERATIONS ***

 final structure:
================
94
 xtb: 6.7.1 (edcfbbe)
C            0.80611181947425       -5.63551920515973       -2.34069668674949
C            0.11070396815635       -4.53327667668830       -1.60895096608731
C            0.85842344085843       -3.57045506250337       -0.90471200710200
C            0.24104723449091       -2.54330872467220       -0.24205571033597
C           -1.16067905555562       -2.42178563366028       -0.24852065182787
N           -1.75995135751546       -1.35802110672836        0.39497116917203
C           -3.03126900657124       -0.94243844861837        0.07156110585411
C           -3.48994252252063       -0.94892813408939       -1.28566336252423
C           -4.73623239677150       -0.47407406469348       -1.59179803165812
C           -5.60210408875978        0.01463442867968       -0.60613320468390
C           -6.96263871796027        0.53277390742386       -0.93773899041833
C           -5.14780021237123        0.01837733542094        0.73610986726270
C           -3.90083044680134       -0.42835932284112        1.06473906787648
C           -1.14470583749755       -0.82638571971510        1.54743325195026
C           -0.87276062331678       -1.77214076187805        2.56096410642216
C           -0.54036442866402       -1.39378200456995        3.83146226291955
C           -0.46675641477178       -0.02877979142205        4.13394803294731
C           -0.62991741988923        0.90002609398849        3.11836627185424
C           -0.92346762005893        0.55817716004073        1.80396795127967
C           -0.87002287507016        1.69113730494934        0.77202010546965
C            0.42647948709138        2.45322871337532        1.07661279284523
C            0.37808726471338        3.61740051775573        1.85647401715023
C            1.49910985883171        4.29260346220052        2.28937752901741
C            2.76209902597864        3.81358731150264        1.97702853043181
C            2.84919389725056        2.67108013631669        1.20859841400898
C            1.72020814493611        2.00264088619719        0.74290429688844
N            2.00037462836531        0.85676170292190       -0.07147201300151
C            2.12340525966752        1.05923058875024       -1.45509782117294
C            1.86802864445717        0.01130883148481       -2.34346482761228
C            1.95332769595984        0.21030863607526       -3.70575952791791
C            2.28602190764605        1.45224954928079       -4.23388393549097
C            2.35510788166060        1.67126534756298       -5.71442543803604
C            2.52550372412058        2.49474422667213       -3.34825915475863
C            2.44523461406941        2.30881381440661       -1.98196365214459
C            2.64859936757116       -0.20399034851814        0.55524040078143
C            2.38363721780960       -0.46925247863837        1.90296828316790
C            2.97098105875448       -1.54170680098468        2.53816814850801
C            3.85456389598825       -2.38247237928665        1.87015449291225
C            4.45600615183376       -3.56853524953664        2.55979088516089
C            4.15282304561915       -2.08937214040486        0.54578144607519
C            3.57234053712534       -1.01880186694135       -0.10452110436038
C           -0.91804226195884        1.23299188152992       -0.69010225640606
C           -0.86178826978019        2.42975619331896       -1.63458864846387
C           -2.12727582493398        3.26057512086198       -1.45536220960138
C           -2.22235735436825        3.73029985782073       -0.00842941437015
C           -2.14554785074973        2.55009940596784        0.95951516529180
C           -1.91793798307500       -3.41371784851140       -0.91693048728719
C           -1.28024159251173       -4.43256666831012       -1.58338332504831
H            1.45927837583983       -6.18984069298364       -1.66638787965103
H            1.42950150713669       -5.22860943563882       -3.13803514626759
H            0.09055714836378       -6.32615062864634       -2.77995864184348
H            1.93638126171524       -3.64191869178007       -0.89057411611354
H            0.82245213314599       -1.81014855925559        0.29452687326077
H           -2.81689603980836       -1.27653976585056       -2.06322878125424
H           -5.05912501473089       -0.46496875258576       -2.62374702339877
H           -7.17498045706650        0.42168836320894       -1.99830544953888
H           -7.04596380320991        1.58927171455116       -0.67614311044977
H           -7.72592637546721       -0.00294147477692       -0.37152692587487
H           -5.81075643496893        0.38089356752583        1.50795238424759
H           -3.57201269707082       -0.43819511852233        2.09372116170353
H           -0.99411643317294       -2.81782744258835        2.31428081909223
H           -0.36126905048891       -2.13492712097205        4.59530649360785
H           -0.24875996924513        0.29979155235882        5.13785007797187
H           -0.48655651979255        1.94099483212780        3.36530114459415
H           -0.57566616081091        4.01764638916423        2.15717210053318
H            1.38695548041134        5.18782334990370        2.88346076237883
H            3.65262867831912        4.31719316170766        2.31959120000682
H            3.81848802153093        2.26962630722408        0.94416673859423
H            1.58639392125399       -0.95928207052854       -1.96138596404436
H            1.74833256181411       -0.61567134787832       -4.37214451345092
H            2.53682243486024        0.73560899922875       -6.23795158389049
H            1.41227854174199        2.08403039967398       -6.07577766271456
H            3.14545709615893        2.37579220086881       -5.96481482448549
H            2.78415068961807        3.47093834837378       -3.73336287545978
H            2.64325707244344        3.13702404930912       -1.31798140623956
H            1.70328723158950        0.16710455542866        2.44507663459964
H            2.73309301918138       -1.73033843241071        3.57492057103528
H            5.34983301756869       -3.90875976692323        2.04198330707664
H            3.74015559671499       -4.39147525221137        2.58049676275174
H            4.71476041278215       -3.32658664966778        3.58867114777130
H            4.86358807415886       -2.70416328623992        0.01082436882586
H            3.85020342205191       -0.80445334305662       -1.12533097200967
H           -0.13020651463960        0.51977591831081       -0.90757059345270
H           -1.87083425319215        0.74534442180003       -0.87888989625345
H            0.01258841123724        3.04777751083818       -1.42507542811302
H           -0.78103933559686        2.07607063640144       -2.66489910073236
H           -2.11652215097044        4.12224319455618       -2.12637442400856
H           -3.00015303593533        2.65072566327419       -1.70321716497061
H           -1.40957152375663        4.43300293744558        0.18116904664533
H           -3.16584037935294        4.25834372223501        0.15191859857226
H           -2.24104368991485        2.89474986086981        1.99000947651333
H           -2.99962531727052        1.89423054870706        0.77287669594016
H           -2.99505503175139       -3.38775051751123       -0.85822747627033
H           -1.87223620381655       -5.18610057427371       -2.08393112114981

 projected vibrational frequencies (cm⁻¹)
eigval :       -0.00    -0.00    -0.00    -0.00     0.00     0.00
eigval :       -6.00    16.55    18.76    27.69    30.23    30.93
eigval :       33.20    36.19    40.67    41.32    46.69    49.99
eigval :       57.68    62.33    66.05    70.79    85.81    96.05
eigval :      101.84   105.59   116.67   127.02   133.72   143.95
eigval :      148.31   159.99   168.75   179.98   187.76   211.04
eigval :      230.25   242.09   252.61   261.86   267.48   271.91
eigval :      284.11   290.39   304.67   316.27   319.93   324.78
eigval :      338.11   340.96   359.00   361.02   371.10   377.59
eigval :      378.36   387.92   391.85   392.23   397.23   409.10
eigval :      416.69   420.30   437.58   445.53   451.16   466.94
eigval :      476.98   485.32   502.53   516.77   525.48   531.23
eigval :      544.03   555.76   558.34   564.86   577.37   592.81
eigval :      601.31   606.43   611.07   611.22   613.58   634.02
eigval :      641.97   650.02   658.72   662.16   668.45   698.22
eigval :      708.20   723.12   742.17   765.54   769.25   781.77
eigval :      791.69   795.34   802.59   809.22   810.79   819.48
eigval :      825.07   827.56   835.92   840.01   852.58   863.10
eigval :      873.29   876.37   878.25   884.31   888.74   892.98
eigval :      896.55   899.41   907.16   907.23   908.81   911.81
eigval :      915.22   916.43   919.87   924.49   927.08   932.96
eigval :      942.49   947.66   950.32   960.81   968.58   976.80
eigval :      986.93   989.65   998.25  1008.14  1008.70  1014.84
eigval :     1018.14  1022.39  1025.94  1031.88  1032.18  1066.28
eigval :     1071.54  1087.64  1091.99  1100.98  1102.67  1105.47
eigval :     1125.95  1126.94  1136.64  1140.78  1146.90  1150.06
eigval :     1152.31  1153.47  1154.61  1160.44  1173.38  1175.19
eigval :     1179.19  1187.47  1197.41  1201.21  1203.23  1207.90
eigval :     1210.12  1226.52  1238.73  1240.61  1243.43  1245.26
eigval :     1248.53  1254.60  1259.40  1263.85  1276.81  1278.59
eigval :     1279.00  1292.53  1293.77  1295.97  1308.79  1311.38
eigval :     1316.30  1317.68  1323.25  1328.27  1333.01  1335.14
eigval :     1338.80  1339.91  1345.23  1350.12  1354.61  1363.46
eigval :     1375.63  1400.73  1401.31  1403.04  1403.96  1404.42
eigval :     1412.30  1418.49  1423.09  1433.74  1435.28  1443.49
eigval :     1452.23  1454.34  1468.87  1473.16  1475.28  1476.07
eigval :     1476.75  1482.20  1482.67  1483.09  1484.40  1486.42
eigval :     1488.39  1489.97  1490.11  1491.57  1492.48  1497.24
eigval :     1506.00  1524.93  1526.63  1561.49  1567.32  1584.88
eigval :     1600.08  1606.46  2956.05  2961.39  2967.31  2968.96
eigval :     2969.99  2978.96  2983.74  2990.23  2991.48  2991.62
eigval :     2991.83  2992.13  2996.49  3002.80  3028.38  3031.17
eigval :     3036.70  3038.45  3040.04  3042.12  3047.42  3064.75
eigval :     3064.83  3065.91  3066.05  3068.64  3070.75  3073.45
eigval :     3074.65  3076.17  3076.38  3079.57  3080.86  3084.16
eigval :     3087.42  3088.16  3088.52  3091.22  3091.43  3093.21
eigval :     3093.50  3094.94  3101.49  3112.84  3121.01  3122.20

   temp. (K)  partition function   enthalpy   heat capacity  entropy
                                   cal/mol     cal/K/mol   cal/K/mol   J/K/mol
 298.15  VIB  0.378E+22            26500.185    161.061    167.475
         ROT  0.482E+08              888.752      2.981     38.139
         INT  0.182E+30            27388.938    164.042    205.614
         TR   0.152E+29             1481.254      4.968     45.169
         TOT                       28870.1915   169.0097   250.7829  1049.2755

       T/K    H(0)-H(T)+PV         H(T)/Eh          T*S/Eh         G(T)/Eh
   ------------------------------------------------------------------------
    298.15    0.460076E-01    0.816799E+00    0.119155E+00    0.697644E+00
   ------------------------------------------------------------------------

         :::::::::::::::::::::::::::::::::::::::::::::::::::::
         ::                  THERMODYNAMIC                  ::
         :::::::::::::::::::::::::::::::::::::::::::::::::::::
         :: total free energy        -127.047844312101 Eh   ::
         ::.................................................::
         :: total energy             -127.745488507530 Eh   ::
         :: zero point energy           0.770791648537 Eh   ::
         :: G(RRHO) w/o ZPVE           -0.073147453108 Eh   ::
         :: G(RRHO) contrib.            0.697644195429 Eh   ::
         :::::::::::::::::::::::::::::::::::::::::::::::::::::

           -------------------------------------------------
          | TOTAL ENERGY             -127.745488507530 Eh   |
          | TOTAL ENTHALPY           -126.928689280254 Eh   |
          | TOTAL FREE ENERGY        -127.047844312101 Eh   |
          | GRADIENT NORM               0.000170037415 Eh/α |
           -------------------------------------------------

 * finished run on 2025/08/29 at 21:07:26.509
