   * xtb version 6.7.1 (edcfbbe) compiled by 'albert@albert-system' on 2024-07-22

   ID    Z sym.   atoms
    1    6 C      1-14, 16-20, 22-26, 28-44, 46-50, 52-68, 70-72
    2    7 N      15, 21, 27, 45, 51, 69
    3    1 H      73-126

          program call               : xtb data2507/toluene/2MeCZ-TRZ/2MeCZ-TRZ_toluene_S0_crest.xyz --gfn 2 --gbsa toluene --ohess vtight --parallel 40 --molden --ceasefiles --namespace data2507/toluene/2MeCZ-TRZ/2MeCZ-TRZ_toluene_S0_finalOpt
      * Solvation model:               GBSA
        Solvent                        toluene
        Solvent mass                       9.2140E+01 g/mol
          :  Hamiltonian                  GFN2-xTB          :
 * total energy  :  -186.6996327 Eh     change       -0.2950202E-08 Eh
 * total energy  :  -186.6996801 Eh     change       -0.4739106E-04 Eh
 * total energy  :  -186.6996955 Eh     change       -0.1531737E-04 Eh
 * total energy  :  -186.6997019 Eh     change       -0.6401283E-05 Eh
 * total energy  :  -186.6997071 Eh     change       -0.5193615E-05 Eh
 * total energy  :  -186.6997115 Eh     change       -0.4476115E-05 Eh
 * total energy  :  -186.6997160 Eh     change       -0.4424597E-05 Eh
 * total energy  :  -186.6997193 Eh     change       -0.3368976E-05 Eh
 * total energy  :  -186.6997226 Eh     change       -0.3294978E-05 Eh
 * total energy  :  -186.6997258 Eh     change       -0.3161089E-05 Eh
 * total energy  :  -186.6997741 Eh     change       -0.1803172E-06 Eh
 * total energy  :  -186.6997743 Eh     change       -0.1356828E-06 Eh
 * total energy  :  -186.6997744 Eh     change       -0.1447104E-06 Eh
 * total energy  :  -186.6997746 Eh     change       -0.2257991E-06 Eh
 * total energy  :  -186.6997749 Eh     change       -0.2912246E-06 Eh
 * total energy  :  -186.6997752 Eh     change       -0.2867915E-06 Eh
 * total energy  :  -186.6997756 Eh     change       -0.3677468E-06 Eh
 * total energy  :  -186.6997759 Eh     change       -0.2825615E-06 Eh
 * total energy  :  -186.6997759 Eh     change       -0.7151584E-08 Eh
   *** GEOMETRY OPTIMIZATION CONVERGED AFTER 68 ITERATIONS ***

 final structure:
================
126
 xtb: 6.7.1 (edcfbbe)
C            7.41241199259169       -8.27083026237610       -3.11993403864159
C            6.38765187583937       -7.61426138429616       -2.24177761349306
C            5.85131195956521       -6.37793653109731       -2.61974290371264
C            4.91204079044457       -5.71764728459088       -1.85320594397330
C            4.51014885767661       -6.31319166479079       -0.66624256680872
C            5.01029037395607       -7.57731422919415       -0.28279356120581
C            5.95549158267536       -8.21857891291963       -1.07402201044489
C            4.33361617081192       -7.93046921975419        0.93489415804445
C            4.39978196387546       -9.02775698960331        1.78499053679565
C            3.59575843349765       -9.06481253085837        2.91089493048987
C            3.63870516301488      -10.23101697705968        3.85466283832419
C            2.73496548647812       -7.99463332061172        3.18201077260988
C            2.65105050244243       -6.89029448590591        2.35796382431283
C            3.44979138624268       -6.86729460845619        1.22402886853561
N            3.58069162741762       -5.88668416387815        0.26047281253759
C            2.86712270865293       -4.67858607350079        0.22400554937764
C            1.47701504774184       -4.71905174400043        0.12945304433031
C            0.74355838103645       -3.55377047629635        0.08158718693036
C            1.39700918725357       -2.32275500677620        0.12667964479141
C            0.63417788634993       -1.07804516916088        0.06319732729419
N            1.30867115141564        0.06940011729987        0.05645786672292
C            0.57329245007703        1.17712188382519       -0.00754758450822
C            1.26876601864784        2.46237326713552       -0.00888596256382
C            0.54921375104339        3.65494948808340       -0.07451025709110
C            1.22014091414172        4.85833617745451       -0.08052569570784
C            2.61215048438183        4.89483140009694       -0.01942132204788
N            3.26074568015883        6.13969016810483       -0.03473284903548
C            4.14175112600701        6.58900357114272       -0.99739067771880
C            4.54693515567712        5.98246038252241       -2.17773666590242
C            5.42863874029410        6.67100258468110       -2.98671208453453
C            5.90392575535643        7.94575625754314       -2.65782710552806
C            6.86040568311424        8.63692895413478       -3.58515406008110
C            5.46888705094579        8.55833648224798       -1.49546139634080
C            4.58154636033300        7.88876673831772       -0.66183394130722
C            3.91823610325281        8.23927968830272        0.56383624989749
C            3.94728727789992        9.36192130673856        1.38230000372838
C            3.17161052403389        9.38796104675400        2.52814941934161
C            3.17496408046202       10.58101061463634        3.43866404536471
C            2.37751225815487        8.28131560040473        2.85126668030320
C            2.33208888338700        7.15132010070755        2.05963671315354
C            3.10131487789751        7.13879849678903        0.90529217426921
C            3.34976103318546        3.70666595999514        0.08055808924550
C            4.83972561483770        3.72573247839511        0.23245122260664
C            2.65885541839019        2.50641251128904        0.07365205450318
N           -0.75637747097698        1.18654185891455       -0.06889150317212
C           -1.34828622281132       -0.00552801088470       -0.05401930144855
C           -2.80768315853859       -0.04801766967196       -0.11302683742651
C           -3.54437612654645        1.12752499904001       -0.25323247515600
C           -4.91969508840996        1.06913777124536       -0.31057735703163
C           -5.58233512048763       -0.15429032180902       -0.22537049246349
N           -6.98452440541920       -0.17139604948195       -0.28356000739673
C           -7.82791661416235        0.46458029114320        0.60633522721818
C           -7.52095104791314        1.20735190574939        1.73701928696387
C           -8.56953981179428        1.71431092463178        2.47812956922065
C           -9.90685057929729        1.49219132251511        2.12895888381644
C          -10.99585529094379        2.07932555547087        2.97861489984201
C          -10.20466395255709        0.73662416317172        1.00827145336166
C           -9.16945066344231        0.21700741634430        0.24063378791513
C           -9.12484655886995       -0.59025921270357       -0.94744649927475
C          -10.10129435372553       -1.11997388372713       -1.78198751369623
C           -9.72161730494699       -1.83657610584619       -2.90362897142270
C          -10.74568858987680       -2.43435699013446       -3.82353561213091
C           -8.36171516916205       -2.00090308228331       -3.19094448220143
C           -7.37025628711253       -1.48692288117683       -2.37930187067869
C           -7.75838572882631       -0.79927044999047       -1.23840265599310
C           -4.85867587684793       -1.34284824504252       -0.05316376376282
C           -5.55193292506522       -2.65842831568704        0.12606403631263
C           -3.47657440081431       -1.26586090730332       -0.01080519989520
N           -0.69315185942697       -1.16222749102931        0.01387706332562
C            2.78488188208863       -2.28927861687744        0.24313935103195
C            3.53795402086210       -3.45003852052790        0.30419706217021
C            5.02262286764284       -3.38362360362165        0.49043340008200
H            7.72041776844068       -9.22882369985630       -2.70867302704695
H            8.29264333919447       -7.63544236356006       -3.21647068631140
H            7.00950936429469       -8.43451873430580       -4.11913044299934
H            6.18136517035556       -5.93178975832939       -3.54735416999315
H            4.48984286258889       -4.77799717535083       -2.17782739873322
H            6.34176453858563       -9.18396431606390       -0.78096290290791
H            5.07546379849049       -9.84188045708036        1.56653662531299
H            2.64624984914634      -10.66583268638228        3.96915064209334
H            4.31561066438846      -11.00034375509489        3.49175399669465
H            3.97599718677738       -9.90924627503738        4.83997159160925
H            2.11882003568543       -8.03718007880324        4.06907217088268
H            1.98667902609686       -6.07071306834796        2.58945744852481
H            0.98441304342630       -5.67929715516214        0.08326159333270
H           -0.33120167010181       -3.57479743363928       -0.00135192892490
H           -0.52702096355328        3.61713494936426       -0.12732184638583
H            0.67548769978418        5.78917277927675       -0.14172494594691
H            4.17084940900413        5.01180212579768       -2.46546976246471
H            5.76015739098451        6.21671678700321       -3.90986373516474
H            7.19338499079921        9.58291156851979       -3.16557418347919
H            7.73276733989992        8.01110985249688       -3.77020561619473
H            6.38276142654778        8.83318070049097       -4.54525759633371
H            5.80785901737498        9.55157633890047       -1.23922696670842
H            4.57208051538627       10.20442267133172        1.12364588889826
H            2.16476555686805       10.97106565479929        3.55934871202892
H            3.80760925737214       11.37118917244594        3.04223639061765
H            3.54409889148251       10.30357974901227        4.42600202317878
H            1.78316983092267        8.31570014249689        3.75343781982145
H            1.71969972054104        6.30426642277361        2.33183266939982
H            5.18164463045672        2.80244076111470        0.69277674588859
H            5.15164626437217        4.56792701090882        0.84745140293554
H            5.32883380304673        3.82613083824310       -0.73582711401083
H            3.19605626678350        1.57351698153449        0.14899278722836
H           -3.02343872639009        2.06890549074466       -0.32374749900852
H           -5.50173965497643        1.97125225493985       -0.43001878329706
H           -6.49564332103380        1.38126115856504        2.02926999012687
H           -8.35499750247348        2.30033088598465        3.36068688610768
H          -11.97532886052328        1.76309706309513        2.62879211781361
H          -10.95278746132409        3.16817823419002        2.95017593519155
H          -10.87923334905596        1.76938242922534        4.01655823126445
H          -11.23160695026976        0.54902815214559        0.73035461481145
H          -11.14673912513403       -0.96430266722930       -1.55873566888769
H          -11.75130473270241       -2.15250275123285       -3.52175428105590
H          -10.67365008463604       -3.52206630994361       -3.81384410473628
H          -10.58198112157085       -2.09979549118056       -4.84733764218013
H           -8.08258512886978       -2.54274202966831       -4.08368464811015
H           -6.32744315003870       -1.60059898464606       -2.63608399794907
H           -5.82285355152340       -3.09105830823929       -0.83639315724344
H           -4.89983545862357       -3.35816371875730        0.64222392828263
H           -6.46792742807133       -2.53422197702889        0.70078903997566
H           -2.88976089928463       -2.16158722314122        0.12380380513814
H            3.26985086455035       -1.32700737335279        0.30203589610340
H            5.30249768458676       -2.43226716047125        0.93521162147955
H            5.53961320918895       -3.47951545246590       -0.46373270861198
H            5.36537587115468       -4.19235076822801        1.13323342526664

          :  Hamiltonian                  GFN2-xTB          :
         :: gradient norm              0.000056409489 Eh/a0 ::
         :: HOMO-LUMO gap              1.742225991042 eV    ::
         :: SCC energy              -190.058893497773 Eh    ::
         :: -> dispersion             -0.169230715616 Eh    ::
         :: -> Gsolv                  -0.081244875731 Eh    ::
         :: repulsion energy           3.359117634161 Eh    ::

    * Orbital Energies and Occupations

         #    Occupation            Energy/Eh            Energy/eV
      -------------------------------------------------------------
         1        2.0000           -0.6896181             -18.7655
       ...           ...                  ...                  ...
       162        2.0000           -0.4067569             -11.0684
       163        2.0000           -0.4062282             -11.0540
       164        2.0000           -0.3960025             -10.7758
       165        2.0000           -0.3959958             -10.7756
       166        2.0000           -0.3959854             -10.7753
       167        2.0000           -0.3804412             -10.3523
       168        2.0000           -0.3801121             -10.3434
       169        2.0000           -0.3737917             -10.1714
       170        2.0000           -0.3737641             -10.1706
       171        2.0000           -0.3737552             -10.1704
       172        2.0000           -0.3579367              -9.7400
       173        2.0000           -0.3579164              -9.7394
       174        2.0000           -0.3575744              -9.7301 (HOMO)
       175                         -0.2935488              -7.9879 (LUMO)
       176                         -0.2934866              -7.9862
       177                         -0.2541421              -6.9156
       178                         -0.2420271              -6.5859
       179                         -0.2419876              -6.5848
       180                         -0.2411312              -6.5615
       181                         -0.2355122              -6.4086
       182                         -0.2354000              -6.4056
       183                         -0.2353236              -6.4035
       184                         -0.2169026              -5.9022
       185                         -0.2168771              -5.9015
       ...                                ...                  ...
       342                          0.7429505              20.2167
      -------------------------------------------------------------
                  HL-Gap            0.0640256 Eh            1.7422 eV

     #   Z          covCN         q      C6AA      α(0)
     1   6 C        3.758    -0.108    22.621     6.781
     2   6 C        2.966     0.005    27.900     8.664
     3   6 C        2.929    -0.045    29.118     8.850
     4   6 C        2.908    -0.053    29.318     8.878
     5   6 C        3.079     0.043    26.944     8.510
     6   6 C        3.066    -0.020    28.444     8.745
     7   6 C        2.917    -0.045    29.115     8.848
     8   6 C        3.066    -0.020    28.448     8.746
     9   6 C        2.917    -0.045    29.123     8.849
    10   6 C        2.966     0.005    27.904     8.665
    11   6 C        3.758    -0.108    22.620     6.781
    12   6 C        2.930    -0.045    29.112     8.849
    13   6 C        2.908    -0.054    29.341     8.882
    14   6 C        3.080     0.041    26.988     8.517
    15   7 N        2.802    -0.045    22.106     6.983
    16   6 C        2.917     0.062    26.621     8.461
    17   6 C        2.920    -0.042    29.036     8.836
    18   6 C        2.922    -0.031    28.781     8.798
    19   6 C        2.982    -0.014    28.356     8.735
    20   6 C        2.980     0.218    23.410     7.937
    21   7 N        1.844    -0.324    29.258     8.016
    22   6 C        2.980     0.218    23.407     7.936
    23   6 C        2.981    -0.014    28.356     8.735
    24   6 C        2.922    -0.031    28.778     8.797
    25   6 C        2.920    -0.042    29.034     8.836
    26   6 C        2.917     0.062    26.621     8.461
    27   7 N        2.802    -0.045    22.109     6.983
    28   6 C        3.079     0.043    26.944     8.510
    29   6 C        2.908    -0.053    29.318     8.879
    30   6 C        2.929    -0.045    29.118     8.850
    31   6 C        2.966     0.005    27.900     8.664
    32   6 C        3.758    -0.108    22.621     6.781
    33   6 C        2.917    -0.045    29.115     8.848
    34   6 C        3.066    -0.020    28.444     8.745
    35   6 C        3.065    -0.020    28.448     8.746
    36   6 C        2.917    -0.045    29.123     8.850
    37   6 C        2.966     0.005    27.905     8.665
    38   6 C        3.758    -0.108    22.620     6.781
    39   6 C        2.930    -0.045    29.113     8.849
    40   6 C        2.908    -0.054    29.341     8.882
    41   6 C        3.080     0.041    26.988     8.517
    42   6 C        2.964     0.012    27.749     8.640
    43   6 C        3.757    -0.111    22.684     6.790
    44   6 C        2.930    -0.038    28.934     8.821
    45   7 N        1.844    -0.326    29.307     8.023
    46   6 C        2.980     0.218    23.402     7.935
    47   6 C        2.982    -0.014    28.359     8.735
    48   6 C        2.922    -0.031    28.779     8.797
    49   6 C        2.920    -0.042    29.036     8.837
    50   6 C        2.917     0.062    26.620     8.461
    51   7 N        2.802    -0.045    22.107     6.983
    52   6 C        3.080     0.041    26.989     8.517
    53   6 C        2.908    -0.054    29.340     8.882
    54   6 C        2.930    -0.045    29.112     8.849
    55   6 C        2.966     0.005    27.904     8.665
    56   6 C        3.758    -0.108    22.621     6.781
    57   6 C        2.917    -0.045    29.123     8.850
    58   6 C        3.065    -0.020    28.447     8.746
    59   6 C        3.066    -0.020    28.444     8.745
    60   6 C        2.917    -0.045    29.115     8.848
    61   6 C        2.966     0.005    27.899     8.664
    62   6 C        3.758    -0.108    22.622     6.781
    63   6 C        2.929    -0.045    29.118     8.849
    64   6 C        2.908    -0.053    29.316     8.878
    65   6 C        3.078     0.043    26.944     8.510
    66   6 C        2.964     0.012    27.752     8.641
    67   6 C        3.757    -0.111    22.681     6.790
    68   6 C        2.930    -0.037    28.931     8.821
    69   7 N        1.844    -0.325    29.283     8.020
    70   6 C        2.930    -0.037    28.931     8.821
    71   6 C        2.964     0.012    27.750     8.641
    72   6 C        3.757    -0.111    22.683     6.790
    73   1 H        0.925     0.041     2.437     2.441
    74   1 H        0.925     0.045     2.379     2.412
    75   1 H        0.925     0.044     2.390     2.418
    76   1 H        0.926     0.031     2.577     2.510
    77   1 H        0.926     0.025     2.664     2.552
    78   1 H        0.926     0.030     2.581     2.512
    79   1 H        0.926     0.031     2.579     2.511
    80   1 H        0.925     0.045     2.388     2.417
    81   1 H        0.925     0.041     2.434     2.440
    82   1 H        0.925     0.045     2.383     2.414
    83   1 H        0.926     0.031     2.578     2.511
    84   1 H        0.926     0.024     2.671     2.556
    85   1 H        0.926     0.051     2.313     2.378
    86   1 H        0.926     0.054     2.273     2.358
    87   1 H        0.926     0.053     2.282     2.362
    88   1 H        0.926     0.050     2.318     2.381
    89   1 H        0.926     0.025     2.665     2.553
    90   1 H        0.926     0.031     2.576     2.510
    91   1 H        0.925     0.041     2.435     2.440
    92   1 H        0.925     0.045     2.385     2.415
    93   1 H        0.925     0.045     2.386     2.415
    94   1 H        0.926     0.030     2.580     2.512
    95   1 H        0.926     0.031     2.578     2.511
    96   1 H        0.925     0.045     2.388     2.417
    97   1 H        0.925     0.041     2.433     2.439
    98   1 H        0.925     0.045     2.383     2.414
    99   1 H        0.926     0.030     2.579     2.512
   100   1 H        0.926     0.024     2.676     2.558
   101   1 H        0.925     0.055     2.260     2.351
   102   1 H        0.925     0.053     2.289     2.366
   103   1 H        0.925     0.063     2.160     2.298
   104   1 H        0.926     0.057     2.231     2.336
   105   1 H        0.926     0.053     2.282     2.362
   106   1 H        0.926     0.050     2.315     2.380
   107   1 H        0.926     0.024     2.675     2.558
   108   1 H        0.926     0.031     2.578     2.511
   109   1 H        0.925     0.041     2.432     2.439
   110   1 H        0.925     0.045     2.380     2.413
   111   1 H        0.925     0.045     2.389     2.417
   112   1 H        0.926     0.031     2.576     2.510
   113   1 H        0.926     0.031     2.579     2.511
   114   1 H        0.925     0.041     2.435     2.440
   115   1 H        0.925     0.046     2.375     2.410
   116   1 H        0.925     0.044     2.394     2.419
   117   1 H        0.926     0.031     2.577     2.510
   118   1 H        0.926     0.025     2.664     2.553
   119   1 H        0.925     0.063     2.162     2.299
   120   1 H        0.925     0.054     2.265     2.354
   121   1 H        0.925     0.052     2.289     2.366
   122   1 H        0.926     0.056     2.241     2.341
   123   1 H        0.926     0.057     2.236     2.339
   124   1 H        0.925     0.055     2.262     2.352
   125   1 H        0.925     0.063     2.160     2.298
   126   1 H        0.925     0.052     2.290     2.367

molecular dipole:
                 x           y           z       tot (Debye)
 q only:        0.555      -0.307       0.038
   full:        0.460      -0.255       0.015       1.338

 projected vibrational frequencies (cm⁻¹)
eigval :       -0.00    -0.00     0.00     0.00     0.00     0.00
eigval :       -6.66     0.96     9.66    11.08    11.77    12.03
eigval :       20.19    21.06    29.70    36.19    39.94    43.12
eigval :       44.35    46.79    48.62    49.86    50.68    53.78
eigval :       67.25    70.49    80.46    81.39    82.85    83.01
eigval :       87.61    88.57    88.79    92.20    92.77    96.77
eigval :      108.71   110.67   111.08   118.08   122.36   126.37
eigval :      146.29   150.61   151.87   155.61   156.50   164.47
eigval :      166.58   189.16   189.33   196.32   199.61   216.10
eigval :      225.92   226.03   226.41   250.11   266.32   270.37
eigval :      281.19   291.65   293.40   296.89   300.60   315.82
eigval :      316.79   321.13   321.65   322.12   340.05   347.63
eigval :      352.50   355.42   360.12   364.89   379.85   384.60
eigval :      393.41   394.62   396.79   402.73   403.08   410.57
eigval :      416.07   416.69   425.19   426.37   427.13   429.33
eigval :      434.53   447.65   460.55   463.50   468.66   475.62
eigval :      491.84   497.54   500.79   503.64   525.89   526.56
eigval :      527.45   528.66   550.71   554.95   560.09   566.24
eigval :      572.82   573.78   573.90   574.64   580.37   583.02
eigval :      592.59   595.68   600.27   621.24   621.45   623.78
eigval :      657.88   659.33   659.71   660.24   670.06   670.42
eigval :      670.59   678.21   689.42   705.93   706.06   706.14
eigval :      709.58   710.44   732.51   732.60   734.53   767.49
eigval :      769.06   782.08   797.98   798.04   798.61   809.72
eigval :      810.27   813.85   815.10   816.67   818.15   839.86
eigval :      841.64   842.75   863.46   871.86   873.19   874.37
eigval :      875.15   877.71   880.51   883.15   887.23   889.18
eigval :      908.47   910.11   910.80   911.35   913.68   913.92
eigval :      914.64   915.61   919.68   920.29   921.85   922.52
eigval :      926.41   926.65   926.77   953.57   954.24   955.40
eigval :      971.01   974.51  1008.18  1008.70  1010.09  1011.59
eigval :     1015.34  1015.83  1017.13  1017.52  1020.24  1030.10
eigval :     1030.53  1031.76  1032.43  1032.87  1033.05  1033.59
eigval :     1034.08  1034.55  1040.13  1040.62  1040.69  1049.56
eigval :     1095.51  1097.65  1098.69  1105.95  1136.93  1139.76
eigval :     1146.69  1153.44  1153.88  1154.08  1156.67  1160.60
eigval :     1170.06  1170.25  1171.13  1188.43  1190.16  1191.77
eigval :     1202.75  1202.80  1203.41  1207.89  1215.50  1226.61
eigval :     1227.05  1237.18  1238.19  1242.61  1248.34  1253.13
eigval :     1254.31  1254.96  1255.29  1258.45  1291.26  1292.73
eigval :     1293.10  1310.15  1310.33  1310.58  1323.65  1326.05
eigval :     1327.53  1346.49  1348.78  1349.70  1353.06  1355.70
eigval :     1360.64  1362.04  1362.05  1362.10  1376.32  1376.93
eigval :     1393.93  1402.32  1402.48  1403.07  1403.15  1403.25
eigval :     1403.65  1403.73  1404.03  1404.37  1414.70  1415.14
eigval :     1415.62  1418.73  1420.47  1426.88  1436.44  1438.45
eigval :     1439.97  1467.18  1468.10  1468.38  1473.88  1474.55
eigval :     1474.70  1475.79  1475.97  1476.09  1476.46  1476.73
eigval :     1476.76  1478.66  1478.87  1479.25  1479.50  1479.99
eigval :     1480.68  1487.49  1488.54  1492.06  1493.58  1493.89
eigval :     1494.13  1501.96  1502.47  1503.00  1503.89  1506.46
eigval :     1558.75  1560.82  1564.04  1570.75  1570.90  1571.20
eigval :     1582.99  1583.18  1583.33  1588.53  1589.09  1590.45
eigval :     1607.18  1607.20  1607.37  1619.01  1619.03  1619.09
eigval :     2996.85  2996.96  2997.86  2997.92  2998.10  2999.56
eigval :     3007.57  3007.63  3008.75  3012.15  3012.16  3012.73
eigval :     3013.03  3013.29  3013.56  3030.16  3030.55  3030.63
eigval :     3040.90  3041.82  3042.21  3042.30  3042.37  3042.69
eigval :     3046.47  3046.50  3047.16  3068.27  3069.13  3069.14
eigval :     3069.78  3069.93  3070.63  3075.02  3075.29  3075.46
eigval :     3077.30  3077.36  3077.52  3081.62  3082.06  3082.57
eigval :     3083.52  3083.87  3084.54  3085.16  3085.62  3087.39
eigval :     3099.78  3101.24  3101.68  3109.72  3111.03  3111.81

   temp. (K)  partition function   enthalpy   heat capacity  entropy
                                   cal/mol     cal/K/mol   cal/K/mol   J/K/mol
 298.15  VIB  0.135E+33            38622.586    229.943    247.935
         ROT  0.546E+09              888.752      2.981     42.960
         INT  0.736E+41            39511.339    232.924    290.895
         TR   0.275E+29             1481.254      4.968     46.348
         TOT                       40992.5927   237.8922   337.2434  1411.0265

       T/K    H(0)-H(T)+PV         H(T)/Eh          T*S/Eh         G(T)/Eh
   ------------------------------------------------------------------------
    298.15    0.653259E-01    0.106123E+01    0.160235E+00    0.900991E+00
   ------------------------------------------------------------------------

         :::::::::::::::::::::::::::::::::::::::::::::::::::::
         ::                  THERMODYNAMIC                  ::
         :::::::::::::::::::::::::::::::::::::::::::::::::::::
         :: total free energy        -185.798784562476 Eh   ::
         ::.................................................::
         :: total energy             -186.699775859949 Eh   ::
         :: zero point energy           0.995900675304 Eh   ::
         :: G(RRHO) w/o ZPVE           -0.094909377831 Eh   ::
         :: G(RRHO) contrib.            0.900991297473 Eh   ::
         :::::::::::::::::::::::::::::::::::::::::::::::::::::

           -------------------------------------------------
          | TOTAL ENERGY             -186.699775859949 Eh   |
          | TOTAL ENTHALPY           -185.638549330057 Eh   |
          | TOTAL FREE ENERGY        -185.798784562476 Eh   |
          | GRADIENT NORM               0.000056407685 Eh/α |
          | HOMO-LUMO GAP               1.742225366646 eV   |
           -------------------------------------------------

 * finished run on 2025/08/25 at 16:57:42.164
