   * xtb version 6.7.1 (edcfbbe) compiled by 'albert@albert-system' on 2024-07-22

   ID    Z sym.   atoms
    1    6 C      1-14, 16-20, 22-26, 28-44, 46-50, 52-68, 70-72
    2    7 N      15, 21, 27, 45, 51, 69
    3    1 H      73-126

          program call               : xtb data2507/toluene/2MeCZ-TRZ/2MeCZ-TRZ.xyz --gfn 2 --gbsa toluene --ohess vtight --parallel 40 --molden --ceasefiles --namespace data2507/toluene/2MeCZ-TRZ/2MeCZ-TRZ_toluene_S0_preOpt
      * Solvation model:               GBSA
        Solvent                        toluene
        Solvent mass                       9.2140E+01 g/mol
          :  Hamiltonian                  GFN2-xTB          :
 * total energy  :  -186.6714986 Eh     change       -0.6601198E-08 Eh
 * total energy  :  -186.6916870 Eh     change       -0.2018837E-01 Eh
 * total energy  :  -186.6963833 Eh     change       -0.4696292E-02 Eh
 * total energy  :  -186.6974061 Eh     change       -0.1022862E-02 Eh
 * total energy  :  -186.6981860 Eh     change       -0.7798986E-03 Eh
 * total energy  :  -186.6985340 Eh     change       -0.3479629E-03 Eh
 * total energy  :  -186.6987392 Eh     change       -0.2052539E-03 Eh
 * total energy  :  -186.6988842 Eh     change       -0.1449777E-03 Eh
 * total energy  :  -186.6990282 Eh     change       -0.1439774E-03 Eh
 * total energy  :  -186.6990785 Eh     change       -0.5028507E-04 Eh
 * total energy  :  -186.6997848 Eh     change       -0.8036396E-06 Eh
 * total energy  :  -186.6997848 Eh     change       -0.9661960E-09 Eh
 * total energy  :  -186.6997851 Eh     change       -0.3372315E-06 Eh
 * total energy  :  -186.6997859 Eh     change       -0.8184990E-06 Eh
 * total energy  :  -186.6997865 Eh     change       -0.5569372E-06 Eh
 * total energy  :  -186.6997870 Eh     change       -0.4866307E-06 Eh
 * total energy  :  -186.6997875 Eh     change       -0.5199008E-06 Eh
 * total energy  :  -186.6997878 Eh     change       -0.3046275E-06 Eh
 * total energy  :  -186.6997878 Eh     change       -0.6614016E-08 Eh
   *** GEOMETRY OPTIMIZATION CONVERGED AFTER 68 ITERATIONS ***

 final structure:
================
126
 xtb: 6.7.1 (edcfbbe)
C           11.07166474056714        0.56667181795864        3.02713711038491
C            9.88160135137860        0.81847382092959        2.14806369342303
C            8.62418292745124        0.34801446865452        2.54391746661947
C            7.49075381336444        0.54447949686679        1.78055764723612
C            7.62914581511953        1.22367633531612        0.57850504923755
C            8.88189806885621        1.73653384895428        0.17481038468846
C           10.00593879499905        1.52272242872347        0.96311269427144
C            8.65554000478236        2.44111569676517       -1.05698726841307
C            9.48331339329312        3.13698303222563       -1.92968382102765
C            8.94189757948852        3.71521072176276       -3.06455698268428
C            9.80256976308825        4.47449754395914       -4.03171170724808
C            7.57185043252517        3.58491785817429       -3.32133016753045
C            6.72643238551979        2.89626254840818       -2.47470469875414
C            7.27480679071529        2.33011452597839       -1.33318218483155
N            6.66922256855324        1.57474717588455       -0.34864502360189
C            5.30593610667344        1.24282955070616       -0.29845347792442
C            4.36499728623164        2.26637384130880       -0.20279681221303
C            3.01909734369028        1.97725654637853       -0.14247326481777
C            2.59444930976361        0.64959309723153       -0.17710077091009
C            1.17138210067007        0.32560527660633       -0.10093109614331
N            0.82207062840283       -0.95878071847469       -0.10408707026273
C           -0.48325560081962       -1.20766605192925       -0.02606570678423
C           -0.91722827643282       -2.60295292527171       -0.02712301684793
C           -2.26901906238446       -2.92161663674583        0.09894829270607
C           -2.66172333440015       -4.24193826911300        0.10684089450196
C           -1.72049746667686       -5.26331386082926       -0.01372850117294
N           -2.16073889831743       -6.59568421729469        0.00770411089268
C           -1.82237851899454       -7.55379485499622        0.94199479862496
C           -1.03262100411470       -7.44253745015469        2.07733262364945
C           -0.87389513000934       -8.56520205445461        2.86494601003066
C           -1.48847111309688       -9.78482397069791        2.55874845643669
C           -1.27188706265509      -10.96552905181561        3.45961982926212
C           -2.30309679232362       -9.87850453241806        1.44376624465936
C           -2.48088238299845       -8.76458760923954        0.63254048518955
C           -3.26562867399577       -8.51228806633177       -0.54460246181536
C           -4.11034524372597       -9.29708514667757       -1.32019508913440
C           -4.73082125401187       -8.74084526896400       -2.42518742939534
C           -5.65809774072699       -9.55186551374940       -3.28233837368605
C           -4.49024685470601       -7.40116570707801       -2.75240330294756
C           -3.65436540518301       -6.59865547354636       -2.00213696618454
C           -3.05038174374391       -7.15881979263520       -0.88597788170088
C           -0.36154444911722       -4.96016096294088       -0.17735985656760
C            0.65785053380328       -6.03574334981974       -0.39562285135310
C            0.01583361045053       -3.62743457186859       -0.17008289822393
N           -1.41825282948303       -0.26375638066998        0.05369719770942
C           -0.97963909482429        0.99282257893022        0.04707894970492
C           -1.97018444277964        2.06392439896122        0.12935972287340
C           -3.32685664862175        1.76285979135224        0.24500571461701
C           -4.24852770360081        2.78341377737988        0.32829890860053
C           -3.83751124811230        4.11494537751332        0.29511622389533
N           -4.80692355822202        5.12590150763771        0.38521044777331
C           -5.84678137072870        5.31753476122447       -0.50324915431805
C           -6.15246226742698        4.62723642136820       -1.66707250812678
C           -7.24466736040819        5.05000235994851       -2.39787395892036
C           -8.02822792210915        6.14179797602637       -2.00576855096839
C           -9.20519798456863        6.54205587289887       -2.84675391257086
C           -7.70733851936816        6.83458646957664       -0.85139657800105
C           -6.61556863637415        6.42917508909837       -0.09337484176624
C           -6.01776618383047        6.91167456599032        1.12111055421847
C           -6.33331158456154        7.94017720301462        2.00040449623811
C           -5.56190044664235        8.12581918634479        3.13445371081054
C           -5.86396116993883        9.23087395362314        4.10396595429797
C           -4.48928568031947        7.26354127444451        3.38944530252815
C           -4.15314717400905        6.23335898380534        2.53408861797098
C           -4.90990233201894        6.07498220643861        1.38193371974381
C           -2.48082203402538        4.43570993067574        0.14580609165581
C           -2.02543557882530        5.85710240066444        0.02103253174136
C           -1.56780676085467        3.39656287450453        0.07542348194099
N            0.30490121944149        1.33344169508303       -0.03004439291382
C            3.53912389003214       -0.36765823751409       -0.29529199874177
C            4.89521957770290       -0.09584747151121       -0.36679486686956
C            5.88564899742082       -1.20415278002453       -0.55016890466175
H           11.97764578999858        0.96676949263509        2.57893286298729
H           11.20622260660436       -0.50237912010060        3.18933369434882
H           10.93055148802809        1.03522111922951        4.00108839889001
H            8.54103064323471       -0.18050746483650        3.48315872306461
H            6.52540223921243        0.19727146285362        2.11865019342349
H           10.96527581198885        1.91224219167713        0.65488497462497
H           10.53998585510023        3.22207256774768       -1.72161132341174
H            9.43161776626302        5.49159790442608       -4.15491192619093
H           10.83145428235346        4.51971673907371       -3.68364692262012
H            9.78826028425184        3.99489893222175       -5.01035236381964
H            7.16678619057493        4.03816860560507       -4.21511980514287
H            5.67329297791350        2.79973335409777       -2.69472954174001
H            4.70823639502172        3.28994753621899       -0.16604659673980
H            2.28426701491313        2.76175114997574       -0.05877494508691
H           -2.98936844476037       -2.12566051148116        0.19894426679313
H           -3.70417743772747       -4.50300083903826        0.21653915105866
H           -0.57216306164263       -6.50402295543191        2.34817851941593
H           -0.26039869425168       -8.50263100184691        3.75271489851268
H           -1.75774840345049      -11.85256775740080        3.06100429163484
H           -0.20774400051619      -11.17095954722416        3.57067328167681
H           -1.67687893967268      -10.76524782498048        4.45167201750173
H           -2.80354491110967      -10.80619548974193        1.20713909055875
H           -4.27770520481056      -10.33231544498461       -1.06070671007495
H           -6.65592419655359       -9.11344711697747       -3.28199044797209
H           -5.72906537851646      -10.57401973402478       -2.91915990274397
H           -5.30461720711478       -9.57214822497510       -4.31289207024960
H           -4.97571786105823       -6.98531961007386       -3.62403378919660
H           -3.47514257636342       -5.56938517557689       -2.27652350378070
H            1.51231331816291       -5.63666310048284       -0.93610457872507
H            0.23136679147355       -6.86124789118534       -0.96212588111958
H            1.01245793756349       -6.43485557358342        0.55403466281063
H            1.05391122546427       -3.35970292182296       -0.29369880180689
H           -3.63501465308241        0.73012040642949        0.27597788097946
H           -5.30137878088103        2.56403077038796        0.42928741996047
H           -5.55453051016441        3.78831716208198       -1.99203091256698
H           -7.50518609146608        4.52466808844863       -3.30586501373911
H           -9.67494541456794        7.44095688095542       -2.45548604756217
H           -9.94681166867830        5.74336133659661       -2.86495365656996
H           -8.89430833437774        6.72974291503609       -3.87397034471875
H           -8.29678913751282        7.68472772792521       -0.54026158029731
H           -7.17879568499419        8.58239853180195        1.80096385840437
H           -6.75626697504480        9.77600268329947        3.80671907944981
H           -5.03006139172669        9.93118219900542        4.15181595999779
H           -6.01818709437648        8.82913980090746        5.10493774254406
H           -3.91163283752779        7.40802561041427        4.29162879907703
H           -3.33968972957671        5.56161422097584        2.76547326447136
H           -1.91394453510664        6.31850964535327        1.00166114119502
H           -1.06513140300255        5.89975195679311       -0.48618799270650
H           -2.75091288143707        6.44462278079671       -0.53867320225275
H           -0.51609965502129        3.60860619648538       -0.04163265681621
H            3.18927229673830       -1.38729329626697       -0.34524985415897
H            5.39562685234914       -2.08138382834510       -0.96419948596475
H            6.33848182549308       -1.48244913128776        0.40087449228002
H            6.68769900951757       -0.89493677033855       -1.21806087596671

          :  Hamiltonian                  GFN2-xTB          :
         :: gradient norm              0.000052900514 Eh/a0 ::
         :: HOMO-LUMO gap              1.740674524632 eV    ::
         :: SCC energy              -190.058978267334 Eh    ::
         :: -> dispersion             -0.169206534980 Eh    ::
         :: -> Gsolv                  -0.081267331535 Eh    ::
         :: repulsion energy           3.359190443725 Eh    ::

    * Orbital Energies and Occupations

         #    Occupation            Energy/Eh            Energy/eV
      -------------------------------------------------------------
         1        2.0000           -0.6896551             -18.7665
       ...           ...                  ...                  ...
       162        2.0000           -0.4067875             -11.0693
       163        2.0000           -0.4062586             -11.0549
       164        2.0000           -0.3960106             -10.7760
       165        2.0000           -0.3960077             -10.7759
       166        2.0000           -0.3959532             -10.7744
       167        2.0000           -0.3804874             -10.3536
       168        2.0000           -0.3801318             -10.3439
       169        2.0000           -0.3737829             -10.1712
       170        2.0000           -0.3737779             -10.1710
       171        2.0000           -0.3737030             -10.1690
       172        2.0000           -0.3579404              -9.7401
       173        2.0000           -0.3578763              -9.7383
       174        2.0000           -0.3575560              -9.7296 (HOMO)
       175                         -0.2935873              -7.9889 (LUMO)
       176                         -0.2935478              -7.9878
       177                         -0.2541662              -6.9162
       178                         -0.2420188              -6.5857
       179                         -0.2419582              -6.5840
       180                         -0.2411302              -6.5615
       181                         -0.2355613              -6.4099
       182                         -0.2354290              -6.4063
       183                         -0.2353721              -6.4048
       184                         -0.2168934              -5.9020
       185                         -0.2168771              -5.9015
       ...                                ...                  ...
       342                          0.7430459              20.2193
      -------------------------------------------------------------
                  HL-Gap            0.0639686 Eh            1.7407 eV

     #   Z          covCN         q      C6AA      α(0)
     1   6 C        3.758    -0.108    22.621     6.781
     2   6 C        2.966     0.005    27.901     8.664
     3   6 C        2.929    -0.045    29.119     8.850
     4   6 C        2.908    -0.053    29.320     8.879
     5   6 C        3.079     0.043    26.943     8.510
     6   6 C        3.066    -0.020    28.444     8.745
     7   6 C        2.917    -0.045    29.115     8.848
     8   6 C        3.066    -0.020    28.449     8.746
     9   6 C        2.917    -0.045    29.123     8.850
    10   6 C        2.966     0.005    27.907     8.665
    11   6 C        3.758    -0.108    22.620     6.781
    12   6 C        2.929    -0.045    29.112     8.849
    13   6 C        2.908    -0.054    29.342     8.882
    14   6 C        3.080     0.041    26.986     8.517
    15   7 N        2.803    -0.045    22.112     6.984
    16   6 C        2.917     0.062    26.621     8.461
    17   6 C        2.920    -0.042    29.032     8.836
    18   6 C        2.922    -0.031    28.780     8.797
    19   6 C        2.981    -0.014    28.352     8.734
    20   6 C        2.980     0.218    23.410     7.937
    21   7 N        1.844    -0.324    29.257     8.016
    22   6 C        2.980     0.218    23.407     7.936
    23   6 C        2.981    -0.014    28.358     8.735
    24   6 C        2.922    -0.031    28.778     8.797
    25   6 C        2.920    -0.042    29.036     8.836
    26   6 C        2.917     0.062    26.620     8.461
    27   7 N        2.802    -0.045    22.107     6.983
    28   6 C        3.078     0.043    26.946     8.510
    29   6 C        2.908    -0.053    29.315     8.878
    30   6 C        2.929    -0.045    29.117     8.849
    31   6 C        2.966     0.005    27.899     8.664
    32   6 C        3.758    -0.108    22.622     6.781
    33   6 C        2.917    -0.045    29.115     8.848
    34   6 C        3.066    -0.020    28.444     8.745
    35   6 C        3.065    -0.020    28.448     8.746
    36   6 C        2.917    -0.045    29.123     8.850
    37   6 C        2.966     0.005    27.904     8.665
    38   6 C        3.758    -0.108    22.620     6.781
    39   6 C        2.930    -0.045    29.113     8.849
    40   6 C        2.908    -0.054    29.339     8.882
    41   6 C        3.080     0.041    26.989     8.517
    42   6 C        2.964     0.012    27.751     8.641
    43   6 C        3.757    -0.111    22.683     6.790
    44   6 C        2.930    -0.038    28.933     8.821
    45   7 N        1.844    -0.326    29.304     8.023
    46   6 C        2.980     0.218    23.403     7.935
    47   6 C        2.982    -0.014    28.359     8.735
    48   6 C        2.922    -0.031    28.779     8.797
    49   6 C        2.920    -0.042    29.036     8.836
    50   6 C        2.917     0.062    26.620     8.461
    51   7 N        2.802    -0.045    22.108     6.983
    52   6 C        3.080     0.041    26.989     8.517
    53   6 C        2.908    -0.054    29.340     8.882
    54   6 C        2.930    -0.045    29.112     8.849
    55   6 C        2.966     0.005    27.904     8.665
    56   6 C        3.758    -0.108    22.621     6.781
    57   6 C        2.917    -0.045    29.123     8.850
    58   6 C        3.065    -0.020    28.447     8.746
    59   6 C        3.066    -0.020    28.444     8.745
    60   6 C        2.917    -0.045    29.115     8.848
    61   6 C        2.966     0.005    27.899     8.664
    62   6 C        3.758    -0.108    22.622     6.781
    63   6 C        2.929    -0.045    29.118     8.849
    64   6 C        2.908    -0.053    29.317     8.878
    65   6 C        3.078     0.043    26.945     8.510
    66   6 C        2.964     0.012    27.751     8.641
    67   6 C        3.757    -0.111    22.681     6.790
    68   6 C        2.930    -0.037    28.931     8.821
    69   7 N        1.844    -0.325    29.282     8.020
    70   6 C        2.930    -0.037    28.931     8.821
    71   6 C        2.964     0.012    27.746     8.640
    72   6 C        3.757    -0.111    22.683     6.790
    73   1 H        0.925     0.041     2.437     2.441
    74   1 H        0.925     0.045     2.383     2.414
    75   1 H        0.925     0.045     2.389     2.417
    76   1 H        0.926     0.031     2.578     2.511
    77   1 H        0.926     0.024     2.668     2.554
    78   1 H        0.926     0.030     2.582     2.513
    79   1 H        0.926     0.030     2.580     2.512
    80   1 H        0.925     0.045     2.388     2.417
    81   1 H        0.925     0.041     2.435     2.440
    82   1 H        0.925     0.045     2.385     2.415
    83   1 H        0.926     0.031     2.579     2.511
    84   1 H        0.926     0.024     2.675     2.558
    85   1 H        0.926     0.051     2.313     2.378
    86   1 H        0.926     0.054     2.273     2.358
    87   1 H        0.926     0.053     2.283     2.363
    88   1 H        0.926     0.050     2.319     2.381
    89   1 H        0.926     0.025     2.660     2.550
    90   1 H        0.926     0.031     2.575     2.509
    91   1 H        0.925     0.041     2.436     2.441
    92   1 H        0.925     0.045     2.384     2.415
    93   1 H        0.925     0.045     2.386     2.415
    94   1 H        0.926     0.030     2.580     2.512
    95   1 H        0.926     0.031     2.578     2.511
    96   1 H        0.925     0.045     2.384     2.415
    97   1 H        0.925     0.041     2.433     2.439
    98   1 H        0.925     0.045     2.386     2.416
    99   1 H        0.926     0.031     2.579     2.511
   100   1 H        0.926     0.024     2.674     2.557
   101   1 H        0.925     0.055     2.258     2.350
   102   1 H        0.925     0.052     2.291     2.367
   103   1 H        0.925     0.063     2.160     2.298
   104   1 H        0.926     0.057     2.233     2.337
   105   1 H        0.926     0.053     2.280     2.361
   106   1 H        0.926     0.050     2.316     2.380
   107   1 H        0.926     0.024     2.676     2.558
   108   1 H        0.926     0.031     2.578     2.511
   109   1 H        0.925     0.041     2.432     2.439
   110   1 H        0.925     0.045     2.381     2.413
   111   1 H        0.925     0.045     2.389     2.417
   112   1 H        0.926     0.031     2.577     2.510
   113   1 H        0.926     0.031     2.579     2.511
   114   1 H        0.925     0.041     2.435     2.440
   115   1 H        0.925     0.046     2.376     2.411
   116   1 H        0.925     0.044     2.392     2.419
   117   1 H        0.926     0.031     2.577     2.510
   118   1 H        0.926     0.025     2.666     2.553
   119   1 H        0.925     0.063     2.162     2.299
   120   1 H        0.925     0.054     2.265     2.353
   121   1 H        0.925     0.053     2.288     2.365
   122   1 H        0.926     0.057     2.240     2.341
   123   1 H        0.926     0.057     2.234     2.337
   124   1 H        0.925     0.055     2.262     2.352
   125   1 H        0.925     0.063     2.161     2.299
   126   1 H        0.925     0.053     2.288     2.365

molecular dipole:
                 x           y           z       tot (Debye)
 q only:        0.585      -0.195      -0.031
   full:        0.482      -0.161      -0.006       1.291

 projected vibrational frequencies (cm⁻¹)
eigval :       -0.00    -0.00    -0.00    -0.00     0.00     0.00
eigval :      -29.99     7.99     8.91    10.26    10.79    11.71
eigval :       13.85    19.46    20.62    28.46    40.00    42.97
eigval :       43.72    45.25    47.43    50.20    52.98    69.59
eigval :       71.53    80.11    80.22    80.95    82.66    84.03
eigval :       91.09    92.38    93.35    94.46    94.96    96.67
eigval :      111.14   112.67   117.03   121.65   122.14   127.47
eigval :      146.89   148.77   152.30   155.56   156.30   164.26
eigval :      166.22   188.86   189.21   195.45   199.11   215.42
eigval :      225.69   225.97   227.17   249.64   265.86   270.23
eigval :      281.08   292.23   293.71   297.18   300.64   315.86
eigval :      316.28   321.22   321.80   321.98   339.82   348.11
eigval :      352.30   355.52   359.98   364.81   379.66   385.20
eigval :      393.89   395.98   396.78   402.09   403.46   410.72
eigval :      416.55   417.23   425.28   426.73   427.57   429.75
eigval :      434.80   447.85   460.61   463.86   468.54   475.68
eigval :      491.47   497.30   499.45   503.12   526.18   526.74
eigval :      527.55   528.68   550.79   554.87   560.32   565.80
eigval :      573.52   574.17   574.65   574.98   579.51   583.34
eigval :      592.62   595.50   600.32   621.20   621.37   623.61
eigval :      657.80   659.31   660.18   660.65   670.54   671.09
eigval :      671.44   678.13   689.13   705.74   706.15   706.94
eigval :      709.33   710.66   732.56   732.73   734.61   767.49
eigval :      768.98   782.13   797.70   797.96   798.51   808.36
eigval :      809.87   812.19   814.50   814.70   817.73   840.86
eigval :      841.55   842.98   863.38   869.80   871.59   872.90
eigval :      873.16   877.55   878.13   882.99   886.09   889.29
eigval :      908.69   909.17   909.86   910.48   910.90   911.19
eigval :      915.42   915.68   920.40   921.02   921.52   923.18
eigval :      926.48   926.59   926.92   953.58   954.07   955.27
eigval :      970.84   974.18  1008.86  1009.13  1009.16  1011.42
eigval :     1015.95  1016.48  1016.73  1018.15  1020.15  1030.73
eigval :     1031.11  1031.75  1032.27  1032.60  1033.31  1033.34
eigval :     1033.90  1035.15  1040.30  1040.65  1040.66  1049.50
eigval :     1095.22  1097.80  1098.05  1105.98  1136.76  1137.51
eigval :     1145.79  1152.73  1154.15  1154.38  1156.70  1159.88
eigval :     1169.43  1170.12  1170.66  1187.61  1190.04  1191.36
eigval :     1202.62  1202.69  1202.96  1207.86  1215.49  1226.39
eigval :     1226.81  1236.80  1237.80  1242.15  1248.37  1253.06
eigval :     1253.98  1254.67  1255.23  1258.27  1291.21  1292.64
eigval :     1293.16  1310.28  1310.50  1310.58  1323.51  1325.74
eigval :     1327.60  1346.55  1348.52  1349.70  1353.05  1355.44
eigval :     1360.59  1361.99  1361.99  1362.08  1376.32  1376.98
eigval :     1393.87  1402.19  1402.30  1402.81  1402.87  1403.53
eigval :     1404.08  1404.34  1404.80  1405.39  1414.68  1415.07
eigval :     1415.64  1418.86  1420.62  1426.84  1436.40  1438.38
eigval :     1439.99  1467.81  1468.24  1469.40  1473.97  1474.55
eigval :     1474.91  1475.67  1476.11  1476.44  1476.82  1476.92
eigval :     1477.11  1477.96  1478.61  1479.18  1479.64  1479.80
eigval :     1480.77  1487.42  1488.77  1492.03  1493.81  1494.10
eigval :     1494.21  1502.16  1502.65  1503.20  1504.08  1506.48
eigval :     1558.66  1560.98  1563.95  1570.71  1570.86  1571.15
eigval :     1582.98  1583.08  1583.31  1588.37  1589.04  1590.34
eigval :     1607.23  1607.25  1607.30  1619.04  1619.08  1619.12
eigval :     2997.91  2998.22  2998.29  2998.58  2998.63  2998.93
eigval :     3006.30  3008.09  3009.78  3011.99  3012.17  3012.72
eigval :     3013.20  3013.63  3013.64  3029.78  3029.84  3033.22
eigval :     3042.04  3042.15  3042.36  3042.45  3042.58  3043.15
eigval :     3045.14  3046.27  3047.44  3068.85  3069.51  3069.57
eigval :     3069.83  3069.84  3070.59  3074.92  3074.99  3075.12
eigval :     3076.98  3077.13  3077.40  3081.38  3081.91  3082.52
eigval :     3083.09  3083.64  3084.51  3085.39  3085.57  3086.04
eigval :     3099.81  3099.90  3102.32  3110.07  3111.03  3111.95

   temp. (K)  partition function   enthalpy   heat capacity  entropy
                                   cal/mol     cal/K/mol   cal/K/mol   J/K/mol
 298.15  VIB  0.223E+33            38588.688    230.072    247.772
         ROT  0.546E+09              888.752      2.981     42.960
         INT  0.122E+42            39477.440    233.053    290.732
         TR   0.275E+29             1481.254      4.968     46.348
         TOT                       40958.6940   238.0210   337.0802  1410.3436

       T/K    H(0)-H(T)+PV         H(T)/Eh          T*S/Eh         G(T)/Eh
   ------------------------------------------------------------------------
    298.15    0.652718E-01    0.106121E+01    0.160158E+00    0.901051E+00
   ------------------------------------------------------------------------

         :::::::::::::::::::::::::::::::::::::::::::::::::::::
         ::                  THERMODYNAMIC                  ::
         :::::::::::::::::::::::::::::::::::::::::::::::::::::
         :: total free energy        -185.798737272371 Eh   ::
         ::.................................................::
         :: total energy             -186.699787831155 Eh   ::
         :: zero point energy           0.995936410735 Eh   ::
         :: G(RRHO) w/o ZPVE           -0.094885851952 Eh   ::
         :: G(RRHO) contrib.            0.901050558784 Eh   ::
         :::::::::::::::::::::::::::::::::::::::::::::::::::::

           -------------------------------------------------
          | TOTAL ENERGY             -186.699787831155 Eh   |
          | TOTAL ENTHALPY           -185.638579586812 Eh   |
          | TOTAL FREE ENERGY        -185.798737272371 Eh   |
          | GRADIENT NORM               0.000052895514 Eh/α |
          | HOMO-LUMO GAP               1.740674508196 eV   |
           -------------------------------------------------

 * finished run on 2025/08/25 at 16:46:10.244
