   * xtb version 6.7.1 (edcfbbe) compiled by 'albert@albert-system' on 2024-07-22

   ID    Z sym.   atoms
    1    6 C      1-14, 16-20, 22-26, 28-44, 46-50, 52-68, 70-72
    2    7 N      15, 21, 27, 45, 51, 69
    3    1 H      73-126

          program call               : xtb data2507/toluene/2MeCZ-TRZ/2MeCZ-TRZ_toluene_T1_crest.xyz --gfn 2 --uhf 2 --gbsa toluene --ohess vtight --parallel 40 --molden --ceasefiles --namespace data2507/toluene/2MeCZ-TRZ/2MeCZ-TRZ_toluene_T1_finalOpt
      * Solvation model:               GBSA
        Solvent                        toluene
        Solvent mass                       9.2140E+01 g/mol
          :  Hamiltonian                  GFN2-xTB          :
 * total energy  :  -186.6241430 Eh     change       -0.7236395E-08 Eh
 * total energy  :  -186.6243069 Eh     change       -0.1638567E-03 Eh
 * total energy  :  -186.6243632 Eh     change       -0.5634175E-04 Eh
 * total energy  :  -186.6243709 Eh     change       -0.7725091E-05 Eh
 * total energy  :  -186.6243802 Eh     change       -0.9224353E-05 Eh
 * total energy  :  -186.6243886 Eh     change       -0.8450688E-05 Eh
 * total energy  :  -186.6243974 Eh     change       -0.8781951E-05 Eh
 * total energy  :  -186.6244054 Eh     change       -0.8044483E-05 Eh
 * total energy  :  -186.6244131 Eh     change       -0.7616386E-05 Eh
 * total energy  :  -186.6244198 Eh     change       -0.6757781E-05 Eh
 * total energy  :  -186.6245032 Eh     change       -0.3245122E-06 Eh
 * total energy  :  -186.6245036 Eh     change       -0.3631869E-06 Eh
 * total energy  :  -186.6245039 Eh     change       -0.2855311E-06 Eh
 * total energy  :  -186.6245041 Eh     change       -0.2077718E-06 Eh
 * total energy  :  -186.6245043 Eh     change       -0.2248412E-06 Eh
 * total energy  :  -186.6245045 Eh     change       -0.2162951E-06 Eh
 * total energy  :  -186.6245047 Eh     change       -0.1563839E-06 Eh
 * total energy  :  -186.6245048 Eh     change       -0.1729264E-06 Eh
 * total energy  :  -186.6245048 Eh     change       -0.4654680E-08 Eh
   *** GEOMETRY OPTIMIZATION CONVERGED AFTER 68 ITERATIONS ***

 final structure:
================
126
 xtb: 6.7.1 (edcfbbe)
C            4.65005495043124       10.00256954678714        3.34474210427858
C            3.91398856336667        9.09087346226647        2.40959435027807
C            3.68602834061678        7.76141368846910        2.78537521726707
C            3.02268334552758        6.86969311403991        1.96719117416151
C            2.58405878659406        7.32810859911310        0.73132121042848
C            2.77782712066237        8.67443630047437        0.34262131595083
C            3.44899675175286        9.54839951266469        1.18516928033659
C            2.15772334326221        8.81456025499886       -0.94861317730851
C            2.01494801328704        9.87083958143745       -1.83631680144850
C            1.34569887162798        9.66692860457318       -3.03449695106508
C            1.16631477066570       10.78532143447203       -4.01662643679776
C            0.82955675782979        8.40016916498798       -3.33462330534425
C            0.95829319347018        7.33078269675786       -2.47177437324395
C            1.62040225374195        7.54585123714741       -1.26990332630500
N            1.89815342691047        6.65937461177277       -0.25530800522751
C            1.52355582063473        5.30098989843431       -0.22959550414089
C            0.16868991895239        4.97269317178234       -0.16796332071149
C           -0.23064464336027        3.65793950094399       -0.13244026238034
C            0.72441567359699        2.63253731674897       -0.15639047929793
C            0.32233329243765        1.24604367049019       -0.10132028784855
N            1.27394493563553        0.30322687217361       -0.12210137987900
C            0.86993545639838       -0.96902686289560       -0.02946843368938
C            1.86931834996220       -2.01349693760878       -0.02918922367960
C            1.49728834426305       -3.35888705275782        0.09401045764335
C            2.45845299497008       -4.34121397736020        0.10291062881707
C            3.80987973772773       -4.01298951827002       -0.01444492641374
N            4.76651764863822       -5.04711833219062        0.00526993415870
C            5.71628088075125       -5.25524980565496        0.97841913603936
C            5.94467244509333       -4.55323750264083        2.15515290948555
C            6.96535324879117       -4.98784755334712        2.97624624895944
C            7.75267053653821       -6.10220593210444        2.66182917652394
C            8.85167594299430       -6.51342058568309        3.59487516252516
C            7.50166767130447       -6.81383104328177        1.49767707237429
C            6.48180400724058       -6.39968749561901        0.65366960790908
C            5.94458140987490       -6.90785359571059       -0.58090360669205
C            6.25993418637973       -7.98735433905699       -1.39286537954115
C            5.52465021192350       -8.20683368793481       -2.54875215912858
C            5.83347535633310       -9.36416263707508       -3.45034005563540
C            4.48209018984868       -7.33414550696814       -2.88410489254364
C            4.14780361153303       -6.25109805655283       -2.09671316206066
C            4.88073033564205       -6.04534741828645       -0.93494046485938
C            4.20522569817523       -2.67556274358106       -0.17072003202458
C            5.64728757436332       -2.31715846113362       -0.37244066410088
C            3.22765915544727       -1.70027113972908       -0.16582694124424
N           -0.41802482464974       -1.31954372294233        0.06331868174567
C           -1.32236150459717       -0.33170227354950        0.03961750000291
C           -2.72319840389296       -0.67968127671680        0.09578519272758
C           -3.12380344594144       -2.02063623851128        0.17264404492990
C           -4.45962633602573       -2.33891181843736        0.22640847256231
C           -5.42930714794675       -1.33546878942480        0.20352585758113
N           -6.78913697050675       -1.70007111594363        0.26588690841798
C           -7.46662159992532       -2.42004007481054       -0.69097564851384
C           -7.01629075653238       -2.90752718728072       -1.91118074355083
C           -7.91804466128251       -3.58950139489635       -2.70262940145407
C           -9.24826023152060       -3.79116874212086       -2.31444513970724
C          -10.17222306497534       -4.54527489594067       -3.22283919888728
C           -9.69302842703304       -3.29180184072589       -1.09880469492311
C           -8.80825195767507       -2.60383912904247       -0.28147126292533
C           -8.92765005114829       -1.96907264155093        1.00467165322030
C           -9.96727249165267       -1.82780888169240        1.91206901071941
C           -9.73964733390913       -1.16643733682765        3.11019524197857
C          -10.83895946690002       -0.98971495376232        4.11405298242290
C           -8.46356201598527       -0.66453241601790        3.39379274326075
C           -7.41106670349109       -0.79061502184794        2.51003872801157
C           -7.65307311831862       -1.43202348136081        1.30184464552570
C           -5.05449113736906        0.01284152383945        0.09820193483609
C           -6.08994705374883        1.09308893184225        0.00121275352846
C           -3.70819122785314        0.31580097893859        0.05430218014961
N           -0.98355432416229        0.96097377174376       -0.03218383409435
C            2.08005935002131        2.97712145158949       -0.23898760739186
C            2.49777770012858        4.29206199649324       -0.28430547029947
C            3.95099245363696        4.63422225785855       -0.42362983105695
H            4.74427635290875       11.00016066630885        2.92376312854120
H            5.64787769865155        9.61315445906404        3.54546115526503
H            4.12535366585311       10.07398113074744        4.29711652048768
H            4.03956957610789        7.42804363789446        3.75058201867817
H            2.83794469555196        5.85243145396996        2.27973913828550
H            3.60324202254998       10.57610095985973        0.89122115982075
H            2.42298283218651       10.84158015247137       -1.59635710764837
H            1.64663014192456       11.69450437965238       -3.66454414020418
H            1.59326507771564       10.51566598395084       -4.98208094676516
H            0.10644989929041       10.98844851303654       -4.16909453112274
H            0.31651910811960        8.25921774941428       -4.27517596452817
H            0.56012447086995        6.35780447583693       -2.71880277714752
H           -0.56077496168978        5.76968201000236       -0.13859655355676
H           -1.27494579931259        3.39310710323205       -0.07824278649273
H            0.45042813273312       -3.60127142135534        0.18945392431447
H            2.18101700735269       -5.38029232519307        0.21018591345458
H            5.33249935329030       -3.70529579489537        2.42439819221737
H            7.16314644499890       -4.45675909768107        3.89638018973677
H            9.61223608165048       -5.73442580659936        3.64891770646731
H            8.46117972058927       -6.66447337352222        4.60056740791464
H            9.32264474817347       -7.43424699203149        3.26089622064448
H            8.08938218780368       -7.68600256260198        1.25207782271585
H            7.07063628697397       -8.64931386592111       -1.12644601015596
H            4.95196414828351       -9.99155652681468       -3.57823564227843
H            6.63777227896951       -9.97155351209592       -3.04353405624362
H            6.13128285264621       -9.00739223762416       -4.43619457647878
H            3.92415916281921       -7.51762479772937       -3.79119234930304
H            3.34392478602847       -5.58409590923259       -2.37082551139440
H            5.73004431899453       -1.31689516008014       -0.78945247738566
H            6.12766098536467       -3.02339292638977       -1.04807094819507
H            6.19045467810436       -2.34052988656923        0.57186329464516
H            3.49661563097904       -0.66140283063761       -0.28434866981963
H           -2.36599473978619       -2.78809965423662        0.19405215187797
H           -4.77651125037499       -3.36992410919158        0.29579208281877
H           -5.99453269036977       -2.75592902602528       -2.22645264652982
H           -7.59125835278696       -3.98155430460759       -3.65506705403186
H          -11.17530762127617       -4.59308363238748       -2.80708726705156
H           -9.80858895102803       -5.56174799786075       -3.37252478338665
H          -10.22118238746252       -4.06465536388641       -4.19943703984309
H          -10.71813592350583       -3.43553757892770       -0.79078619030059
H          -10.94248863617201       -2.23462434771172        1.68883973140848
H          -10.55753429433912       -1.43500463819245        5.06787154207481
H          -11.75937031387527       -1.45456989396255        3.77051257999797
H          -11.02735952948778        0.06973505884323        4.28663307769868
H           -8.30054173394479       -0.16805124192229        4.33972223723438
H           -6.42742128462413       -0.41694245494241        2.75326006665360
H           -6.52636125445073        1.30245987959926        0.97748555772754
H           -5.64284417181609        2.00864009396808       -0.37711619838032
H           -6.89763262067515        0.79196317414474       -0.66443910381601
H           -3.38526406729476        1.34278248201308       -0.02842361660972
H            2.80263782606163        2.17595188187137       -0.27869330983777
H            4.51872835319121        3.75264341214197       -0.70924801555933
H            4.35405195413657        5.01408019338405        0.51469826185920
H            4.09154555201618        5.40554567869337       -1.17982460951903

          :  Hamiltonian                  GFN2-xTB          :
         :: gradient norm              0.000063731778 Eh/a0 ::
         :: HOMO-LUMO gap              0.002858830786 eV    ::
         :: SCC energy              -189.971751386742 Eh    ::
         :: -> dispersion             -0.169010525930 Eh    ::
         :: -> Gsolv                  -0.086379845447 Eh    ::
         :: repulsion energy           3.347246544611 Eh    ::

    * Orbital Energies and Occupations

         #    Occupation            Energy/Eh            Energy/eV
      -------------------------------------------------------------
         1        2.0000           -0.6786606             -18.4673
       ...           ...                  ...                  ...
       163        2.0000           -0.4008613             -10.9080
       164        2.0000           -0.3962490             -10.7825
       165        2.0000           -0.3942291             -10.7275
       166        2.0000           -0.3935519             -10.7091
       167        2.0000           -0.3787969             -10.3076
       168        2.0000           -0.3787907             -10.3074
       169        2.0000           -0.3787834             -10.3072
       170        1.9603           -0.3625378              -9.8652
       171        1.9553           -0.3624199              -9.8619
       172        1.8407           -0.3610913              -9.8258
       173        1.6289           -0.3600119              -9.7964
       174        1.6147           -0.3599546              -9.7949
       175        0.5139           -0.2759146              -7.5080 (HOMO)
       176        0.4861           -0.2758091              -7.5051 (LUMO)
       177                         -0.2476609              -6.7392
       178                         -0.2463330              -6.7031
       179                         -0.2463205              -6.7027
       180                         -0.2409353              -6.5562
       181                         -0.2232414              -6.0747
       182                         -0.2230308              -6.0690
       183                         -0.2229887              -6.0678
       184                         -0.2220065              -6.0411
       185                         -0.2218294              -6.0363
       186                         -0.2217769              -6.0349
       ...                                ...                  ...
       342                          0.7384617              20.0946
      -------------------------------------------------------------
                  HL-Gap            0.0001055 Eh            0.0029 eV

     #   Z          covCN         q      C6AA      α(0)
     1   6 C        3.758    -0.111    22.666     6.788
     2   6 C        2.966     0.012    27.738     8.639
     3   6 C        2.928    -0.044    29.082     8.844
     4   6 C        2.907    -0.047    29.176     8.857
     5   6 C        3.084     0.045    26.898     8.502
     6   6 C        3.065    -0.017    28.371     8.734
     7   6 C        2.916    -0.042    29.038     8.837
     8   6 C        3.065    -0.017    28.377     8.735
     9   6 C        2.916    -0.042    29.044     8.837
    10   6 C        2.966     0.012    27.740     8.639
    11   6 C        3.758    -0.111    22.666     6.788
    12   6 C        2.928    -0.043    29.074     8.843
    13   6 C        2.907    -0.048    29.186     8.858
    14   6 C        3.084     0.043    26.934     8.508
    15   7 N        2.803    -0.027    21.771     6.930
    16   6 C        2.917     0.042    27.058     8.530
    17   6 C        2.918    -0.044    29.085     8.844
    18   6 C        2.922    -0.040    28.991     8.830
    19   6 C        2.979    -0.017    28.434     8.747
    20   6 C        2.942     0.200    23.760     7.994
    21   7 N        1.844    -0.332    29.473     8.046
    22   6 C        2.942     0.201    23.736     7.991
    23   6 C        2.980    -0.017    28.431     8.746
    24   6 C        2.922    -0.039    28.981     8.828
    25   6 C        2.918    -0.044    29.084     8.844
    26   6 C        2.917     0.043    27.043     8.528
    27   7 N        2.803    -0.028    21.775     6.931
    28   6 C        3.083     0.045    26.901     8.503
    29   6 C        2.908    -0.047    29.173     8.857
    30   6 C        2.928    -0.044    29.081     8.844
    31   6 C        2.966     0.012    27.738     8.639
    32   6 C        3.758    -0.111    22.666     6.788
    33   6 C        2.916    -0.042    29.039     8.837
    34   6 C        3.065    -0.017    28.371     8.734
    35   6 C        3.065    -0.017    28.377     8.735
    36   6 C        2.916    -0.042    29.045     8.838
    37   6 C        2.966     0.012    27.741     8.639
    38   6 C        3.758    -0.111    22.666     6.788
    39   6 C        2.928    -0.043    29.074     8.843
    40   6 C        2.907    -0.048    29.187     8.859
    41   6 C        3.084     0.043    26.939     8.508
    42   6 C        2.962     0.007    27.852     8.656
    43   6 C        3.757    -0.108    22.615     6.780
    44   6 C        2.929    -0.046    29.132     8.851
    45   7 N        1.844    -0.332    29.475     8.046
    46   6 C        2.941     0.200    23.754     7.993
    47   6 C        2.979    -0.017    28.439     8.748
    48   6 C        2.922    -0.040    28.989     8.829
    49   6 C        2.918    -0.044    29.085     8.844
    50   6 C        2.917     0.042    27.055     8.530
    51   7 N        2.803    -0.027    21.774     6.930
    52   6 C        3.084     0.043    26.937     8.508
    53   6 C        2.907    -0.048    29.185     8.858
    54   6 C        2.929    -0.043    29.074     8.843
    55   6 C        2.966     0.012    27.740     8.639
    56   6 C        3.758    -0.111    22.666     6.788
    57   6 C        2.916    -0.042    29.044     8.837
    58   6 C        3.065    -0.017    28.377     8.735
    59   6 C        3.065    -0.017    28.371     8.734
    60   6 C        2.916    -0.042    29.039     8.837
    61   6 C        2.966     0.012    27.737     8.639
    62   6 C        3.758    -0.111    22.666     6.788
    63   6 C        2.928    -0.043    29.080     8.844
    64   6 C        2.908    -0.047    29.173     8.856
    65   6 C        3.083     0.045    26.899     8.502
    66   6 C        2.962     0.007    27.854     8.657
    67   6 C        3.757    -0.108    22.611     6.780
    68   6 C        2.929    -0.046    29.137     8.852
    69   7 N        1.844    -0.331    29.437     8.041
    70   6 C        2.929    -0.046    29.138     8.853
    71   6 C        2.963     0.007    27.854     8.657
    72   6 C        3.757    -0.108    22.613     6.780
    73   1 H        0.925     0.045     2.380     2.412
    74   1 H        0.925     0.050     2.315     2.380
    75   1 H        0.925     0.050     2.322     2.383
    76   1 H        0.926     0.036     2.503     2.474
    77   1 H        0.926     0.030     2.592     2.518
    78   1 H        0.926     0.038     2.481     2.463
    79   1 H        0.926     0.038     2.479     2.462
    80   1 H        0.925     0.045     2.377     2.411
    81   1 H        0.925     0.050     2.322     2.383
    82   1 H        0.925     0.050     2.316     2.380
    83   1 H        0.926     0.036     2.502     2.474
    84   1 H        0.926     0.029     2.595     2.519
    85   1 H        0.926     0.039     2.462     2.454
    86   1 H        0.926     0.040     2.447     2.446
    87   1 H        0.926     0.040     2.449     2.447
    88   1 H        0.926     0.039     2.461     2.453
    89   1 H        0.926     0.030     2.589     2.516
    90   1 H        0.926     0.036     2.502     2.474
    91   1 H        0.925     0.051     2.309     2.376
    92   1 H        0.925     0.049     2.328     2.386
    93   1 H        0.925     0.045     2.379     2.412
    94   1 H        0.926     0.038     2.481     2.463
    95   1 H        0.926     0.038     2.478     2.462
    96   1 H        0.925     0.050     2.323     2.383
    97   1 H        0.925     0.045     2.377     2.411
    98   1 H        0.925     0.050     2.316     2.380
    99   1 H        0.926     0.036     2.503     2.474
   100   1 H        0.926     0.029     2.596     2.519
   101   1 H        0.925     0.049     2.337     2.390
   102   1 H        0.925     0.048     2.350     2.397
   103   1 H        0.925     0.057     2.240     2.341
   104   1 H        0.926     0.044     2.399     2.422
   105   1 H        0.926     0.040     2.450     2.448
   106   1 H        0.926     0.039     2.464     2.455
   107   1 H        0.926     0.029     2.598     2.520
   108   1 H        0.926     0.036     2.502     2.474
   109   1 H        0.925     0.046     2.376     2.411
   110   1 H        0.925     0.050     2.316     2.380
   111   1 H        0.925     0.050     2.321     2.382
   112   1 H        0.926     0.038     2.477     2.461
   113   1 H        0.926     0.038     2.479     2.462
   114   1 H        0.925     0.050     2.324     2.384
   115   1 H        0.925     0.045     2.379     2.412
   116   1 H        0.925     0.051     2.313     2.378
   117   1 H        0.926     0.036     2.503     2.474
   118   1 H        0.926     0.030     2.592     2.518
   119   1 H        0.925     0.056     2.246     2.344
   120   1 H        0.925     0.048     2.342     2.393
   121   1 H        0.925     0.048     2.350     2.397
   122   1 H        0.926     0.043     2.413     2.429
   123   1 H        0.926     0.043     2.405     2.425
   124   1 H        0.925     0.048     2.342     2.393
   125   1 H        0.925     0.056     2.247     2.344
   126   1 H        0.925     0.048     2.349     2.397

molecular dipole:
                 x           y           z       tot (Debye)
 q only:        0.376       0.317       0.020
   full:        0.314       0.260       0.027       1.038

 projected vibrational frequencies (cm⁻¹)
eigval :       -0.00    -0.00    -0.00    -0.00     0.00     0.00
eigval :       -5.44     3.13     7.85     9.53    11.69    13.02
eigval :       18.25    18.78    20.97    30.97    34.35    35.15
eigval :       36.97    42.46    43.57    45.54    48.89    55.20
eigval :       56.53    59.76    64.78    74.91    80.99    84.09
eigval :       86.03    90.88    91.20    92.62    97.08    98.15
eigval :      103.33   104.50   109.84   113.96   118.68   122.29
eigval :      142.68   150.74   153.26   153.76   158.47   161.83
eigval :      165.67   184.31   185.79   195.91   202.48   210.01
eigval :      223.36   225.54   226.42   240.50   258.35   265.92
eigval :      276.45   280.32   292.41   294.39   297.66   314.78
eigval :      315.98   317.29   317.87   318.51   336.62   338.58
eigval :      341.25   351.95   358.14   361.59   372.20   379.84
eigval :      388.05   389.11   393.32   395.21   396.61   403.89
eigval :      406.97   409.06   421.96   422.75   423.38   427.35
eigval :      428.76   433.36   452.12   454.96   463.27   467.06
eigval :      474.57   483.13   486.68   487.35   518.41   524.75
eigval :      525.69   527.29   551.31   554.63   558.45   560.72
eigval :      563.13   571.53   573.69   573.96   574.51   575.67
eigval :      578.01   582.25   597.29   610.38   610.91   613.68
eigval :      616.04   621.51   629.66   630.90   641.26   644.70
eigval :      667.71   672.08   672.33   672.45   675.26   680.81
eigval :      681.66   706.29   706.63   707.08   708.40   726.92
eigval :      727.64   732.99   740.32   745.34   794.30   794.66
eigval :      794.83   812.41   813.50   814.13   814.48   817.23
eigval :      817.74   822.40   823.56   825.66   852.69   866.56
eigval :      869.75   870.73   871.71   872.24   872.64   873.44
eigval :      873.99   874.40   906.30   907.00   907.69   908.87
eigval :      909.80   912.06   913.18   913.32   914.15   915.13
eigval :      915.82   917.49   924.60   924.64   924.69   948.77
eigval :      951.69   952.77   956.96   959.39   980.74  1007.91
eigval :     1007.96  1008.17  1011.02  1013.82  1015.12  1015.36
eigval :     1015.64  1019.64  1028.19  1028.47  1028.69  1028.93
eigval :     1029.13  1029.96  1030.46  1030.81  1030.88  1037.57
eigval :     1037.67  1038.30  1079.40  1095.28  1096.35  1101.58
eigval :     1132.84  1134.04  1141.74  1145.52  1145.99  1146.30
eigval :     1149.76  1154.76  1165.28  1166.55  1167.45  1182.97
eigval :     1184.88  1186.21  1201.39  1201.98  1202.28  1210.30
eigval :     1220.17  1221.15  1232.71  1234.73  1237.89  1244.23
eigval :     1245.88  1248.45  1250.53  1251.28  1251.69  1273.38
eigval :     1285.53  1286.24  1286.33  1292.20  1292.40  1292.76
eigval :     1314.12  1324.88  1330.69  1335.79  1337.59  1347.16
eigval :     1347.38  1347.41  1347.50  1350.24  1350.95  1356.13
eigval :     1374.59  1375.51  1392.13  1400.46  1400.63  1400.76
eigval :     1401.19  1401.85  1402.32  1403.48  1403.87  1404.38
eigval :     1412.06  1413.34  1413.62  1414.85  1422.99  1432.86
eigval :     1435.79  1437.05  1438.64  1461.59  1461.71  1461.89
eigval :     1468.25  1469.93  1470.46  1470.72  1471.42  1473.79
eigval :     1473.85  1474.06  1474.30  1474.78  1474.96  1475.39
eigval :     1476.28  1476.64  1477.85  1478.31  1479.40  1484.69
eigval :     1484.78  1485.00  1486.35  1498.47  1498.52  1498.59
eigval :     1522.35  1523.22  1524.69  1560.43  1560.55  1560.78
eigval :     1563.77  1564.36  1575.42  1576.30  1576.45  1584.65
eigval :     1584.78  1584.95  1585.91  1594.08  1599.67  1610.10
eigval :     2999.19  2999.68  2999.87  2999.92  2999.96  3000.00
eigval :     3002.64  3003.66  3003.81  3013.41  3013.46  3014.00
eigval :     3014.14  3014.26  3015.55  3019.73  3020.99  3021.74
eigval :     3045.03  3045.12  3045.51  3045.57  3045.61  3045.76
eigval :     3046.22  3046.45  3047.40  3073.12  3073.34  3073.51
eigval :     3073.75  3073.83  3074.45  3074.59  3074.89  3075.15
eigval :     3079.53  3079.87  3079.93  3081.70  3081.85  3081.96
eigval :     3084.14  3084.81  3085.31  3085.67  3086.64  3087.59
eigval :     3087.95  3089.66  3091.20  3099.02  3099.47  3101.11

   temp. (K)  partition function   enthalpy   heat capacity  entropy
                                   cal/mol     cal/K/mol   cal/K/mol   J/K/mol
 298.15  VIB  0.198E+36            39907.335    233.589    259.022
         ROT  0.548E+09              888.752      2.981     42.966
         INT  0.108E+45            40796.087    236.569    301.988
         TR   0.275E+29             1481.254      4.968     46.348
         TOT                       42277.3409   241.5376   348.3362  1457.4388

       T/K    H(0)-H(T)+PV         H(T)/Eh          T*S/Eh         G(T)/Eh
   ------------------------------------------------------------------------
    298.15    0.673732E-01    0.105477E+01    0.165506E+00    0.889264E+00
   ------------------------------------------------------------------------

         :::::::::::::::::::::::::::::::::::::::::::::::::::::
         ::                  THERMODYNAMIC                  ::
         :::::::::::::::::::::::::::::::::::::::::::::::::::::
         :: total free energy        -185.735240772977 Eh   ::
         ::.................................................::
         :: total energy             -186.624504853883 Eh   ::
         :: zero point energy           0.987396631034 Eh   ::
         :: G(RRHO) w/o ZPVE           -0.098132550128 Eh   ::
         :: G(RRHO) contrib.            0.889264080906 Eh   ::
         :::::::::::::::::::::::::::::::::::::::::::::::::::::

           -------------------------------------------------
          | TOTAL ENERGY             -186.624504853883 Eh   |
          | TOTAL ENTHALPY           -185.569734991580 Eh   |
          | TOTAL FREE ENERGY        -185.735240772977 Eh   |
          | GRADIENT NORM               0.000066675337 Eh/α |
          | HOMO-LUMO GAP               0.002869550609 eV   |
           -------------------------------------------------

 * finished run on 2025/08/25 at 17:17:44.085
