   * xtb version 6.7.1 (edcfbbe) compiled by 'albert@albert-system' on 2024-07-22

   ID    Z sym.   atoms
    1    6 C      1-14, 16-20, 22-26, 28-44, 46-50, 52-68, 70-72
    2    7 N      15, 21, 27, 45, 51, 69
    3    1 H      73-126

          program call               : xtb data2507/toluene/2MeCZ-TRZ/2MeCZ-TRZ_toluene_S0_finalOpt.xtbopt.xyz --gfn 2 --uhf 2 --gbsa toluene --ohess vtight --parallel 40 --molden --ceasefiles --namespace data2507/toluene/2MeCZ-TRZ/2MeCZ-TRZ_toluene_T1_preOpt
      * Solvation model:               GBSA
        Solvent                        toluene
        Solvent mass                       9.2140E+01 g/mol
          :  Hamiltonian                  GFN2-xTB          :
 * total energy  :  -186.6227017 Eh     change       -0.7400956E-08 Eh
 * total energy  :  -186.6239559 Eh     change       -0.1254127E-02 Eh
 * total energy  :  -186.6243099 Eh     change       -0.3539950E-03 Eh
 * total energy  :  -186.6243370 Eh     change       -0.2718147E-04 Eh
 * total energy  :  -186.6243678 Eh     change       -0.3074353E-04 Eh
 * total energy  :  -186.6243786 Eh     change       -0.1080406E-04 Eh
 * total energy  :  -186.6243995 Eh     change       -0.2088463E-04 Eh
 * total energy  :  -186.6244072 Eh     change       -0.7696826E-05 Eh
 * total energy  :  -186.6244157 Eh     change       -0.8538676E-05 Eh
 * total energy  :  -186.6244240 Eh     change       -0.8262540E-05 Eh
 * total energy  :  -186.6245542 Eh     change       -0.3767509E-06 Eh
 * total energy  :  -186.6245546 Eh     change       -0.4180299E-06 Eh
 * total energy  :  -186.6245552 Eh     change       -0.6102030E-06 Eh
 * total energy  :  -186.6245560 Eh     change       -0.7372598E-06 Eh
 * total energy  :  -186.6245567 Eh     change       -0.7035822E-06 Eh
 * total energy  :  -186.6245573 Eh     change       -0.6558118E-06 Eh
 * total energy  :  -186.6245582 Eh     change       -0.9011422E-06 Eh
 * total energy  :  -186.6245592 Eh     change       -0.9184181E-06 Eh
 * total energy  :  -186.6245592 Eh     change       -0.5723848E-09 Eh
   *** GEOMETRY OPTIMIZATION CONVERGED AFTER 94 ITERATIONS ***

 final structure:
================
126
 xtb: 6.7.1 (edcfbbe)
C            7.20721666996675       -8.35625971927779       -3.24362509960507
C            6.24004879360082       -7.67803226208517       -2.32052933157145
C            5.68370815808505       -6.44794150582054       -2.69174511825074
C            4.78970363374361       -5.77226865592398       -1.88615748779608
C            4.45281031494091       -6.34790077012889       -0.66758473641608
C            4.98026260971936       -7.60350208585434       -0.28485819517125
C            5.87752340957995       -8.25992199270590       -1.11444958202840
C            4.38201569267646       -7.92257012743723        0.98465192684714
C            4.49429404656428       -8.99564085603244        1.85648151141265
C            3.75822677828136       -8.99655850186575        3.03256551658375
C            3.85330358107775      -10.13754484572956        4.00047264814213
C            2.91894186873775       -7.91486712379933        3.32675266551465
C            2.78985752018822       -6.83278273417890        2.47993496773033
C            3.52195741710555       -6.84444725765528        1.29967955944003
N            3.58805275979028       -5.89811336816383        0.30306838435030
C            2.86916671296203       -4.68667329343769        0.27558146211169
C            1.47667118959347       -4.72789475575197        0.19141256712578
C            0.74469088927880       -3.56528461098514        0.14883624552293
C            1.39439564309267       -2.32432340851844        0.18690598463760
C            0.63937480457012       -1.09326708088791        0.12095911633106
N            1.30644753771856        0.06627303882928        0.12268910100180
C            0.57878761814001        1.18706307006683        0.02762847900477
C            1.26503694753376        2.45770224947378        0.01638127572010
C            0.54704479719794        3.65906605787254       -0.06161911642062
C            1.21402688130327        4.86055401740953       -0.07648888169399
C            2.60775400476610        4.89932727545842       -0.01421720347365
N            3.25802414580201        6.14944072453955       -0.03850710818406
C            4.06863286195337        6.62100870710828       -1.04439250075391
C            4.40545118062869        6.03169932734378       -2.25643528235210
C            5.23829250060360        6.73387563371501       -3.10377160218954
C            5.73252040256024        8.00356735878474       -2.78058784066868
C            6.63364187270464        8.71003830764696       -3.74830005530393
C            5.37098272332432        8.59641330482036       -1.57945602840348
C            4.53498132918292        7.91363916690420       -0.70828954823223
C            3.95615901779018        8.23145896163984        0.57053762393513
C            4.03433528277961        9.32998281117927        1.41388963286193
C            3.33613991001762        9.31839092766486        2.61284828623988
C            3.39662054783613       10.48558641455828        3.55177366278095
C            2.56718939993860        8.19990882841937        2.95730118007367
C            2.47241184308561        7.09261543401974        2.13908964283966
C            3.16755930946904        7.11550273948102        0.93681621926288
C            3.34781635157659        3.71156468304901        0.09175501075901
C            4.84084929209737        3.74547827521937        0.22693437581031
C            2.66281891597248        2.51300224922983        0.09787913889877
N           -0.75733902808219        1.18090824645064       -0.05748861605971
C           -1.36561586212353       -0.00994596675172       -0.02411683785927
C           -2.80852570056228       -0.05069218184480       -0.08791029003722
C           -3.55379654361124        1.12873380879495       -0.22073495365864
C           -4.92542600683752        1.07291021000951       -0.28764470241997
C           -5.59011764949070       -0.15245026336835       -0.21942417584841
N           -6.99700289927533       -0.17006013986772       -0.29311184504988
C           -7.85008517210220        0.39024324091668        0.62978880464125
C           -7.55590932268409        1.05007517889904        1.81605429533447
C           -8.61337489035853        1.50286304384069        2.57866290970603
C           -9.94627201955822        1.30890905621151        2.19568482010959
C          -11.04637146056790        1.83133794879544        3.07002382986174
C          -10.23181317246155        0.64027671642074        1.01397430844726
C           -9.18882987963328        0.17788761188147        0.22506466789441
C           -9.12423059861076       -0.53452990478247       -1.02373481750123
C          -10.08179527290280       -1.00198270063193       -1.91175382796751
C           -9.67702175103322       -1.64172937664108       -3.07431567398684
C          -10.68178976342229       -2.15982938742654       -4.05897299918544
C           -8.31110699181319       -1.79309343812024       -3.34279628762485
C           -7.33691620972588       -1.33704768744525       -2.47815236000567
C           -7.75011321449937       -0.72015329411635       -1.30408794123183
C           -4.86768959888832       -1.34446134345844       -0.05512635997717
C           -5.57418914684851       -2.65841811147353        0.09616216695595
C           -3.48992828759127       -1.27167287510927       -0.00186558051647
N           -0.69589371451283       -1.16682229514450        0.06026660630674
C            2.79067751343324       -2.29825384179393        0.29392726636173
C            3.54049802568262       -3.45651507145660        0.34880402168970
C            5.02987168129401       -3.39970775976988        0.51323749018063
H            7.60781772887342       -9.26048583552989       -2.79284147261488
H            8.03389510029557       -7.68930796224742       -3.48541713953084
H            6.71382400761507       -8.62362330791796       -4.17818074565157
H            5.96289479144479       -6.01928547164869       -3.64365336384067
H            4.35425739637984       -4.83420406924715       -2.19718130210066
H            6.28527471003554       -9.21715510693526       -0.82489825665317
H            5.14935751179833       -9.82123980977168        1.62061074877504
H            2.86621145333155      -10.55677553434478        4.19219807023272
H            4.49758239611102      -10.92354543291138        3.61519192313994
H            4.25675691135528       -9.79295152625231        4.95255714462438
H            2.35682013367881       -7.93120938386005        4.24947318111051
H            2.14223336551019       -6.00350777867010        2.72286235362404
H            0.98438645779963       -5.68913856889253        0.14856075395914
H           -0.33138057548971       -3.58526905974391        0.07572895441532
H           -0.52966164043475        3.61783695872817       -0.11453726017646
H            0.66853791658894        5.79104340313862       -0.14592670085745
H            4.01622498423092        5.06203877990824       -2.52950411461284
H            5.51649525647860        6.29544436870335       -4.05152495813157
H            6.98003014359155        9.65593359956165       -3.34008950695201
H            7.49959934123367        8.09191272844239       -3.98266081960067
H            6.10601616743493        8.90711867113782       -4.68151525131815
H            5.73162468845684        9.58241011985334       -1.32614582714235
H            4.63459619622534       10.18470993899060        1.13908108203537
H            2.39681531360289       10.87897618081728        3.73311654292373
H            4.01577486980642       11.28138789491835        3.14597517668456
H            3.80989457458535       10.17775677640796        4.51203919002757
H            2.03341856568839        8.20744722871190        3.89681676488556
H            1.87908888100879        6.23531442828351        2.42035880410073
H            5.20532013939751        2.79398824206684        0.60522605204493
H            5.14709157751503        4.53809967040570        0.90810301264907
H            5.31389833478818        3.93545298232161       -0.73623267782597
H            3.20057756031219        1.58037869711569        0.17934292575594
H           -3.03009191706213        2.07019107743303       -0.27718837301443
H           -5.50690885884432        1.97669659687484       -0.40258999887895
H           -6.53290107307545        1.20042342372469        2.12791267683783
H           -8.41042461232872        2.02224416908315        3.50426641557297
H          -12.02031642135661        1.53007411581263        2.69324300179862
H          -11.01170352751662        2.92010687170378        3.11002074318289
H          -10.93361142376464        1.45953476543879        4.08768261656103
H          -11.25566981188279        0.47925188655267        0.71037525816560
H          -11.13193047794126       -0.86315899054174       -1.70119164235872
H          -11.69600408281141       -1.99436933478417       -3.70501422660374
H          -10.53855116585783       -3.22750174280901       -4.22226448602360
H          -10.56261266732483       -1.65953852296060       -5.01986932198797
H           -8.01440354307452       -2.27825924864161       -4.26170623246681
H           -6.28761587682900       -1.44175627732314       -2.71126002217421
H           -5.92346964000116       -3.02662344164577       -0.86806937396196
H           -4.90169048493151       -3.39876582494697        0.52149201317660
H           -6.44259274475526       -2.55468975665011        0.74519939691242
H           -2.90312603132885       -2.16912303441452        0.12521605148099
H            3.27526012688688       -1.33488149099360        0.34639209361033
H            5.32841632916729       -2.42507600077286        0.89051835619409
H            5.53273745042984       -3.56663136310915       -0.43900454458756
H            5.37001915172125       -4.16736390328406        1.20658048510111

          :  Hamiltonian                  GFN2-xTB          :
         :: gradient norm              0.000098941370 Eh/a0 ::
         :: HOMO-LUMO gap              0.003231650092 eV    ::
         :: SCC energy              -189.971766685484 Eh    ::
         :: -> dispersion             -0.169030484851 Eh    ::
         :: -> Gsolv                  -0.086433712875 Eh    ::
         :: repulsion energy           3.347207510402 Eh    ::

    * Orbital Energies and Occupations

         #    Occupation            Energy/Eh            Energy/eV
      -------------------------------------------------------------
         1        2.0000           -0.6786428             -18.4668
       ...           ...                  ...                  ...
       163        2.0000           -0.4008389             -10.9074
       164        2.0000           -0.3963008             -10.7839
       165        2.0000           -0.3941890             -10.7264
       166        2.0000           -0.3936482             -10.7117
       167        2.0000           -0.3788030             -10.3078
       168        2.0000           -0.3787940             -10.3075
       169        2.0000           -0.3787684             -10.3068
       170        1.9579           -0.3624732              -9.8634
       171        1.9549           -0.3624052              -9.8615
       172        1.8379           -0.3610650              -9.8251
       173        1.6343           -0.3600276              -9.7968
       174        1.6149           -0.3599491              -9.7947
       175        0.5158           -0.2758741              -7.5069 (HOMO)
       176        0.4842           -0.2757543              -7.5037 (LUMO)
       177                         -0.2476413              -6.7387
       178                         -0.2463252              -6.7028
       179                         -0.2462982              -6.7021
       180                         -0.2408846              -6.5548
       181                         -0.2232172              -6.0740
       182                         -0.2231127              -6.0712
       183                         -0.2229869              -6.0678
       184                         -0.2219682              -6.0401
       185                         -0.2218874              -6.0379
       186                         -0.2217335              -6.0337
       ...                                ...                  ...
       342                          0.7384866              20.0952
      -------------------------------------------------------------
                  HL-Gap            0.0001198 Eh            0.0033 eV

     #   Z          covCN         q      C6AA      α(0)
     1   6 C        3.758    -0.111    22.666     6.788
     2   6 C        2.966     0.012    27.739     8.639
     3   6 C        2.928    -0.044    29.081     8.844
     4   6 C        2.908    -0.047    29.172     8.856
     5   6 C        3.083     0.045    26.901     8.503
     6   6 C        3.065    -0.017    28.372     8.734
     7   6 C        2.916    -0.042    29.040     8.837
     8   6 C        3.065    -0.017    28.378     8.735
     9   6 C        2.916    -0.042    29.045     8.838
    10   6 C        2.966     0.012    27.741     8.639
    11   6 C        3.758    -0.111    22.665     6.788
    12   6 C        2.929    -0.043    29.074     8.843
    13   6 C        2.907    -0.048    29.188     8.859
    14   6 C        3.084     0.043    26.938     8.508
    15   7 N        2.803    -0.028    21.776     6.931
    16   6 C        2.917     0.043    27.045     8.528
    17   6 C        2.918    -0.044    29.086     8.844
    18   6 C        2.922    -0.040    28.983     8.829
    19   6 C        2.980    -0.017    28.430     8.746
    20   6 C        2.942     0.201    23.741     7.991
    21   7 N        1.844    -0.332    29.455     8.043
    22   6 C        2.942     0.200    23.765     7.995
    23   6 C        2.979    -0.017    28.439     8.748
    24   6 C        2.922    -0.040    28.991     8.830
    25   6 C        2.918    -0.044    29.084     8.844
    26   6 C        2.917     0.042    27.061     8.530
    27   7 N        2.803    -0.027    21.773     6.930
    28   6 C        3.083     0.045    26.898     8.502
    29   6 C        2.908    -0.047    29.171     8.856
    30   6 C        2.928    -0.043    29.080     8.844
    31   6 C        2.966     0.012    27.737     8.639
    32   6 C        3.758    -0.111    22.666     6.788
    33   6 C        2.916    -0.042    29.038     8.837
    34   6 C        3.065    -0.017    28.371     8.734
    35   6 C        3.065    -0.017    28.377     8.735
    36   6 C        2.916    -0.042    29.044     8.837
    37   6 C        2.966     0.012    27.740     8.639
    38   6 C        3.758    -0.111    22.666     6.788
    39   6 C        2.929    -0.043    29.074     8.843
    40   6 C        2.907    -0.048    29.185     8.858
    41   6 C        3.084     0.043    26.935     8.508
    42   6 C        2.962     0.007    27.854     8.657
    43   6 C        3.757    -0.108    22.611     6.780
    44   6 C        2.929    -0.046    29.143     8.853
    45   7 N        1.844    -0.331    29.441     8.041
    46   6 C        2.941     0.201    23.746     7.992
    47   6 C        2.979    -0.017    28.438     8.747
    48   6 C        2.922    -0.040    28.987     8.829
    49   6 C        2.918    -0.044    29.086     8.844
    50   6 C        2.917     0.042    27.050     8.529
    51   7 N        2.803    -0.027    21.774     6.930
    52   6 C        3.084     0.043    26.938     8.508
    53   6 C        2.907    -0.048    29.186     8.858
    54   6 C        2.928    -0.043    29.074     8.843
    55   6 C        2.966     0.012    27.740     8.639
    56   6 C        3.758    -0.111    22.666     6.788
    57   6 C        2.916    -0.042    29.045     8.838
    58   6 C        3.065    -0.017    28.377     8.735
    59   6 C        3.065    -0.017    28.371     8.734
    60   6 C        2.916    -0.042    29.039     8.837
    61   6 C        2.966     0.012    27.738     8.639
    62   6 C        3.758    -0.111    22.666     6.788
    63   6 C        2.928    -0.043    29.080     8.844
    64   6 C        2.908    -0.047    29.172     8.856
    65   6 C        3.083     0.045    26.900     8.503
    66   6 C        2.962     0.007    27.855     8.657
    67   6 C        3.757    -0.108    22.612     6.780
    68   6 C        2.929    -0.046    29.135     8.852
    69   7 N        1.844    -0.333    29.488     8.048
    70   6 C        2.929    -0.046    29.133     8.852
    71   6 C        2.963     0.007    27.853     8.657
    72   6 C        3.757    -0.108    22.613     6.780
    73   1 H        0.925     0.045     2.379     2.412
    74   1 H        0.925     0.050     2.323     2.383
    75   1 H        0.925     0.050     2.317     2.380
    76   1 H        0.926     0.036     2.503     2.474
    77   1 H        0.926     0.030     2.591     2.517
    78   1 H        0.926     0.038     2.481     2.463
    79   1 H        0.926     0.038     2.479     2.462
    80   1 H        0.925     0.050     2.324     2.384
    81   1 H        0.925     0.045     2.378     2.411
    82   1 H        0.925     0.050     2.315     2.379
    83   1 H        0.926     0.036     2.502     2.474
    84   1 H        0.926     0.030     2.592     2.518
    85   1 H        0.926     0.039     2.457     2.451
    86   1 H        0.926     0.041     2.441     2.443
    87   1 H        0.926     0.039     2.456     2.451
    88   1 H        0.926     0.039     2.467     2.456
    89   1 H        0.926     0.030     2.591     2.517
    90   1 H        0.926     0.036     2.502     2.473
    91   1 H        0.925     0.045     2.379     2.412
    92   1 H        0.925     0.050     2.320     2.382
    93   1 H        0.925     0.050     2.317     2.381
    94   1 H        0.926     0.038     2.480     2.463
    95   1 H        0.926     0.038     2.478     2.462
    96   1 H        0.925     0.050     2.320     2.382
    97   1 H        0.925     0.046     2.377     2.411
    98   1 H        0.925     0.050     2.316     2.380
    99   1 H        0.926     0.036     2.503     2.474
   100   1 H        0.926     0.029     2.597     2.520
   101   1 H        0.925     0.048     2.339     2.392
   102   1 H        0.925     0.047     2.353     2.399
   103   1 H        0.925     0.056     2.246     2.344
   104   1 H        0.926     0.043     2.403     2.424
   105   1 H        0.926     0.040     2.451     2.448
   106   1 H        0.926     0.039     2.461     2.453
   107   1 H        0.926     0.029     2.596     2.520
   108   1 H        0.926     0.036     2.502     2.474
   109   1 H        0.925     0.046     2.375     2.410
   110   1 H        0.925     0.051     2.312     2.378
   111   1 H        0.925     0.050     2.326     2.385
   112   1 H        0.926     0.038     2.477     2.461
   113   1 H        0.926     0.038     2.479     2.462
   114   1 H        0.925     0.045     2.379     2.412
   115   1 H        0.925     0.050     2.318     2.381
   116   1 H        0.925     0.050     2.319     2.382
   117   1 H        0.926     0.036     2.502     2.474
   118   1 H        0.926     0.030     2.591     2.517
   119   1 H        0.925     0.056     2.244     2.343
   120   1 H        0.925     0.048     2.341     2.393
   121   1 H        0.925     0.048     2.351     2.398
   122   1 H        0.926     0.043     2.409     2.427
   123   1 H        0.926     0.044     2.402     2.424
   124   1 H        0.925     0.049     2.337     2.391
   125   1 H        0.925     0.056     2.243     2.342
   126   1 H        0.925     0.047     2.353     2.399

molecular dipole:
                 x           y           z       tot (Debye)
 q only:        0.439      -0.239      -0.039
   full:        0.360      -0.194      -0.051       1.048

 projected vibrational frequencies (cm⁻¹)
eigval :       -0.00    -0.00    -0.00    -0.00     0.00     0.00
eigval :       -4.71     6.56     7.36     8.23     8.84    12.42
eigval :       18.54    19.94    28.68    35.92    38.80    40.91
eigval :       41.62    44.06    45.02    46.80    49.64    50.45
eigval :       62.31    71.15    72.58    75.28    81.86    83.35
eigval :       84.32    86.93    88.68    89.55    92.83    95.50
eigval :      102.26   103.90   104.42   114.15   118.25   122.10
eigval :      143.76   149.05   151.85   152.70   159.88   161.54
eigval :      165.75   184.18   186.18   198.38   204.42   212.79
eigval :      222.52   223.60   223.96   240.30   260.64   266.14
eigval :      276.37   280.23   292.81   294.96   297.30   315.74
eigval :      316.57   317.81   318.36   319.54   336.40   340.10
eigval :      341.50   352.17   357.37   361.86   369.45   380.08
eigval :      387.61   389.17   392.64   394.19   395.67   406.38
eigval :      408.57   410.85   421.78   422.81   423.85   427.86
eigval :      429.31   433.63   451.88   454.83   464.08   466.43
eigval :      476.89   481.79   486.91   488.16   519.07   524.74
eigval :      525.27   527.45   552.04   553.36   557.66   561.45
eigval :      567.79   570.95   572.80   574.06   575.71   577.08
eigval :      579.03   582.50   599.65   609.05   612.13   612.40
eigval :      617.66   621.29   629.33   630.39   642.07   642.92
eigval :      668.62   671.57   672.50   672.86   675.00   681.66
eigval :      683.22   706.14   706.64   707.93   709.82   727.21
eigval :      727.92   732.89   740.97   745.22   794.32   794.49
eigval :      794.69   810.52   812.20   812.76   815.05   815.78
eigval :      817.24   823.11   825.43   826.05   852.76   867.55
eigval :      870.13   870.48   870.54   871.34   871.83   873.25
eigval :      874.11   874.39   906.26   906.90   908.31   908.97
eigval :      909.27   910.69   911.55   912.50   912.92   914.70
eigval :      915.35   916.17   924.49   924.61   924.63   949.12
eigval :      951.16   952.76   957.02   960.22   979.82  1007.76
eigval :     1008.62  1008.72  1011.55  1015.00  1015.11  1016.13
eigval :     1016.57  1019.76  1027.91  1029.08  1029.15  1029.50
eigval :     1029.67  1029.80  1030.47  1030.64  1031.88  1037.84
eigval :     1037.90  1038.25  1079.81  1095.64  1096.82  1101.57
eigval :     1133.84  1135.56  1143.11  1144.52  1145.01  1147.34
eigval :     1149.71  1155.66  1165.33  1165.69  1167.90  1183.73
eigval :     1184.19  1186.38  1201.55  1201.67  1202.21  1210.39
eigval :     1220.32  1221.77  1233.45  1235.68  1238.39  1244.07
eigval :     1245.54  1248.52  1250.35  1250.58  1251.64  1273.32
eigval :     1285.43  1285.47  1285.74  1292.06  1292.21  1292.41
eigval :     1315.05  1325.12  1330.87  1335.88  1337.53  1347.19
eigval :     1347.27  1347.31  1347.95  1348.96  1351.18  1356.13
eigval :     1374.97  1375.24  1392.23  1400.15  1401.05  1401.24
eigval :     1401.94  1402.07  1402.18  1403.60  1403.86  1404.68
eigval :     1412.14  1413.36  1413.72  1414.96  1422.96  1433.44
eigval :     1435.93  1436.83  1438.53  1461.55  1461.62  1461.82
eigval :     1468.26  1469.97  1470.58  1471.06  1471.69  1473.80
eigval :     1473.99  1474.10  1474.47  1474.92  1475.04  1476.00
eigval :     1476.62  1476.82  1477.97  1478.38  1478.83  1484.63
eigval :     1484.95  1485.54  1486.26  1498.34  1498.51  1498.69
eigval :     1522.35  1523.38  1524.82  1560.58  1560.61  1560.74
eigval :     1564.10  1564.55  1575.76  1575.88  1576.36  1584.70
eigval :     1584.79  1584.88  1586.10  1594.89  1599.97  1609.53
eigval :     2997.79  2999.01  2999.10  2999.73  2999.88  2999.91
eigval :     3003.50  3003.64  3003.87  3013.75  3013.82  3014.17
eigval :     3014.71  3015.15  3015.82  3021.08  3021.22  3022.50
eigval :     3044.97  3045.08  3045.13  3045.31  3045.33  3045.42
eigval :     3045.47  3045.78  3046.48  3073.22  3073.45  3073.73
eigval :     3073.90  3074.37  3074.62  3074.67  3075.49  3076.16
eigval :     3079.70  3079.95  3080.01  3081.81  3081.92  3082.23
eigval :     3084.88  3085.14  3086.22  3086.44  3087.10  3088.88
eigval :     3089.80  3089.97  3091.71  3099.02  3100.26  3101.72

   temp. (K)  partition function   enthalpy   heat capacity  entropy
                                   cal/mol     cal/K/mol   cal/K/mol   J/K/mol
 298.15  VIB  0.668E+35            39857.738    234.229    258.670
         ROT  0.548E+09              888.752      2.981     42.966
         INT  0.366E+44            40746.491    237.210    301.636
         TR   0.275E+29             1481.254      4.968     46.348
         TOT                       42227.7445   242.1783   347.9840  1455.9651

       T/K    H(0)-H(T)+PV         H(T)/Eh          T*S/Eh         G(T)/Eh
   ------------------------------------------------------------------------
    298.15    0.672942E-01    0.105485E+01    0.165338E+00    0.889511E+00
   ------------------------------------------------------------------------

         :::::::::::::::::::::::::::::::::::::::::::::::::::::
         ::                  THERMODYNAMIC                  ::
         :::::::::::::::::::::::::::::::::::::::::::::::::::::
         :: total free energy        -185.735047919465 Eh   ::
         ::.................................................::
         :: total energy             -186.624559171245 Eh   ::
         :: zero point energy           0.987555495313 Eh   ::
         :: G(RRHO) w/o ZPVE           -0.098044243533 Eh   ::
         :: G(RRHO) contrib.            0.889511251780 Eh   ::
         :::::::::::::::::::::::::::::::::::::::::::::::::::::

           -------------------------------------------------
          | TOTAL ENERGY             -186.624559171245 Eh   |
          | TOTAL ENTHALPY           -185.569709481572 Eh   |
          | TOTAL FREE ENERGY        -185.735047919465 Eh   |
          | GRADIENT NORM               0.000085279118 Eh/α |
          | HOMO-LUMO GAP               0.003259663173 eV   |
           -------------------------------------------------

 * finished run on 2025/08/25 at 16:58:15.995
