   * xtb version 6.7.1 (edcfbbe) compiled by 'albert@albert-system' on 2024-07-22

   ID    Z sym.   atoms
    1    6 C      1, 2, 4, 6-32, 34-58
    2    7 N      3, 5, 33, 59
    3    1 H      60-99

          program call               : xtb data2507/toluene/1MPA/1MPA_toluene_S0_finalOpt.xtbopt.xyz --gfn 2 --uhf 2 --gbsa toluene --ohess vtight --parallel 40 --molden --ceasefiles --namespace data2507/toluene/1MPA/1MPA_toluene_T1_preOpt
      * Solvation model:               GBSA
        Solvent                        toluene
        Solvent mass                       9.2140E+01 g/mol
          :  Hamiltonian                  GFN2-xTB          :
 * total energy  :  -149.8682955 Eh     change       -0.6872150E-07 Eh
 * total energy  :  -149.8715109 Eh     change       -0.3215396E-02 Eh
 * total energy  :  -149.8727054 Eh     change       -0.1194486E-02 Eh
 * total energy  :  -149.8729184 Eh     change       -0.2130693E-03 Eh
 * total energy  :  -149.8732267 Eh     change       -0.3082535E-03 Eh
 * total energy  :  -149.8733455 Eh     change       -0.1188144E-03 Eh
 * total energy  :  -149.8735137 Eh     change       -0.1681881E-03 Eh
 * total energy  :  -149.8736340 Eh     change       -0.1203423E-03 Eh
 * total energy  :  -149.8737493 Eh     change       -0.1152970E-03 Eh
 * total energy  :  -149.8738769 Eh     change       -0.1275444E-03 Eh
 * total energy  :  -149.8751853 Eh     change       -0.3164169E-06 Eh
 * total energy  :  -149.8751857 Eh     change       -0.3644499E-06 Eh
 * total energy  :  -149.8751860 Eh     change       -0.3465651E-06 Eh
 * total energy  :  -149.8751861 Eh     change       -0.5757499E-08 Eh
 * total energy  :  -149.8751863 Eh     change       -0.2138729E-06 Eh
 * total energy  :  -149.8751864 Eh     change       -0.1400293E-06 Eh
 * total energy  :  -149.8751865 Eh     change       -0.1191925E-06 Eh
 * total energy  :  -149.8751865 Eh     change        0.1723652E-07 Eh
 * total energy  :  -149.8751865 Eh     change       -0.3424307E-07 Eh
   *** GEOMETRY OPTIMIZATION CONVERGED AFTER 113 ITERATIONS ***

 final structure:
================
99
 xtb: 6.7.1 (edcfbbe)
C           -0.92123818667161       -5.29174047967610       -0.59015812172988
C           -0.60615773594709       -3.91226285218569       -0.10292085244448
N            0.64198504343760       -3.51982857060328       -0.15452440165617
C            0.95532955278471       -2.26553254523382        0.31223788378639
N            2.25754604512921       -1.76267117800389        0.26623553283374
C            2.81411160942302       -1.28923166240784        1.44163339904444
C            2.42931090480328       -1.83895511778487        2.67371453507567
C            3.00766865857424       -1.40074731449190        3.84202850192155
C            3.97740968215911       -0.40208251217649        3.81003632630012
C            4.35963346920764        0.14951186326377        2.59554269053358
C            3.79672930483108       -0.28145037032215        1.40761883796372
C            4.11437392337386        0.35927370100840        0.07493625267001
C            3.04169453058605        1.40689994772512       -0.25420704213565
C            2.09972245563077        1.81380500134383        0.68214529563601
C            1.12792689803562        2.74394877955900        0.35094143379924
C            1.08701652358461        3.29018702363776       -0.91912116380373
C            2.02814728112017        2.89827339807098       -1.85739321523472
C            2.99136403591997        1.96145530823707       -1.52947607794922
C            5.51002787264878        0.95861129830076        0.11712271267447
C            6.59214398306394        0.09247109991076        0.25364180766330
C            7.88337956914548        0.58042381273740        0.31770317590760
C            8.11385527920656        1.94560477310086        0.25275084362138
C            7.04338509483573        2.81340061069947        0.13125441736219
C            5.74808153776036        2.32446158986246        0.06697273347307
C            4.00110194038090       -0.69640264982237       -1.01050972889753
C            4.78110097466887       -0.66790285009943       -2.15570935656594
C            4.55986483101270       -1.55990347999967       -3.19326202816489
C            3.52790691439303       -2.48283448919617       -3.10490731234098
C            2.74041923906873       -2.53281636835832       -1.97410108459635
C            2.98658784059273       -1.66201883479075       -0.90925866927116
C           -0.05652331348563       -1.41583299470120        0.77156399780957
C           -1.35481543667956       -1.89371986067401        0.75005448716320
N           -2.43842455902982       -1.10052353589300        1.04502210986776
C           -2.30906055441848        0.19014338104458        1.56812169586861
C           -1.49038007667279        0.46460579939999        2.66403734728689
C           -1.41869405155400        1.74820580251049        3.16521505577906
C           -2.16370953076095        2.76691033480306        2.58559271615775
C           -2.99968310682292        2.49152249149613        1.51151384426732
C           -3.09083746199765        1.21046368928836        1.00163389125390
C           -3.93913669308990        0.80708342769290       -0.18915678785626
C           -4.95008277408302        1.88175603795977       -0.53019086030530
C           -4.94103687554739        2.55479016711748       -1.74356982056301
C           -5.88139362986916        3.53734244166236       -2.00984298713259
C           -6.83951911355738        3.86287381963419       -1.06655398525602
C           -6.84986312500842        3.20341869135260        0.15235830905410
C           -5.91185920695811        2.22365191155893        0.41819953317270
C           -3.02234516894743        0.47062625590832       -1.36852643740453
C           -1.71538381460771        0.93471212038716       -1.43641898417207
C           -0.88581119233492        0.55943302639154       -2.47955835385944
C           -1.35318271167125       -0.27731188638719       -3.47688468990773
C           -2.66432299576787       -0.72192805567916       -3.43355079955132
C           -3.49047642772786       -0.35178099337565       -2.38844559447339
C           -4.60270795910493       -0.50430604129903        0.20652903977231
C           -5.92170771027308       -0.82760551713826       -0.04833960654519
C           -6.41123407844157       -2.09131418505387        0.25285182639023
C           -5.57098435429176       -3.04772810481268        0.80377655248469
C           -4.25083822704816       -2.74328262096097        1.07011484670299
C           -3.75714390034139       -1.47750577408525        0.76542154690926
N           -1.61619153718218       -3.18552689008297        0.34392312175378
H           -1.55176815099331       -5.22679816926690       -1.47520313195711
H           -1.47234157708124       -5.83571620827946        0.17347084708650
H           -0.00281364520990       -5.81839893564195       -0.83180409101212
H            1.68881233591007       -2.62545999313897        2.68379506304201
H            2.71060036181650       -1.83692897516586        4.78403688187909
H            4.42743986788311       -0.05239962182444        4.72599797500046
H            5.09985887594404        0.93519311804519        2.57622476709913
H            2.12004793524489        1.41366367076934        1.68492151017154
H            0.39921009350689        3.03628232512157        1.09379141071777
H            0.32695300099418        4.01272332771860       -1.17727849630300
H            2.00905307658545        3.31978838497883       -2.85211055403635
H            3.71334120400008        1.65973132052797       -2.27319074756479
H            6.41387140770115       -0.97238959813530        0.30883854470279
H            8.71144901982236       -0.10571386794288        0.42016467973556
H            9.12236559089726        2.32921023031497        0.30153287181619
H            7.21250625428738        3.87967141901549        0.08860473789600
H            4.92251942393788        3.01510977339355       -0.01940287032734
H            5.57114218297852        0.06355298571572       -2.24181841253098
H            5.18020553376805       -1.52002723621472       -4.07572967647351
H            3.33780004604480       -3.16523128598654       -3.91956025950115
H            1.94085130067528       -3.25072528145392       -1.88215762821983
H            0.18204905677770       -0.39890943433319        1.03905498603926
H           -0.93394937267727       -0.33790968640754        3.12595773076429
H           -0.78174124696289        1.95635811564240        4.01231961815038
H           -2.09666641196189        3.77363930216599        2.96923739632107
H           -3.57244243433467        3.28896987729068        1.06225762030305
H           -4.19660289311569        2.31423994442929       -2.48798916006425
H           -5.86132052892501        4.04996308381599       -2.96080992057838
H           -7.57306155140833        4.62744878627303       -1.27679211910373
H           -7.59006933644224        3.45373358394354        0.89857227502473
H           -5.91954913205053        1.71409497259282        1.37163409547557
H           -1.32914346422820        1.58860659007077       -0.66825939856304
H            0.13211002696248        0.92112559020153       -2.50330408835341
H           -0.70101692328480       -0.57863267063802       -4.28358025210410
H           -3.04487020739828       -1.36647388188981       -4.21281412730340
H           -4.50891617641805       -0.71107351983876       -2.35899823455443
H           -6.57424202059994       -0.09751628994223       -0.50440588005326
H           -7.44416485763463       -2.32809339957103        0.04729283914254
H           -5.94994598004121       -4.03210895192433        1.03511604261667
H           -3.58877684755405       -3.47473426833729        1.50326704812939

          :  Hamiltonian                  GFN2-xTB          :
         :: gradient norm              0.000107759977 Eh/a0 ::
         :: HOMO-LUMO gap              0.270713542589 eV    ::
         :: SCC energy              -152.634888864513 Eh    ::
         :: -> dispersion             -0.164063031328 Eh    ::
         :: -> Gsolv                  -0.054268928225 Eh    ::
         :: repulsion energy           2.759702255308 Eh    ::

    * Orbital Energies and Occupations

         #    Occupation            Energy/Eh            Energy/eV
      -------------------------------------------------------------
         1        2.0000           -0.6814527             -18.5433
       ...           ...                  ...                  ...
       129        2.0000           -0.4069529             -11.0738
       130        2.0000           -0.4045123             -11.0073
       131        2.0000           -0.4043517             -11.0030
       132        2.0000           -0.4018706             -10.9355
       133        2.0000           -0.4003933             -10.8953
       134        2.0000           -0.3970332             -10.8038
       135        2.0000           -0.3962901             -10.7836
       136        2.0000           -0.3938072             -10.7160
       137        2.0000           -0.3928023             -10.6887
       138        1.9989           -0.3684799             -10.0268
       139        1.9325           -0.3644753              -9.9179
       140        1.0685           -0.3595009              -9.7825
       141        0.9945           -0.2494005              -6.7865 (HOMO)
       142        0.0051           -0.2394513              -6.5158 (LUMO)
       143        0.0004           -0.2369538              -6.4478
       144        0.0000           -0.2343756              -6.3777
       145        0.0000           -0.2321215              -6.3163
       146        0.0000           -0.2315138              -6.2998
       147                         -0.2290056              -6.2316
       148                         -0.2278551              -6.2003
       149                         -0.2270590              -6.1786
       150                         -0.2260192              -6.1503
       151                         -0.2246661              -6.1135
       152                         -0.2244921              -6.1087
       ...                                ...                  ...
       276                          0.6752529              18.3746
      -------------------------------------------------------------
                  HL-Gap            0.0099492 Eh            0.2707 eV

     #   Z          covCN         q      C6AA      α(0)
     1   6 C        3.763    -0.121    22.865     6.816
     2   6 C        2.895     0.199    23.773     7.994
     3   7 N        1.840    -0.303    28.712     7.941
     4   6 C        2.901     0.106    25.649     8.304
     5   7 N        2.756    -0.039    21.990     6.965
     6   6 C        2.943     0.055    26.773     8.486
     7   6 C        2.919    -0.046    29.142     8.852
     8   6 C        2.916    -0.032    28.810     8.802
     9   6 C        2.917    -0.040    28.984     8.828
    10   6 C        2.919    -0.035    28.870     8.811
    11   6 C        2.984    -0.004    28.107     8.697
    12   6 C        3.922     0.011    20.324     6.407
    13   6 C        2.981     0.013    27.728     8.638
    14   6 C        2.923    -0.037    28.909     8.817
    15   6 C        2.919    -0.030    28.743     8.792
    16   6 C        2.919    -0.030    28.747     8.792
    17   6 C        2.919    -0.030    28.742     8.791
    18   6 C        2.924    -0.036    28.894     8.815
    19   6 C        2.977     0.013    27.727     8.637
    20   6 C        2.925    -0.033    28.813     8.803
    21   6 C        2.919    -0.030    28.750     8.793
    22   6 C        2.919    -0.032    28.794     8.799
    23   6 C        2.920    -0.030    28.757     8.794
    24   6 C        2.922    -0.036    28.893     8.815
    25   6 C        2.988    -0.001    28.054     8.688
    26   6 C        2.921    -0.035    28.861     8.810
    27   6 C        2.918    -0.033    28.823     8.804
    28   6 C        2.918    -0.030    28.749     8.793
    29   6 C        2.920    -0.048    29.188     8.860
    30   6 C        2.933     0.063    26.589     8.457
    31   6 C        2.910    -0.073    29.816     8.954
    32   6 C        2.888     0.135    25.045     8.205
    33   7 N        2.757    -0.058    22.358     7.023
    34   6 C        2.949     0.050    26.868     8.502
    35   6 C        2.918    -0.049    29.208     8.862
    36   6 C        2.918    -0.035    28.874     8.812
    37   6 C        2.918    -0.043    29.073     8.842
    38   6 C        2.919    -0.037    28.923     8.819
    39   6 C        2.991    -0.005    28.132     8.701
    40   6 C        3.925     0.011    20.329     6.408
    41   6 C        2.975     0.013    27.726     8.637
    42   6 C        2.922    -0.036    28.893     8.815
    43   6 C        2.920    -0.031    28.768     8.796
    44   6 C        2.919    -0.033    28.814     8.803
    45   6 C        2.919    -0.031    28.779     8.797
    46   6 C        2.925    -0.032    28.808     8.802
    47   6 C        2.982     0.014    27.705     8.634
    48   6 C        2.923    -0.037    28.917     8.819
    49   6 C        2.920    -0.032    28.802     8.801
    50   6 C        2.919    -0.033    28.829     8.805
    51   6 C        2.919    -0.031    28.779     8.797
    52   6 C        2.924    -0.035    28.876     8.812
    53   6 C        2.995    -0.007    28.181     8.708
    54   6 C        2.919    -0.038    28.949     8.823
    55   6 C        2.918    -0.042    29.042     8.837
    56   6 C        2.919    -0.035    28.873     8.812
    57   6 C        2.918    -0.043    29.075     8.842
    58   6 C        2.949     0.063    26.598     8.459
    59   7 N        1.843    -0.328    29.360     8.030
    60   1 H        0.925     0.061     2.189     2.314
    61   1 H        0.925     0.061     2.188     2.313
    62   1 H        0.925     0.058     2.217     2.328
    63   1 H        0.926     0.029     2.600     2.521
    64   1 H        0.926     0.039     2.465     2.455
    65   1 H        0.926     0.040     2.450     2.448
    66   1 H        0.926     0.040     2.451     2.448
    67   1 H        0.926     0.026     2.644     2.543
    68   1 H        0.926     0.029     2.594     2.519
    69   1 H        0.926     0.035     2.519     2.482
    70   1 H        0.926     0.036     2.502     2.474
    71   1 H        0.926     0.038     2.478     2.462
    72   1 H        0.926     0.029     2.605     2.524
    73   1 H        0.926     0.034     2.526     2.485
    74   1 H        0.926     0.034     2.527     2.486
    75   1 H        0.926     0.034     2.532     2.488
    76   1 H        0.926     0.032     2.552     2.498
    77   1 H        0.926     0.044     2.401     2.423
    78   1 H        0.926     0.045     2.386     2.416
    79   1 H        0.926     0.044     2.399     2.422
    80   1 H        0.926     0.060     2.201     2.320
    81   1 H        0.926     0.018     2.766     2.601
    82   1 H        0.926     0.027     2.628     2.535
    83   1 H        0.926     0.035     2.514     2.480
    84   1 H        0.926     0.035     2.518     2.482
    85   1 H        0.926     0.037     2.496     2.470
    86   1 H        0.926     0.029     2.594     2.519
    87   1 H        0.926     0.032     2.552     2.498
    88   1 H        0.926     0.033     2.542     2.493
    89   1 H        0.926     0.033     2.540     2.492
    90   1 H        0.926     0.031     2.578     2.511
    91   1 H        0.926     0.025     2.652     2.547
    92   1 H        0.926     0.026     2.647     2.544
    93   1 H        0.926     0.032     2.559     2.502
    94   1 H        0.926     0.034     2.535     2.490
    95   1 H        0.926     0.033     2.546     2.495
    96   1 H        0.926     0.037     2.496     2.470
    97   1 H        0.926     0.036     2.506     2.476
    98   1 H        0.926     0.037     2.487     2.466
    99   1 H        0.926     0.052     2.295     2.369

molecular dipole:
                 x           y           z       tot (Debye)
 q only:        0.858       0.776      -0.388
   full:        0.907       0.920      -0.261       3.351

 projected vibrational frequencies (cm⁻¹)
eigval :       -0.00    -0.00    -0.00     0.00     0.00     0.00
eigval :        3.24    16.84    17.60    19.79    31.41    40.43
eigval :       41.90    44.55    49.09    54.69    57.41    58.61
eigval :       60.58    64.78    68.43    71.48    76.60    82.75
eigval :       85.48    89.17    92.97   126.09   133.93   141.32
eigval :      147.13   163.68   168.79   178.06   188.22   199.07
eigval :      223.15   230.38   234.78   236.63   238.97   248.37
eigval :      256.83   260.57   265.63   277.20   281.61   294.12
eigval :      300.15   313.85   322.50   332.03   364.77   371.44
eigval :      373.93   374.77   376.05   376.85   394.67   397.37
eigval :      401.43   427.00   431.89   438.20   444.94   450.90
eigval :      455.27   464.16   470.51   478.35   483.18   492.27
eigval :      501.70   506.58   508.52   518.96   524.56   528.61
eigval :      576.74   582.13   587.26   587.90   587.98   588.52
eigval :      595.21   599.43   601.11   604.18   606.65   608.05
eigval :      610.23   624.37   641.05   670.34   671.50   672.98
eigval :      673.37   677.03   682.83   684.73   690.21   698.21
eigval :      700.69   745.25   752.80   753.75   756.53   759.96
eigval :      760.49   765.89   769.89   778.69   809.05   830.68
eigval :      856.26   861.11   876.78   877.95   879.10   879.63
eigval :      880.21   881.61   887.19   888.10   894.58   898.41
eigval :      900.29   901.43   902.50   903.35   905.04   908.34
eigval :      910.28   911.36   911.90   914.57   918.04   919.33
eigval :      920.52   924.74   925.73   929.92   930.94   931.40
eigval :      932.71   933.07   933.98   935.19   935.67   938.83
eigval :      953.73   960.45   983.04   984.09   996.93   999.60
eigval :     1006.22  1010.32  1020.84  1078.39  1084.58  1085.75
eigval :     1087.02  1088.16  1089.23  1089.78  1093.01  1097.09
eigval :     1109.28  1115.10  1123.26  1124.83  1126.48  1128.61
eigval :     1130.17  1139.52  1167.46  1171.95  1172.34  1173.68
eigval :     1176.74  1177.59  1179.25  1179.64  1180.98  1181.53
eigval :     1184.46  1192.56  1194.28  1200.82  1201.98  1203.64
eigval :     1205.53  1209.18  1210.42  1231.50  1240.16  1249.56
eigval :     1250.29  1254.53  1256.86  1257.61  1262.78  1285.91
eigval :     1286.69  1286.84  1289.33  1290.26  1294.76  1312.64
eigval :     1315.42  1316.56  1318.41  1318.53  1326.11  1331.58
eigval :     1334.93  1337.40  1356.74  1369.17  1381.05  1403.53
eigval :     1416.23  1423.70  1427.92  1428.60  1431.84  1432.40
eigval :     1432.66  1433.35  1435.01  1438.49  1444.61  1454.15
eigval :     1454.68  1461.97  1470.31  1472.19  1473.73  1475.02
eigval :     1476.85  1479.88  1502.86  1524.37  1525.68  1536.21
eigval :     1543.69  1560.78  1578.69  1582.26  1586.02  1586.34
eigval :     1587.47  1592.57  1598.43  1599.18  1600.59  3015.15
eigval :     3031.43  3055.23  3067.79  3068.77  3070.05  3070.18
eigval :     3070.37  3072.14  3072.59  3073.11  3074.79  3076.09
eigval :     3076.89  3077.87  3078.26  3080.56  3080.81  3081.28
eigval :     3082.35  3085.31  3085.38  3085.54  3086.01  3086.62
eigval :     3086.69  3086.81  3090.80  3091.10  3091.67  3092.55
eigval :     3093.10  3093.59  3093.93  3095.79  3096.61  3097.42
eigval :     3101.49  3104.05  3112.72

   temp. (K)  partition function   enthalpy   heat capacity  entropy
                                   cal/mol     cal/K/mol   cal/K/mol   J/K/mol
 298.15  VIB  0.252E+23            28564.081    180.251    179.836
         ROT  0.887E+08              888.752      2.981     39.349
         INT  0.224E+31            29452.834    183.232    219.185
         TR   0.201E+29             1481.254      4.968     45.731
         TOT                       30934.0875   188.2001   264.9157  1108.4075

       T/K    H(0)-H(T)+PV         H(T)/Eh          T*S/Eh         G(T)/Eh
   ------------------------------------------------------------------------
    298.15    0.492966E-01    0.815954E+00    0.125870E+00    0.690084E+00
   ------------------------------------------------------------------------

         :::::::::::::::::::::::::::::::::::::::::::::::::::::
         ::                  THERMODYNAMIC                  ::
         :::::::::::::::::::::::::::::::::::::::::::::::::::::
         :: total free energy        -149.185102318003 Eh   ::
         ::.................................................::
         :: total energy             -149.875186609624 Eh   ::
         :: zero point energy           0.766657706533 Eh   ::
         :: G(RRHO) w/o ZPVE           -0.076573414912 Eh   ::
         :: G(RRHO) contrib.            0.690084291621 Eh   ::
         :::::::::::::::::::::::::::::::::::::::::::::::::::::

           -------------------------------------------------
          | TOTAL ENERGY             -149.875186609624 Eh   |
          | TOTAL ENTHALPY           -149.059232296851 Eh   |
          | TOTAL FREE ENERGY        -149.185102318003 Eh   |
          | GRADIENT NORM               0.000108451055 Eh/α |
          | HOMO-LUMO GAP               0.270731220202 eV   |
           -------------------------------------------------

 * finished run on 2025/09/12 at 09:33:42.155
