   * xtb version 6.7.1 (edcfbbe) compiled by 'albert@albert-system' on 2024-07-22

   ID    Z sym.   atoms
    1    6 C      1, 2, 4, 6-32, 34-58
    2    7 N      3, 5, 33, 59
    3    1 H      60-99

          program call               : xtb data2507/toluene/1MPA/1MPA_toluene_T1_crest.xyz --gfn 2 --uhf 2 --gbsa toluene --ohess vtight --parallel 40 --molden --ceasefiles --namespace data2507/toluene/1MPA/1MPA_toluene_T1_finalOpt
      * Solvation model:               GBSA
        Solvent                        toluene
        Solvent mass                       9.2140E+01 g/mol
          :  Hamiltonian                  GFN2-xTB          :
 * total energy  :  -149.8775887 Eh     change       -0.3978042E-07 Eh
 * total energy  :  -149.8776634 Eh     change       -0.7461450E-04 Eh
 * total energy  :  -149.8777087 Eh     change       -0.4532737E-04 Eh
 * total energy  :  -149.8777340 Eh     change       -0.2529798E-04 Eh
 * total energy  :  -149.8777570 Eh     change       -0.2301511E-04 Eh
 * total energy  :  -149.8777851 Eh     change       -0.2815161E-04 Eh
 * total energy  :  -149.8777951 Eh     change       -0.9964586E-05 Eh
 * total energy  :  -149.8778105 Eh     change       -0.1536874E-04 Eh
 * total energy  :  -149.8778178 Eh     change       -0.7357416E-05 Eh
 * total energy  :  -149.8778281 Eh     change       -0.1029739E-04 Eh
 * total energy  :  -149.8784555 Eh     change       -0.3012258E-05 Eh
 * total energy  :  -149.8784576 Eh     change       -0.2087230E-05 Eh
 * total energy  :  -149.8784591 Eh     change       -0.1525422E-05 Eh
 * total energy  :  -149.8784607 Eh     change       -0.1542526E-05 Eh
 * total energy  :  -149.8784621 Eh     change       -0.1465795E-05 Eh
 * total energy  :  -149.8784633 Eh     change       -0.1109091E-05 Eh
 * total energy  :  -149.8784642 Eh     change       -0.9630388E-06 Eh
 * total energy  :  -149.8784650 Eh     change       -0.7556604E-06 Eh
 * total energy  :  -149.8784650 Eh     change       -0.6093359E-08 Eh
   *** GEOMETRY OPTIMIZATION CONVERGED AFTER 68 ITERATIONS ***

 final structure:
================
99
 xtb: 6.7.1 (edcfbbe)
C           -0.00079399434600       -5.80114279354027       -0.05455282585053
C           -0.02114429076191       -4.30418319107374       -0.00833652412116
N            1.13367019259417       -3.68474124283540       -0.09798039799592
C            1.12832889028114       -2.30095804224356       -0.10718834651132
N            2.30938978746393       -1.57198423111882       -0.27889894913124
C            3.43244352338366       -1.76783392708802        0.51492879641104
C            3.64488013817639       -2.98882218054742        1.16111771358676
C            4.79874350633729       -3.20187241069020        1.88572530020270
C            5.74925619529078       -2.19767883289304        1.99229505152503
C            5.52823887543303       -0.97371440247023        1.38121270917722
C            4.37825120726933       -0.73821602051378        0.64436236921364
C            4.06555695868203        0.62720864459096        0.06624790631264
C            3.14345250712008        1.39070661167834        1.02496018761878
C            2.96673343732079        0.99686141682757        2.34494554608022
C            2.12238683585084        1.70349991214962        3.18560719219581
C            1.44164212922717        2.81499274757351        2.72293393992843
C            1.61911601952843        3.22172998394369        1.41103426847620
C            2.46099294141570        2.51554219894363        0.57150578191613
C            5.35833436920730        1.38429158887055       -0.19312807944498
C            6.24306687864910        0.87098033309999       -1.13855206895882
C            7.43967361992304        1.50841134111166       -1.40536186288120
C            7.77492957711544        2.66932907417515       -0.72632599887495
C            6.90665260288010        3.17986712592895        0.22176316805239
C            5.70610849627390        2.54095147930421        0.48943071573899
C            3.28580364088765        0.43407365503179       -1.21957204438991
C            3.38113315973930        1.31606774080888       -2.28344841813774
C            2.58623739838262        1.17081029028915       -3.40913847059649
C            1.67356052708520        0.12573417958580       -3.47680097050250
C            1.56645716614247       -0.76540111727143       -2.43359418413682
C            2.36963465358538       -0.62808399701353       -1.29373112584926
C           -0.06316219145424       -1.60954220930433        0.06974634914706
C           -1.22983675406074       -2.34607730525345        0.20642183400165
N           -2.42992598267806       -1.65775731078238        0.39441318195098
C           -2.50529067424002       -0.71620641486992        1.41097419082876
C           -1.77509814916977       -0.89104874029076        2.59231895172463
C           -1.90009338058953        0.00969836044656        3.62598025520994
C           -2.74454558810526        1.10667058453933        3.49790083281098
C           -3.46375530765735        1.29026957227686        2.32715059741802
C           -3.36357605370124        0.38897006318807        1.28149856349052
C           -4.06821343375164        0.58072950484889       -0.04455095090810
C           -5.28002625225936        1.47741965971462        0.13483958990860
C           -5.37545783710604        2.73685479730211       -0.43899057491017
C           -6.49790798404799        3.52182060339656       -0.22675122275003
C           -7.53493177807396        3.06077315165078        0.56415092040187
C           -7.44272197493652        1.80822323808718        1.15048850860231
C           -6.32355817966409        1.02561235676614        0.93946744147504
C           -3.07724805066841        1.14453512908183       -1.06992088448359
C           -1.85570119981887        1.68535851526950       -0.68919143895068
C           -0.96581984291897        2.15882466226132       -1.63897578247828
C           -1.28663668769953        2.10910517558806       -2.98316853638401
C           -2.50763094561863        1.58394389006277       -3.37213543196938
C           -3.39236264036745        1.10283326384729       -2.42446135883862
C           -4.46305879378787       -0.79116829648379       -0.56370278727476
C           -5.62371493379140       -1.01421494986265       -1.28605049908935
C           -5.88260523277507       -2.25068517885597       -1.85657161220386
C           -4.96141140998932       -3.27918845069919       -1.72555263675552
C           -3.79870653105349       -3.07979747015825       -1.01091174247499
C           -3.55085328979030       -1.84632179780921       -0.40558657277392
N           -1.19842173621781       -3.72463535975397        0.11849901522747
H            1.02328692017142       -6.15294599724204       -0.13572794945184
H           -0.57584045374750       -6.14821920984408       -0.91084759003285
H           -0.46242114988933       -6.20342422439216        0.84497269337653
H            2.90004865513230       -3.76235986655661        1.06250857688416
H            4.95478469694970       -4.15246165275596        2.37357065121017
H            6.64977193457554       -2.35693852167535        2.56562677937288
H            6.25328926620650       -0.18193758043916        1.49603096415415
H            3.49213817932286        0.13570914731992        2.72979324074074
H            2.00053020844044        1.37971431341877        4.20907034785163
H            0.77983170122961        3.36179175229009        3.37823879994386
H            1.09884764270777        4.09266644433425        1.03880456168065
H            2.59322533576321        2.84516448464494       -0.44821450606648
H            5.98494797119381       -0.03633608727183       -1.66667740695631
H            8.11305286518369        1.09795057369264       -2.14372034372160
H            8.70939416214408        3.16970786203784       -0.93402850790840
H            7.16152897467332        4.08073763508707        0.76112358041750
H            5.04243231750703        2.94885111618997        1.23724261612860
H            4.09113107081061        2.12891920503115       -2.23544556421868
H            2.67789681619808        1.86923615519925       -4.22659866330826
H            1.05204672291286        0.00060739883433       -4.35048351631992
H            0.87440590752891       -1.59241579383960       -2.49152792481998
H           -0.08263412392311       -0.52950571632582        0.09224121721427
H           -1.12987338463386       -1.75262409898669        2.68580542667506
H           -1.34255855398537       -0.14224079199049        4.53790627831263
H           -2.83724364697695        1.81806313656175        4.30386022158940
H           -4.10520863938481        2.15264961126161        2.22380677826165
H           -4.57121650745002        3.11308732825524       -1.05350264238374
H           -6.55743945135101        4.49979961932329       -0.68230113195581
H           -8.40932809473681        3.67366314247295        0.72706363244134
H           -8.24421438929357        1.44121688324404        1.77503980384752
H           -6.25109466252855        0.05117009785732        1.40209804821342
H           -1.59071680392133        1.74562958134455        0.35639586465278
H           -0.01636941044929        2.56370515856255       -1.32140544733378
H           -0.59056122913429        2.47787837746408       -3.72118947260442
H           -2.77346679172204        1.54544137944880       -4.41858244587525
H           -4.34005196845024        0.69270121861452       -2.74030560050972
H           -6.33257695206639       -0.20944354499558       -1.41503667061741
H           -6.79209312997425       -2.40221086571862       -2.41793187340211
H           -5.14938693479850       -4.23858656111333       -2.18393334738417
H           -3.07336999649874       -3.86880157748311       -0.88806470591390

          :  Hamiltonian                  GFN2-xTB          :
         :: gradient norm              0.000071077719 Eh/a0 ::
         :: HOMO-LUMO gap              0.446394743982 eV    ::
         :: SCC energy              -152.637218880469 Eh    ::
         :: -> dispersion             -0.160823274297 Eh    ::
         :: -> Gsolv                  -0.055498344810 Eh    ::
         :: repulsion energy           2.758753894864 Eh    ::

    * Orbital Energies and Occupations

         #    Occupation            Energy/Eh            Energy/eV
      -------------------------------------------------------------
         1        2.0000           -0.6778104             -18.4442
       ...           ...                  ...                  ...
       129        2.0000           -0.4062314             -11.0541
       130        2.0000           -0.4061614             -11.0522
       131        2.0000           -0.4057902             -11.0421
       132        2.0000           -0.4052631             -11.0278
       133        2.0000           -0.3988890             -10.8543
       134        2.0000           -0.3981875             -10.8352
       135        2.0000           -0.3970869             -10.8053
       136        2.0000           -0.3952766             -10.7560
       137        2.0000           -0.3950485             -10.7498
       138        1.9986           -0.3664771              -9.9723
       139        1.9920           -0.3648010              -9.9267
       140        1.0094           -0.3557997              -9.6818
       141        0.9997           -0.2523180              -6.8659 (HOMO)
       142        0.0001           -0.2359140              -6.4195 (LUMO)
       143        0.0001           -0.2352908              -6.4026
       144        0.0001           -0.2352384              -6.4012
       145        0.0000           -0.2336041              -6.3567
       146        0.0000           -0.2312225              -6.2919
       147        0.0000           -0.2301040              -6.2614
       148        0.0000           -0.2293450              -6.2408
       149                         -0.2267291              -6.1696
       150                         -0.2265302              -6.1642
       151                         -0.2260076              -6.1500
       152                         -0.2256186              -6.1394
       ...                                ...                  ...
       276                          0.6657000              18.1146
      -------------------------------------------------------------
                  HL-Gap            0.0164040 Eh            0.4464 eV

     #   Z          covCN         q      C6AA      α(0)
     1   6 C        3.763    -0.121    22.856     6.815
     2   6 C        2.894     0.201    23.744     7.989
     3   7 N        1.839    -0.321    29.175     8.005
     4   6 C        2.895     0.111    25.559     8.289
     5   7 N        2.754    -0.049    22.184     6.995
     6   6 C        2.932     0.064    26.561     8.452
     7   6 C        2.920    -0.051    29.278     8.873
     8   6 C        2.918    -0.031    28.781     8.797
     9   6 C        2.917    -0.036    28.895     8.815
    10   6 C        2.922    -0.036    28.894     8.815
    11   6 C        2.984    -0.004    28.107     8.696
    12   6 C        3.921     0.011    20.331     6.408
    13   6 C        2.979     0.012    27.743     8.640
    14   6 C        2.923    -0.037    28.929     8.820
    15   6 C        2.920    -0.031    28.764     8.795
    16   6 C        2.919    -0.033    28.810     8.802
    17   6 C        2.919    -0.031    28.768     8.796
    18   6 C        2.925    -0.036    28.900     8.816
    19   6 C        2.977     0.013    27.723     8.637
    20   6 C        2.925    -0.032    28.805     8.801
    21   6 C        2.919    -0.030    28.753     8.793
    22   6 C        2.919    -0.032    28.800     8.800
    23   6 C        2.920    -0.031    28.763     8.795
    24   6 C        2.922    -0.036    28.899     8.816
    25   6 C        2.987    -0.005    28.136     8.701
    26   6 C        2.921    -0.035    28.878     8.812
    27   6 C        2.918    -0.039    28.973     8.827
    28   6 C        2.917    -0.031    28.781     8.797
    29   6 C        2.921    -0.047    29.168     8.856
    30   6 C        2.940     0.057    26.729     8.479
    31   6 C        2.912    -0.060    29.495     8.906
    32   6 C        2.895     0.116    25.453     8.272
    33   7 N        2.756    -0.052    22.243     7.005
    34   6 C        2.943     0.056    26.733     8.480
    35   6 C        2.920    -0.047    29.175     8.857
    36   6 C        2.917    -0.033    28.823     8.804
    37   6 C        2.918    -0.040    29.001     8.831
    38   6 C        2.920    -0.036    28.891     8.814
    39   6 C        2.986    -0.005    28.150     8.703
    40   6 C        3.922     0.011    20.329     6.408
    41   6 C        2.976     0.013    27.727     8.637
    42   6 C        2.922    -0.036    28.895     8.815
    43   6 C        2.920    -0.031    28.763     8.795
    44   6 C        2.919    -0.032    28.804     8.801
    45   6 C        2.919    -0.030    28.760     8.794
    46   6 C        2.925    -0.032    28.807     8.802
    47   6 C        2.981     0.012    27.741     8.640
    48   6 C        2.923    -0.036    28.904     8.816
    49   6 C        2.920    -0.031    28.770     8.796
    50   6 C        2.919    -0.032    28.797     8.800
    51   6 C        2.919    -0.031    28.769     8.796
    52   6 C        2.924    -0.036    28.902     8.816
    53   6 C        2.990    -0.004    28.111     8.697
    54   6 C        2.921    -0.036    28.892     8.815
    55   6 C        2.918    -0.036    28.898     8.815
    56   6 C        2.918    -0.032    28.789     8.799
    57   6 C        2.920    -0.051    29.267     8.872
    58   6 C        2.934     0.063    26.593     8.457
    59   7 N        1.839    -0.327    29.320     8.025
    60   1 H        0.925     0.057     2.231     2.336
    61   1 H        0.925     0.059     2.210     2.325
    62   1 H        0.925     0.060     2.202     2.321
    63   1 H        0.926     0.062     2.173     2.305
    64   1 H        0.926     0.041     2.442     2.444
    65   1 H        0.926     0.041     2.441     2.443
    66   1 H        0.926     0.039     2.457     2.451
    67   1 H        0.926     0.029     2.601     2.522
    68   1 H        0.926     0.033     2.548     2.496
    69   1 H        0.926     0.034     2.528     2.487
    70   1 H        0.926     0.034     2.528     2.486
    71   1 H        0.926     0.035     2.521     2.483
    72   1 H        0.926     0.028     2.620     2.531
    73   1 H        0.926     0.034     2.534     2.489
    74   1 H        0.926     0.034     2.532     2.488
    75   1 H        0.926     0.033     2.538     2.491
    76   1 H        0.926     0.032     2.560     2.502
    77   1 H        0.926     0.040     2.451     2.448
    78   1 H        0.926     0.039     2.458     2.452
    79   1 H        0.926     0.038     2.480     2.463
    80   1 H        0.926     0.025     2.661     2.551
    81   1 H        0.926     0.010     2.888     2.657
    82   1 H        0.926     0.026     2.646     2.544
    83   1 H        0.926     0.038     2.482     2.464
    84   1 H        0.926     0.039     2.466     2.456
    85   1 H        0.926     0.039     2.469     2.457
    86   1 H        0.926     0.031     2.566     2.505
    87   1 H        0.926     0.033     2.540     2.492
    88   1 H        0.926     0.034     2.533     2.489
    89   1 H        0.926     0.034     2.534     2.489
    90   1 H        0.926     0.029     2.606     2.525
    91   1 H        0.926     0.024     2.674     2.557
    92   1 H        0.926     0.030     2.591     2.517
    93   1 H        0.926     0.036     2.508     2.477
    94   1 H        0.926     0.036     2.505     2.475
    95   1 H        0.926     0.036     2.502     2.474
    96   1 H        0.926     0.040     2.444     2.445
    97   1 H        0.926     0.041     2.435     2.440
    98   1 H        0.926     0.041     2.438     2.442
    99   1 H        0.926     0.063     2.162     2.299

molecular dipole:
                 x           y           z       tot (Debye)
 q only:       -0.000       1.082      -0.108
   full:        0.004       1.259      -0.075       3.206

 projected vibrational frequencies (cm⁻¹)
eigval :       -0.00    -0.00    -0.00     0.00     0.00     0.00
eigval :      -20.50     7.11    12.56    15.43    16.37    26.40
eigval :       30.76    39.36    44.31    47.74    49.16    54.59
eigval :       61.49    63.10    66.26    68.92    73.98    80.83
eigval :       84.76    87.63    98.02   126.35   132.98   141.57
eigval :      160.24   164.22   169.56   180.57   184.46   203.67
eigval :      226.14   232.37   234.03   235.76   237.42   250.08
eigval :      257.77   260.50   273.34   280.02   284.70   291.39
eigval :      299.19   304.06   317.15   339.04   370.56   371.79
eigval :      372.89   374.11   375.38   375.58   392.30   398.92
eigval :      406.11   416.30   436.86   442.26   443.32   448.18
eigval :      460.95   463.07   471.46   477.16   488.01   495.43
eigval :      496.81   507.86   509.55   515.46   525.63   535.55
eigval :      578.63   586.20   587.48   587.78   588.14   588.35
eigval :      594.19   598.83   601.28   605.63   608.05   608.45
eigval :      615.51   627.37   643.45   669.61   670.90   673.34
eigval :      674.28   677.54   684.98   685.47   690.74   698.49
eigval :      700.52   745.37   753.07   754.64   755.52   759.81
eigval :      774.61   775.53   778.78   779.08   830.45   836.96
eigval :      872.91   874.61   875.68   878.22   879.28   880.09
eigval :      880.48   882.14   889.11   889.67   897.97   899.51
eigval :      900.15   901.24   903.42   903.73   911.40   912.64
eigval :      915.36   916.31   919.29   921.24   923.73   924.83
eigval :      925.27   927.86   929.32   930.57   930.83   931.86
eigval :      932.49   933.30   933.91   934.67   936.75   940.99
eigval :      951.45   959.03   983.00   984.30   990.64   998.51
eigval :      999.72  1009.22  1020.94  1085.18  1086.32  1087.08
eigval :     1089.85  1090.89  1091.81  1092.90  1095.06  1096.97
eigval :     1114.52  1115.98  1124.14  1124.97  1127.57  1130.32
eigval :     1132.64  1154.23  1173.90  1174.21  1176.36  1177.00
eigval :     1177.65  1179.27  1179.62  1179.78  1180.18  1183.03
eigval :     1189.03  1194.95  1200.60  1203.29  1204.52  1206.38
eigval :     1209.19  1211.19  1214.64  1228.84  1236.64  1248.49
eigval :     1251.67  1255.01  1257.56  1259.78  1261.59  1286.56
eigval :     1286.74  1288.15  1289.68  1293.32  1296.37  1303.19
eigval :     1315.84  1316.21  1318.37  1318.67  1324.90  1326.24
eigval :     1335.36  1336.04  1343.28  1368.09  1380.65  1410.87
eigval :     1413.83  1423.64  1426.74  1427.60  1429.21  1429.99
eigval :     1430.96  1432.71  1433.24  1445.56  1447.42  1455.43
eigval :     1463.45  1466.02  1469.46  1471.39  1471.97  1474.08
eigval :     1474.55  1515.76  1518.01  1545.54  1547.49  1548.24
eigval :     1551.98  1574.26  1581.68  1584.84  1585.25  1587.18
eigval :     1587.29  1596.44  1596.73  1600.04  1600.18  3016.56
eigval :     3026.59  3056.33  3067.30  3067.76  3069.20  3070.63
eigval :     3070.80  3071.33  3073.94  3074.50  3075.81  3077.22
eigval :     3077.49  3077.63  3079.04  3079.10  3080.94  3081.34
eigval :     3083.00  3084.74  3085.21  3085.85  3086.45  3086.58
eigval :     3086.77  3088.55  3089.50  3090.13  3091.59  3093.16
eigval :     3093.20  3094.03  3095.70  3096.84  3097.53  3098.84
eigval :     3099.29  3100.27  3102.84

   temp. (K)  partition function   enthalpy   heat capacity  entropy
                                   cal/mol     cal/K/mol   cal/K/mol   J/K/mol
 298.15  VIB  0.957E+22            28037.839    177.627    175.348
         ROT  0.924E+08              888.752      2.981     39.431
         INT  0.885E+30            28926.591    180.608    214.778
         TR   0.201E+29             1481.254      4.968     45.731
         TOT                       30407.8450   185.5758   260.5091  1089.9702

       T/K    H(0)-H(T)+PV         H(T)/Eh          T*S/Eh         G(T)/Eh
   ------------------------------------------------------------------------
    298.15    0.484580E-01    0.815833E+00    0.123776E+00    0.692056E+00
   ------------------------------------------------------------------------

         :::::::::::::::::::::::::::::::::::::::::::::::::::::
         ::                  THERMODYNAMIC                  ::
         :::::::::::::::::::::::::::::::::::::::::::::::::::::
         :: total free energy        -149.186408513205 Eh   ::
         ::.................................................::
         :: total energy             -149.878464990085 Eh   ::
         :: zero point energy           0.767374788837 Eh   ::
         :: G(RRHO) w/o ZPVE           -0.075318311957 Eh   ::
         :: G(RRHO) contrib.            0.692056476880 Eh   ::
         :::::::::::::::::::::::::::::::::::::::::::::::::::::

           -------------------------------------------------
          | TOTAL ENERGY             -149.878464990085 Eh   |
          | TOTAL ENTHALPY           -149.062632215757 Eh   |
          | TOTAL FREE ENERGY        -149.186408513205 Eh   |
          | GRADIENT NORM               0.000071783141 Eh/α |
          | HOMO-LUMO GAP               0.446376825717 eV   |
           -------------------------------------------------

 * finished run on 2025/09/12 at 09:40:30.100
