   * xtb version 6.7.1 (edcfbbe) compiled by 'albert@albert-system' on 2024-07-22

   ID    Z sym.   atoms
    1    6 C      1, 2, 4, 6-32, 34-58
    2    7 N      3, 5, 33, 59
    3    1 H      60-99

          program call               : xtb data2507/toluene/1MPA/1MPA_toluene_S0_crest.xyz --gfn 2 --gbsa toluene --ohess vtight --parallel 40 --molden --ceasefiles --namespace data2507/toluene/1MPA/1MPA_toluene_S0_finalOpt
      * Solvation model:               GBSA
        Solvent                        toluene
        Solvent mass                       9.2140E+01 g/mol
          :  Hamiltonian                  GFN2-xTB          :
 * total energy  :  -149.9841335 Eh     change       -0.7140784E-08 Eh
 * total energy  :  -149.9842063 Eh     change       -0.7286916E-04 Eh
 * total energy  :  -149.9842695 Eh     change       -0.6315120E-04 Eh
 * total energy  :  -149.9843140 Eh     change       -0.4455508E-04 Eh
 * total energy  :  -149.9843488 Eh     change       -0.3471282E-04 Eh
 * total energy  :  -149.9843838 Eh     change       -0.3509290E-04 Eh
 * total energy  :  -149.9843985 Eh     change       -0.1470031E-04 Eh
 * total energy  :  -149.9844107 Eh     change       -0.1216526E-04 Eh
 * total energy  :  -149.9844257 Eh     change       -0.1501476E-04 Eh
 * total energy  :  -149.9844383 Eh     change       -0.1252769E-04 Eh
 * total energy  :  -149.9849243 Eh     change       -0.6937510E-06 Eh
 * total energy  :  -149.9849249 Eh     change       -0.5519096E-06 Eh
 * total energy  :  -149.9849255 Eh     change       -0.6649813E-06 Eh
 * total energy  :  -149.9849262 Eh     change       -0.6158907E-06 Eh
 * total energy  :  -149.9849266 Eh     change       -0.4765232E-06 Eh
 * total energy  :  -149.9849269 Eh     change       -0.2493697E-06 Eh
 * total energy  :  -149.9849270 Eh     change       -0.1456529E-06 Eh
 * total energy  :  -149.9849272 Eh     change       -0.1508864E-06 Eh
 * total energy  :  -149.9849272 Eh     change       -0.3645852E-08 Eh
   *** GEOMETRY OPTIMIZATION CONVERGED AFTER 68 ITERATIONS ***

 final structure:
================
99
 xtb: 6.7.1 (edcfbbe)
C           -1.14187980384587       -4.85401794045733       -1.30321757284500
C           -0.77899762688427       -3.61875580197006       -0.54161905292964
N            0.49416358720782       -3.24910202514728       -0.56795827032125
C            0.82533779649750       -2.16237412996183        0.13008790424028
N            2.14452039801512       -1.72575994863509        0.14490906229181
C            2.69006946761155       -1.26265311287163        1.34717359493574
C            2.33116256753234       -1.85976804454866        2.55485977113867
C            2.90519741608448       -1.44161571488708        3.73879535509069
C            3.85863108525309       -0.43631549179012        3.72902330121725
C            4.23339499751699        0.14393709688338        2.53020541797435
C            3.66067214166947       -0.25968654531814        1.33222796346510
C            3.99295239842711        0.39226308409064        0.00528578885670
C            2.92486891982512        1.42985945988400       -0.34235522564029
C            2.03452707938145        1.91158981734566        0.60890242730367
C            1.08347674003833        2.86076305862018        0.27271762656910
C            1.01073991133579        3.35022104660787       -1.01928735776022
C            1.89706689828733        2.88027958177192       -1.97448653824969
C            2.84233985695921        1.92734383007690       -1.63940614420145
C            5.37800985689929        1.01501213530035        0.08145209538039
C            6.46847437666530        0.17161295541500        0.28287768311649
C            7.74912784725006        0.68151115676096        0.37666650311698
C            7.96188139566909        2.04761870578422        0.27706529047223
C            6.88388946059000        2.89324747650517        0.08779311092853
C            5.59897670910503        2.38171245309905       -0.00650984223162
C            3.94662595967482       -0.68756682153966       -1.06638315201746
C            4.79029202222420       -0.65764357025119       -2.16773869837794
C            4.67664357038434       -1.59211584359214       -3.18189277509014
C            3.70549230952936       -2.57469495383003       -3.10011079368723
C            2.86599444484577       -2.63279811017686       -2.00415102123125
C            2.97580846175276       -1.69232157832618       -0.98450287219054
C           -0.12426229724652       -1.42910568167775        0.83173606671818
C           -1.44130934537309       -1.88211040914065        0.76550002741757
N           -2.48041140628600       -1.19027325077671        1.32079393689836
C           -2.32544104119045        0.12572156684271        1.81200553238175
C           -1.56133759551630        0.39339409016905        2.93855808260404
C           -1.45568536930998        1.69436601105209        3.39964060613591
C           -2.11822469161902        2.71719041783959        2.74252073833176
C           -2.89892139110880        2.44545907464321        1.63028038835874
C           -3.01812032614788        1.14796496669314        1.15933993619578
C           -3.82724479851595        0.73621917832153       -0.05922253814004
C           -4.76298687859303        1.84301541963100       -0.49858269831420
C           -4.66126310435159        2.45207670816760       -1.74115652517449
C           -5.53541087642804        3.46570231589945       -2.10025245712708
C           -6.51864051277720        3.88545630408845       -1.22218654210451
C           -6.62252811535153        3.28829105940791        0.02410386165327
C           -5.75070560136015        2.27727513415064        0.38284739272207
C           -2.86809085877200        0.30493929314149       -1.17093493867897
C           -1.54792002096704        0.73418771112440       -1.20405365680658
C           -0.67851756285233        0.27022731317716       -2.17664334406759
C           -1.11945540807254       -0.61712088643624       -3.14145025494287
C           -2.44301305510883       -1.02496596652494       -3.13671572932055
C           -3.30829121925427       -0.56972438560223       -2.15942401193383
C           -4.57832269554015       -0.52628871780077        0.34797040455435
C           -5.90440733476766       -0.79368281985700        0.04972481430433
C           -6.46149948666278       -2.01780798196308        0.38363424239630
C           -5.69634062555765       -2.98767095465586        1.00851999278671
C           -4.37115262454306       -2.73376110861282        1.31664212843949
C           -3.81835530925541       -1.50819755194611        0.98429539156397
N           -1.75192909663236       -3.00014847498709        0.09632774197296
H           -0.84615139031138       -4.74230996895842       -2.34404730571514
H           -2.21250812033827       -5.01995491530699       -1.23656996443463
H           -0.60738904620513       -5.70903864265728       -0.89349454074486
H            1.60193631685150       -2.65764963669430        2.55342127710301
H            2.61465375865524       -1.90909021347651        4.66794578426365
H            4.30865777431112       -0.10410542677569        4.65203496137849
H            4.96970635221761        0.93353986546185        2.52475370832336
H            2.08335003270112        1.55262757820438        1.62652262009233
H            0.39871422559789        3.21769377300220        1.02898055634499
H            0.26824286596626        4.08944297118121       -1.28123923431507
H            1.85091592861452        3.25461204514313       -2.98699285682696
H            3.52614668304152        1.56707641138126       -2.39367385330131
H            6.30450545150354       -0.89392735763206        0.36424511408968
H            8.58295495294892        0.01190131918928        0.52990008768499
H            8.96226112367274        2.44848654324783        0.34930176539249
H            7.03829845556271        3.96017039200448        0.01488140978159
H            4.76816747327781        3.05686044589490       -0.14766554684582
H            5.54363362649778        0.11369158778821       -2.23734326864798
H            5.34024730293544       -1.54638857894473       -4.03238395270356
H            3.60492900181810       -3.30801090583402       -3.88662678709595
H            2.11100407446694       -3.39655087876967       -1.92383711000773
H            0.14844090537841       -0.52199405723530        1.34314349369364
H           -1.05954711964268       -0.41493194501517        3.44981170897989
H           -0.85616987434418        1.90555762029202        4.27236730872663
H           -2.02966376132064        3.73322527732717        3.09698242611985
H           -3.40763343641088        3.25005902092347        1.12130293757354
H           -3.89607866054145        2.13694959245193       -2.43508044684512
H           -5.44349729088322        3.92821684089638       -3.07236219369127
H           -7.19930614382747        4.67501733819358       -1.50479767125347
H           -7.38431924419748        3.61134178486840        0.71866692784335
H           -5.83150309735251        1.81600081921011        1.35717552578609
H           -1.18036845477885        1.42860611510602       -0.46269042426681
H            0.34920631962446        0.60303058391301       -2.17046484545560
H           -0.43545543129766       -0.98727988501354       -3.89112456276426
H           -2.80218306154055       -1.71023600788092       -3.89055049845964
H           -4.33530980165243       -0.90373368030980       -2.15951937957143
H           -6.50176533692747       -0.05261842154160       -0.46012431666016
H           -7.49515604742553       -2.21575480011400        0.14257385161305
H           -6.13120697101907       -3.94314861466480        1.26035791531281
H           -3.75859177034524       -3.47879158193712        1.79873517086329

          :  Hamiltonian                  GFN2-xTB          :
         :: gradient norm              0.000045608693 Eh/a0 ::
         :: HOMO-LUMO gap              2.989860431196 eV    ::
         :: SCC energy              -152.762587572699 Eh    ::
         :: -> dispersion             -0.167984411043 Eh    ::
         :: -> Gsolv                  -0.053636710702 Eh    ::
         :: repulsion energy           2.777660391203 Eh    ::

    * Orbital Energies and Occupations

         #    Occupation            Energy/Eh            Energy/eV
      -------------------------------------------------------------
         1        2.0000           -0.6805042             -18.5175
       ...           ...                  ...                  ...
       128        2.0000           -0.4069590             -11.0739
       129        2.0000           -0.4067389             -11.0679
       130        2.0000           -0.4063465             -11.0573
       131        2.0000           -0.4055638             -11.0360
       132        2.0000           -0.4046103             -11.0100
       133        2.0000           -0.3987884             -10.8516
       134        2.0000           -0.3979613             -10.8291
       135        2.0000           -0.3968778             -10.7996
       136        2.0000           -0.3965365             -10.7903
       137        2.0000           -0.3938997             -10.7186
       138        2.0000           -0.3746855             -10.1957
       139        2.0000           -0.3664071              -9.9704
       140        2.0000           -0.3598742              -9.7927 (HOMO)
       141                         -0.2499989              -6.8028 (LUMO)
       142                         -0.2432822              -6.6200
       143                         -0.2386569              -6.4942
       144                         -0.2340751              -6.3695
       145                         -0.2322882              -6.3209
       146                         -0.2312507              -6.2927
       147                         -0.2305814              -6.2744
       148                         -0.2302967              -6.2667
       149                         -0.2282592              -6.2113
       150                         -0.2278346              -6.1997
       151                         -0.2271213              -6.1803
       ...                                ...                  ...
       276                          0.6689539              18.2032
      -------------------------------------------------------------
                  HL-Gap            0.1098753 Eh            2.9899 eV

     #   Z          covCN         q      C6AA      α(0)
     1   6 C        3.763    -0.124    22.930     6.826
     2   6 C        2.946     0.202    23.726     7.989
     3   7 N        1.844    -0.329    29.397     8.035
     4   6 C        2.922     0.182    24.103     8.051
     5   7 N        2.757    -0.092    23.044     7.130
     6   6 C        2.941     0.061    26.624     8.463
     7   6 C        2.922    -0.051    29.262     8.871
     8   6 C        2.919    -0.034    28.837     8.806
     9   6 C        2.918    -0.040    28.999     8.831
    10   6 C        2.922    -0.036    28.902     8.816
    11   6 C        2.987    -0.006    28.160     8.705
    12   6 C        3.922     0.011    20.338     6.409
    13   6 C        2.978     0.012    27.745     8.640
    14   6 C        2.923    -0.037    28.925     8.820
    15   6 C        2.919    -0.031    28.763     8.795
    16   6 C        2.919    -0.031    28.777     8.797
    17   6 C        2.919    -0.030    28.748     8.792
    18   6 C        2.924    -0.036    28.897     8.815
    19   6 C        2.977     0.013    27.730     8.638
    20   6 C        2.925    -0.032    28.798     8.801
    21   6 C        2.919    -0.031    28.764     8.795
    22   6 C        2.919    -0.033    28.811     8.802
    23   6 C        2.920    -0.031    28.773     8.796
    24   6 C        2.922    -0.037    28.910     8.817
    25   6 C        2.988    -0.010    28.250     8.719
    26   6 C        2.923    -0.038    28.941     8.822
    27   6 C        2.917    -0.042    29.034     8.836
    28   6 C        2.920    -0.034    28.851     8.808
    29   6 C        2.921    -0.058    29.446     8.899
    30   6 C        2.930     0.064    26.558     8.452
    31   6 C        2.916    -0.099    30.500     9.056
    32   6 C        2.922     0.183    24.081     8.047
    33   7 N        2.760    -0.094    23.075     7.134
    34   6 C        2.948     0.059    26.683     8.472
    35   6 C        2.919    -0.045    29.125     8.850
    36   6 C        2.920    -0.032    28.804     8.801
    37   6 C        2.919    -0.034    28.858     8.809
    38   6 C        2.921    -0.035    28.875     8.812
    39   6 C        2.990    -0.001    28.044     8.687
    40   6 C        3.925     0.012    20.318     6.406
    41   6 C        2.974     0.011    27.756     8.642
    42   6 C        2.922    -0.035    28.883     8.813
    43   6 C        2.920    -0.030    28.754     8.793
    44   6 C        2.919    -0.032    28.796     8.800
    45   6 C        2.919    -0.031    28.768     8.796
    46   6 C        2.925    -0.033    28.820     8.804
    47   6 C        2.982     0.014    27.704     8.634
    48   6 C        2.923    -0.038    28.956     8.824
    49   6 C        2.920    -0.033    28.813     8.802
    50   6 C        2.919    -0.033    28.819     8.803
    51   6 C        2.920    -0.031    28.766     8.795
    52   6 C        2.924    -0.035    28.870     8.811
    53   6 C        2.995    -0.004    28.101     8.696
    54   6 C        2.921    -0.037    28.921     8.819
    55   6 C        2.919    -0.036    28.888     8.814
    56   6 C        2.921    -0.032    28.801     8.801
    57   6 C        2.919    -0.038    28.944     8.822
    58   6 C        2.952     0.069    26.452     8.436
    59   7 N        1.850    -0.329    29.383     8.034
    60   1 H        0.925     0.064     2.157     2.297
    61   1 H        0.925     0.063     2.165     2.301
    62   1 H        0.925     0.065     2.138     2.287
    63   1 H        0.926     0.019     2.748     2.592
    64   1 H        0.926     0.037     2.484     2.465
    65   1 H        0.926     0.039     2.460     2.453
    66   1 H        0.926     0.038     2.472     2.458
    67   1 H        0.926     0.024     2.680     2.560
    68   1 H        0.926     0.028     2.609     2.526
    69   1 H        0.926     0.034     2.528     2.486
    70   1 H        0.926     0.034     2.526     2.485
    71   1 H        0.926     0.034     2.525     2.485
    72   1 H        0.926     0.027     2.630     2.536
    73   1 H        0.926     0.033     2.540     2.492
    74   1 H        0.926     0.034     2.534     2.489
    75   1 H        0.926     0.033     2.542     2.493
    76   1 H        0.926     0.030     2.581     2.512
    77   1 H        0.926     0.035     2.523     2.484
    78   1 H        0.926     0.035     2.521     2.483
    79   1 H        0.926     0.036     2.508     2.476
    80   1 H        0.926     0.062     2.174     2.306
    81   1 H        0.926     0.018     2.769     2.602
    82   1 H        0.926     0.035     2.519     2.482
    83   1 H        0.926     0.043     2.404     2.424
    84   1 H        0.926     0.044     2.393     2.419
    85   1 H        0.926     0.044     2.398     2.422
    86   1 H        0.926     0.029     2.603     2.523
    87   1 H        0.926     0.033     2.538     2.491
    88   1 H        0.926     0.035     2.519     2.482
    89   1 H        0.926     0.035     2.512     2.478
    90   1 H        0.926     0.032     2.554     2.499
    91   1 H        0.926     0.024     2.674     2.557
    92   1 H        0.926     0.022     2.700     2.570
    93   1 H        0.926     0.031     2.575     2.509
    94   1 H        0.926     0.037     2.494     2.470
    95   1 H        0.926     0.036     2.501     2.473
    96   1 H        0.926     0.042     2.421     2.433
    97   1 H        0.926     0.043     2.404     2.424
    98   1 H        0.926     0.044     2.396     2.421
    99   1 H        0.926     0.044     2.392     2.418

molecular dipole:
                 x           y           z       tot (Debye)
 q only:       -0.718       0.852       0.181
   full:       -0.525       1.022       0.337       3.043

 projected vibrational frequencies (cm⁻¹)
eigval :       -0.00    -0.00    -0.00     0.00     0.00     0.00
eigval :       13.03    14.55    17.88    20.12    32.68    42.10
eigval :       43.98    45.71    51.66    54.83    58.36    60.02
eigval :       62.23    66.33    73.81    74.31    79.56    81.86
eigval :       87.33    88.43    90.60   133.17   144.11   147.17
eigval :      159.97   169.02   173.69   180.63   194.02   199.35
eigval :      222.30   231.24   236.30   238.53   245.68   250.39
eigval :      258.47   262.03   270.10   276.89   283.64   299.15
eigval :      307.97   314.58   325.95   329.77   364.19   372.09
eigval :      373.26   375.52   376.42   378.95   397.10   402.50
eigval :      413.72   439.36   446.97   451.73   456.00   463.18
eigval :      469.81   474.00   482.46   496.18   507.05   512.99
eigval :      514.69   517.41   519.60   551.67   560.22   582.36
eigval :      587.95   588.26   588.45   588.77   593.21   603.87
eigval :      604.81   607.01   609.57   610.06   612.64   628.23
eigval :      639.00   643.83   672.21   673.60   673.79   675.39
eigval :      684.37   690.83   691.79   697.77   705.16   713.95
eigval :      718.20   753.12   753.91   755.43   756.69   765.30
eigval :      778.03   779.41   780.64   785.80   817.02   842.03
eigval :      876.68   877.18   878.32   878.88   879.14   881.26
eigval :      881.32   887.79   892.30   893.95   900.50   902.37
eigval :      903.67   904.33   904.72   907.01   913.30   914.08
eigval :      917.22   918.96   920.04   921.75   922.93   924.40
eigval :      925.28   929.63   930.33   930.74   931.66   932.55
eigval :      933.58   933.75   935.57   936.47   936.65   942.15
eigval :      985.33   986.11   990.63  1000.43  1002.33  1013.01
eigval :     1029.03  1048.55  1064.31  1086.16  1087.19  1089.44
eigval :     1090.28  1090.68  1092.67  1099.40  1100.50  1111.31
eigval :     1116.44  1124.29  1125.65  1127.33  1129.39  1131.02
eigval :     1138.09  1171.22  1175.12  1177.23  1177.49  1179.30
eigval :     1179.75  1179.78  1180.58  1181.79  1182.05  1186.45
eigval :     1198.11  1202.70  1202.81  1205.00  1208.27  1210.50
eigval :     1212.76  1217.99  1230.29  1238.62  1251.45  1252.91
eigval :     1256.62  1259.71  1260.48  1274.55  1285.86  1286.40
eigval :     1287.54  1289.91  1290.15  1297.73  1310.48  1315.46
eigval :     1316.03  1317.74  1317.96  1321.50  1322.93  1327.66
eigval :     1328.53  1363.74  1390.55  1407.13  1427.51  1429.67
eigval :     1430.83  1431.65  1432.65  1436.65  1437.73  1439.20
eigval :     1443.71  1451.67  1452.00  1459.15  1460.73  1471.77
eigval :     1472.79  1473.47  1473.93  1476.82  1482.29  1523.41
eigval :     1555.10  1572.60  1576.34  1582.75  1583.79  1584.78
eigval :     1585.64  1586.20  1587.82  1588.12  1588.68  1596.08
eigval :     1597.36  1599.19  1599.26  1601.50  1602.53  3016.77
eigval :     3030.18  3063.63  3067.86  3069.02  3069.31  3069.90
eigval :     3071.46  3071.59  3072.73  3073.85  3074.78  3077.74
eigval :     3078.02  3078.32  3079.43  3079.50  3080.02  3081.56
eigval :     3083.91  3084.03  3084.13  3086.02  3086.20  3086.73
eigval :     3088.45  3088.86  3090.95  3091.35  3091.98  3092.57
eigval :     3093.31  3094.85  3095.27  3096.01  3099.16  3099.47
eigval :     3106.82  3115.50  3127.07

   temp. (K)  partition function   enthalpy   heat capacity  entropy
                                   cal/mol     cal/K/mol   cal/K/mol   J/K/mol
 298.15  VIB  0.276E+22            28103.701    178.073    175.772
         ROT  0.850E+08              888.752      2.981     39.265
         INT  0.235E+30            28992.454    181.054    215.037
         TR   0.201E+29             1481.254      4.968     45.731
         TOT                       30473.7076   186.0225   260.7679  1091.0530

       T/K    H(0)-H(T)+PV         H(T)/Eh          T*S/Eh         G(T)/Eh
   ------------------------------------------------------------------------
    298.15    0.485629E-01    0.820993E+00    0.123899E+00    0.697094E+00
   ------------------------------------------------------------------------

         :::::::::::::::::::::::::::::::::::::::::::::::::::::
         ::                  THERMODYNAMIC                  ::
         :::::::::::::::::::::::::::::::::::::::::::::::::::::
         :: total free energy        -149.287833362842 Eh   ::
         ::.................................................::
         :: total energy             -149.984927183107 Eh   ::
         :: zero point energy           0.772430132160 Eh   ::
         :: G(RRHO) w/o ZPVE           -0.075336311896 Eh   ::
         :: G(RRHO) contrib.            0.697093820264 Eh   ::
         :::::::::::::::::::::::::::::::::::::::::::::::::::::

           -------------------------------------------------
          | TOTAL ENERGY             -149.984927183107 Eh   |
          | TOTAL ENTHALPY           -149.163934106725 Eh   |
          | TOTAL FREE ENERGY        -149.287833362842 Eh   |
          | GRADIENT NORM               0.000045551009 Eh/α |
          | HOMO-LUMO GAP               2.989859639549 eV   |
           -------------------------------------------------

 * finished run on 2025/09/12 at 09:33:19.836
