   * xtb version 6.7.1 (edcfbbe) compiled by 'albert@albert-system' on 2024-07-22

   ID    Z sym.   atoms
    1    6 C      1, 2, 4, 6-32, 34-58
    2    7 N      3, 5, 33, 59
    3    1 H      60-99

          program call               : xtb data2507/toluene/1MPA/1MPA.xyz --gfn 2 --gbsa toluene --ohess vtight --parallel 40 --molden --ceasefiles --namespace data2507/toluene/1MPA/1MPA_toluene_S0_preOpt
      * Solvation model:               GBSA
        Solvent                        toluene
        Solvent mass                       9.2140E+01 g/mol
          :  Hamiltonian                  GFN2-xTB          :
 * total energy  :  -149.9199523 Eh     change       -0.6393464E-08 Eh
 * total energy  :  -149.9462752 Eh     change       -0.2632281E-01 Eh
 * total energy  :  -149.9585724 Eh     change       -0.1229728E-01 Eh
 * total energy  :  -149.9621007 Eh     change       -0.3528227E-02 Eh
 * total energy  :  -149.9631758 Eh     change       -0.1075175E-02 Eh
 * total energy  :  -149.9635654 Eh     change       -0.3896011E-03 Eh
 * total energy  :  -149.9637858 Eh     change       -0.2203859E-03 Eh
 * total energy  :  -149.9640020 Eh     change       -0.2161763E-03 Eh
 * total energy  :  -149.9642061 Eh     change       -0.2040818E-03 Eh
 * total energy  :  -149.9644008 Eh     change       -0.1947094E-03 Eh
 * total energy  :  -149.9851509 Eh     change       -0.6456430E-06 Eh
 * total energy  :  -149.9851514 Eh     change       -0.4742055E-06 Eh
 * total energy  :  -149.9851518 Eh     change       -0.4108338E-06 Eh
 * total energy  :  -149.9851523 Eh     change       -0.4662909E-06 Eh
 * total energy  :  -149.9851527 Eh     change       -0.4748489E-06 Eh
 * total energy  :  -149.9851532 Eh     change       -0.4636545E-06 Eh
 * total energy  :  -149.9851536 Eh     change       -0.4547873E-06 Eh
 * total energy  :  -149.9851540 Eh     change       -0.3734307E-06 Eh
 * total energy  :  -149.9851540 Eh     change       -0.1797162E-08 Eh
   *** GEOMETRY OPTIMIZATION CONVERGED AFTER 300 ITERATIONS ***

 final structure:
================
99
 xtb: 6.7.1 (edcfbbe)
C           -0.49160202278957       -2.77908754426336       -4.33986209399875
C           -0.29182853227263       -2.36827921037223       -2.91510993235099
N            0.94390433536008       -2.06032726583331       -2.54786041348796
C            1.12717676840080       -1.68079442888984       -1.28177537707430
N            2.39964203041407       -1.36989873430884       -0.83345276447195
C            2.74933407851344       -1.66030853115474        0.49387025222604
C            2.29092019939634       -2.82620347828614        1.10544411664655
C            2.66876273786003       -3.13289234741511        2.39731973491677
C            3.52373625273088       -2.28865485000353        3.08736072480901
C            4.00724095349554       -1.14793525341925        2.47238486003525
C            3.63510900059380       -0.82458582802604        1.17457571448676
C            4.10734430685621        0.43329000098996        0.47285802018444
C            3.02633767094703        1.50971900395084        0.56281728169466
C            2.04458043667920        1.47255043981650        1.54538809833969
C            1.09348755543700        2.47526672099649        1.63288660782491
C            1.11052817952140        3.53425490626713        0.74245508794405
C            2.08585285523949        3.58059883862841       -0.24038215675420
C            3.03300373821054        2.57642775165544       -0.33032575631423
C            5.41370828893711        0.90383120330642        1.09389764078683
C            6.51465642471891        0.05170997272349        1.03589565036308
C            7.72391092321050        0.41947671111262        1.59373681593564
C            7.85379145188107        1.64768195232839        2.22301879706868
C            6.76446977226806        2.49714266780950        2.29095613570694
C            5.55086102807899        2.12797209062009        1.73182730589919
C            4.30871949687245        0.08517498747069       -0.99497547274701
C            5.32329880620274        0.65719055024596       -1.74909843843376
C            5.45022618634128        0.38435257427657       -3.09971186802473
C            4.55237917831410       -0.47245528931412       -3.71149264480108
C            3.54081454699998       -1.06126517950536       -2.97629478245512
C            3.40572660075556       -0.78217851646460       -1.62017139670511
C            0.05646274346156       -1.56825232802466       -0.39854859811394
C           -1.19751387249532       -1.95104949721898       -0.87231790886423
N           -2.32547281854386       -1.87695382172807       -0.10385841283741
C           -2.33587136364777       -1.29706446649609        1.18152292011226
C           -1.54110929531699       -1.79106484371261        2.20780175574059
C           -1.58737918758366       -1.20053872287553        3.45813411010507
C           -2.43819631641565       -0.13244436217999        3.68711954627430
C           -3.25897843208825        0.33545937096704        2.67396200626563
C           -3.22577687275774       -0.24611945806879        1.41612844811118
C           -4.08724334073164        0.19599515561850        0.24614016904325
C           -5.23888884971763        1.05639696280490        0.72711354345171
C           -5.37322353663097        2.39085631661308        0.37186229593564
C           -6.43694182646638        3.14101601938569        0.84795963911395
C           -7.37599853949267        2.56961160856745        1.68785520242122
C           -7.24348631961790        1.24042483663373        2.05734735613078
C           -6.18271734493686        0.49212494709972        1.58283813180814
C           -3.22828178674006        0.89930956447036       -0.80534811044383
C           -1.94807350099290        1.35965619198871       -0.53085909850987
C           -1.17318327052872        1.92652208652495       -1.52920178210996
C           -1.67098285484415        2.05353292944931       -2.81313542256611
C           -2.95812763511385        1.62308381611234       -3.09036101790348
C           -3.72756408513859        1.04926381651771       -2.09603024026196
C           -4.57174802698017       -1.08112369651226       -0.43111657109655
C           -5.85546173495607       -1.27052874561039       -0.91729441342428
C           -6.18156488260891       -2.42902772216844       -1.60305675982698
C           -5.22419044003447       -3.40640333316531       -1.81411281697984
C           -3.93890761518925       -3.23400230548942       -1.33235559713698
C           -3.61297002470317       -2.07072634124711       -0.65182679135579
N           -1.35567791218364       -2.36434928177190       -2.13764374298451
H            0.12024731036437       -3.65097629326084       -4.56277361850210
H           -0.17739472405261       -1.97176068955020       -4.99817323328408
H           -1.53930176267226       -3.00709377649215       -4.50885770054684
H            1.63963420852777       -3.49087372360024        0.55557838330512
H            2.30197396601229       -4.03642719706265        2.86132946098586
H            3.81639932364045       -2.51971862748056        4.10015870787057
H            4.67316784115959       -0.49092854312716        3.01130233258113
H            2.02165387958014        0.65979584455694        2.25674089391344
H            0.33959862120999        2.42913134872538        2.40565893750975
H            0.36859624982387        4.31618934407170        0.81178696105026
H            2.10966002999686        4.40229572944729       -0.94185989609612
H            3.78971901169646        2.62512513891232       -1.09924482838877
H            6.41574535285323       -0.90726656915011        0.54663345133071
H            8.56707788803338       -0.25364648328035        1.53781944193268
H            8.79843411567951        1.93771558533236        2.65907736337975
H            6.85410784858486        3.45532449548650        2.78223350073073
H            4.70981303548875        2.80183425515869        1.79782406787693
H            6.01999976005656        1.33288707188576       -1.27475731069721
H            6.24473634024588        0.84366654305869       -3.66858925593779
H            4.64242861037722       -0.69443481191550       -4.76452649881481
H            2.83787593869630       -1.73114405221198       -3.44065509725393
H            0.20190297196844       -1.17318059370282        0.59161027555041
H           -0.89699958550576       -2.63838281013159        2.02562055454123
H           -0.96080464342814       -1.57981329433499        4.25135922627205
H           -2.46905866668308        0.33594290706345        4.65923640053295
H           -3.92312401570661        1.16518344543391        2.86221266573634
H           -4.64483824499398        2.85234989163364       -0.27826782489164
H           -6.52812962560787        4.17820214555803        0.55939586331728
H           -8.20455765788800        3.15630982478118        2.05661992001652
H           -7.96779115314299        0.78571445981711        2.71754473738806
H           -6.07839324987610       -0.54268169136390        1.87754246146366
H           -1.53864520186882        1.27461472293577        0.46527289660025
H           -0.17315306996280        2.26215894965632       -1.29631975257257
H           -1.06046822224729        2.48713492878722       -3.59162831173080
H           -3.36171791665492        1.72608662989676       -4.08706986894867
H           -4.72621203419498        0.70706231955302       -2.32400623306133
H           -6.60360018983963       -0.50563419960829       -0.77109417567661
H           -7.18471558127995       -2.56179077933356       -1.97960240795153
H           -5.47823639384260       -4.30861301650291       -2.34998349435804
H           -3.18265567067280       -3.98573704152644       -1.49004758202496

          :  Hamiltonian                  GFN2-xTB          :
         :: gradient norm              0.000033017616 Eh/a0 ::
         :: HOMO-LUMO gap              3.024926136653 eV    ::
         :: SCC energy              -152.762462901798 Eh    ::
         :: -> dispersion             -0.163119497231 Eh    ::
         :: -> Gsolv                  -0.055918484800 Eh    ::
         :: repulsion energy           2.777308880639 Eh    ::

    * Orbital Energies and Occupations

         #    Occupation            Energy/Eh            Energy/eV
      -------------------------------------------------------------
         1        2.0000           -0.6792590             -18.4836
       ...           ...                  ...                  ...
       128        2.0000           -0.4067655             -11.0687
       129        2.0000           -0.4065957             -11.0640
       130        2.0000           -0.4061095             -11.0508
       131        2.0000           -0.4056414             -11.0381
       132        2.0000           -0.4043568             -11.0031
       133        2.0000           -0.3972367             -10.8094
       134        2.0000           -0.3969928             -10.8027
       135        2.0000           -0.3966667             -10.7938
       136        2.0000           -0.3949250             -10.7465
       137        2.0000           -0.3940677             -10.7231
       138        2.0000           -0.3726668             -10.1408
       139        2.0000           -0.3647542              -9.9255
       140        2.0000           -0.3605942              -9.8123 (HOMO)
       141                         -0.2494302              -6.7873 (LUMO)
       142                         -0.2423578              -6.5949
       143                         -0.2375064              -6.4629
       144                         -0.2341836              -6.3725
       145                         -0.2317311              -6.3057
       146                         -0.2307692              -6.2796
       147                         -0.2303798              -6.2690
       148                         -0.2301271              -6.2621
       149                         -0.2277427              -6.1972
       150                         -0.2273605              -6.1868
       151                         -0.2264307              -6.1615
       ...                                ...                  ...
       276                          0.6699728              18.2309
      -------------------------------------------------------------
                  HL-Gap            0.1111640 Eh            3.0249 eV

     #   Z          covCN         q      C6AA      α(0)
     1   6 C        3.763    -0.124    22.928     6.825
     2   6 C        2.945     0.201    23.741     7.991
     3   7 N        1.844    -0.331    29.440     8.041
     4   6 C        2.918     0.180    24.154     8.059
     5   7 N        2.757    -0.090    22.990     7.121
     6   6 C        2.942     0.060    26.645     8.466
     7   6 C        2.922    -0.049    29.222     8.865
     8   6 C        2.919    -0.033    28.831     8.805
     9   6 C        2.918    -0.039    28.977     8.827
    10   6 C        2.922    -0.036    28.891     8.815
    11   6 C        2.988    -0.005    28.135     8.701
    12   6 C        3.922     0.010    20.342     6.410
    13   6 C        2.978     0.012    27.736     8.639
    14   6 C        2.923    -0.037    28.923     8.819
    15   6 C        2.919    -0.031    28.762     8.795
    16   6 C        2.919    -0.031    28.784     8.798
    17   6 C        2.919    -0.031    28.771     8.796
    18   6 C        2.924    -0.036    28.906     8.817
    19   6 C        2.977     0.013    27.727     8.637
    20   6 C        2.925    -0.032    28.795     8.800
    21   6 C        2.919    -0.031    28.763     8.795
    22   6 C        2.919    -0.032    28.809     8.802
    23   6 C        2.920    -0.031    28.771     8.796
    24   6 C        2.922    -0.037    28.909     8.817
    25   6 C        2.988    -0.009    28.227     8.715
    26   6 C        2.923    -0.038    28.941     8.822
    27   6 C        2.917    -0.041    29.010     8.832
    28   6 C        2.920    -0.034    28.845     8.807
    29   6 C        2.920    -0.057    29.405     8.892
    30   6 C        2.931     0.064    26.568     8.453
    31   6 C        2.916    -0.102    30.584     9.069
    32   6 C        2.916     0.180    24.147     8.058
    33   7 N        2.760    -0.087    22.931     7.112
    34   6 C        2.945     0.058    26.690     8.473
    35   6 C        2.920    -0.046    29.154     8.854
    36   6 C        2.920    -0.033    28.814     8.803
    37   6 C        2.919    -0.035    28.881     8.813
    38   6 C        2.921    -0.035    28.880     8.813
    39   6 C        2.989    -0.002    28.056     8.689
    40   6 C        3.924     0.011    20.326     6.407
    41   6 C        2.975     0.012    27.746     8.640
    42   6 C        2.922    -0.036    28.886     8.814
    43   6 C        2.920    -0.030    28.759     8.794
    44   6 C        2.919    -0.032    28.799     8.800
    45   6 C        2.919    -0.031    28.767     8.795
    46   6 C        2.925    -0.033    28.816     8.803
    47   6 C        2.983     0.014    27.699     8.633
    48   6 C        2.923    -0.037    28.925     8.820
    49   6 C        2.920    -0.033    28.825     8.804
    50   6 C        2.920    -0.033    28.822     8.804
    51   6 C        2.919    -0.031    28.767     8.795
    52   6 C        2.925    -0.035    28.876     8.812
    53   6 C        2.996    -0.004    28.115     8.698
    54   6 C        2.921    -0.037    28.919     8.819
    55   6 C        2.919    -0.037    28.909     8.817
    56   6 C        2.921    -0.033    28.812     8.802
    57   6 C        2.920    -0.039    28.976     8.827
    58   6 C        2.947     0.068    26.478     8.440
    59   7 N        1.850    -0.330    29.410     8.038
    60   1 H        0.925     0.064     2.148     2.292
    61   1 H        0.925     0.063     2.167     2.302
    62   1 H        0.925     0.062     2.174     2.306
    63   1 H        0.926     0.020     2.726     2.582
    64   1 H        0.926     0.038     2.472     2.459
    65   1 H        0.926     0.040     2.448     2.447
    66   1 H        0.926     0.039     2.458     2.452
    67   1 H        0.926     0.025     2.651     2.546
    68   1 H        0.926     0.030     2.592     2.518
    69   1 H        0.926     0.034     2.527     2.486
    70   1 H        0.926     0.034     2.537     2.491
    71   1 H        0.926     0.034     2.531     2.488
    72   1 H        0.926     0.027     2.626     2.534
    73   1 H        0.926     0.033     2.538     2.491
    74   1 H        0.926     0.034     2.533     2.489
    75   1 H        0.926     0.033     2.543     2.494
    76   1 H        0.926     0.030     2.582     2.513
    77   1 H        0.926     0.035     2.516     2.480
    78   1 H        0.926     0.035     2.512     2.479
    79   1 H        0.926     0.037     2.491     2.468
    80   1 H        0.926     0.065     2.144     2.290
    81   1 H        0.926     0.018     2.758     2.597
    82   1 H        0.926     0.034     2.533     2.489
    83   1 H        0.926     0.042     2.416     2.431
    84   1 H        0.926     0.044     2.400     2.422
    85   1 H        0.926     0.043     2.411     2.428
    86   1 H        0.926     0.030     2.587     2.515
    87   1 H        0.926     0.033     2.540     2.492
    88   1 H        0.926     0.034     2.526     2.486
    89   1 H        0.926     0.035     2.521     2.483
    90   1 H        0.926     0.031     2.572     2.508
    91   1 H        0.926     0.022     2.703     2.571
    92   1 H        0.926     0.026     2.651     2.546
    93   1 H        0.926     0.032     2.558     2.501
    94   1 H        0.926     0.037     2.495     2.470
    95   1 H        0.926     0.037     2.494     2.470
    96   1 H        0.926     0.041     2.433     2.439
    97   1 H        0.926     0.042     2.421     2.433
    98   1 H        0.926     0.042     2.416     2.431
    99   1 H        0.926     0.045     2.384     2.414

molecular dipole:
                 x           y           z       tot (Debye)
 q only:       -0.582       0.411       0.658
   full:       -0.433       0.465       0.898       2.796

 projected vibrational frequencies (cm⁻¹)
eigval :       -0.00    -0.00     0.00     0.00     0.00     0.00
eigval :        7.50    15.30    18.64    23.54    27.45    32.08
eigval :       42.98    45.89    50.50    55.51    58.31    60.01
eigval :       63.54    71.11    72.94    74.93    80.49    82.46
eigval :       88.19    90.95    94.62   129.47   146.33   149.15
eigval :      163.84   169.25   171.61   179.88   191.74   203.87
eigval :      221.74   227.18   235.59   238.64   246.06   250.30
eigval :      257.55   262.03   271.47   275.61   282.95   298.43
eigval :      307.77   314.65   328.54   330.31   365.43   370.99
eigval :      371.88   373.79   376.05   380.17   396.90   401.76
eigval :      416.74   439.00   444.37   448.81   455.89   462.74
eigval :      470.27   475.63   483.33   496.39   503.73   515.39
eigval :      516.12   518.11   519.63   554.98   560.05   585.80
eigval :      587.54   587.94   588.56   588.81   593.21   603.47
eigval :      605.27   607.47   609.76   610.41   612.26   629.37
eigval :      634.98   643.65   671.63   671.99   673.54   674.40
eigval :      684.10   691.57   692.14   697.10   707.68   713.67
eigval :      716.22   754.14   754.66   756.58   757.26   764.76
eigval :      778.38   781.01   783.14   784.90   822.59   841.86
eigval :      877.88   878.90   879.39   879.89   880.67   881.73
eigval :      883.20   884.46   891.72   893.88   900.36   900.74
eigval :      904.49   904.68   905.65   907.02   914.73   915.88
eigval :      917.13   917.32   919.90   920.51   926.51   926.96
eigval :      927.23   928.53   928.89   932.53   932.85   932.99
eigval :      933.71   935.25   936.29   937.00   937.60   941.62
eigval :      985.48   985.97   992.34  1000.24  1001.83  1015.20
eigval :     1029.41  1049.54  1064.52  1086.23  1087.16  1089.27
eigval :     1090.52  1091.67  1093.17  1099.35  1100.67  1112.29
eigval :     1115.76  1122.85  1125.47  1126.73  1129.72  1133.04
eigval :     1138.08  1171.94  1176.28  1177.99  1178.66  1178.76
eigval :     1179.06  1180.14  1180.53  1181.63  1182.70  1187.29
eigval :     1198.02  1201.09  1203.99  1205.34  1208.27  1210.29
eigval :     1214.49  1217.97  1229.20  1237.79  1250.92  1252.78
eigval :     1256.40  1258.03  1259.33  1274.44  1286.09  1287.88
eigval :     1288.02  1289.79  1292.27  1296.53  1308.15  1315.33
eigval :     1315.87  1317.13  1318.74  1321.01  1322.69  1327.75
eigval :     1328.23  1364.99  1391.04  1409.46  1428.38  1429.18
eigval :     1430.18  1431.88  1432.57  1436.11  1437.69  1438.93
eigval :     1443.53  1452.74  1453.50  1458.92  1459.61  1472.03
eigval :     1472.90  1473.18  1474.06  1476.89  1482.59  1522.22
eigval :     1553.62  1573.24  1575.73  1582.82  1583.66  1584.54
eigval :     1585.29  1586.26  1587.67  1587.92  1588.43  1595.88
eigval :     1596.65  1598.83  1599.31  1601.37  1602.21  3017.71
eigval :     3028.02  3063.37  3067.76  3067.90  3069.85  3070.19
eigval :     3071.34  3071.39  3072.21  3072.80  3075.71  3077.01
eigval :     3077.59  3077.78  3079.31  3079.88  3081.37  3081.50
eigval :     3081.96  3082.82  3085.01  3085.11  3085.71  3086.92
eigval :     3087.79  3088.47  3088.97  3092.14  3092.23  3092.75
eigval :     3093.27  3094.44  3094.54  3094.84  3099.34  3100.83
eigval :     3109.64  3119.00  3134.64

   temp. (K)  partition function   enthalpy   heat capacity  entropy
                                   cal/mol     cal/K/mol   cal/K/mol   J/K/mol
 298.15  VIB  0.496E+22            28104.578    177.845    175.946
         ROT  0.905E+08              888.752      2.981     39.389
         INT  0.449E+30            28993.331    180.826    215.335
         TR   0.201E+29             1481.254      4.968     45.731
         TOT                       30474.5845   185.7945   261.0659  1092.2999

       T/K    H(0)-H(T)+PV         H(T)/Eh          T*S/Eh         G(T)/Eh
   ------------------------------------------------------------------------
    298.15    0.485643E-01    0.821076E+00    0.124041E+00    0.697035E+00
   ------------------------------------------------------------------------

         :::::::::::::::::::::::::::::::::::::::::::::::::::::
         ::                  THERMODYNAMIC                  ::
         :::::::::::::::::::::::::::::::::::::::::::::::::::::
         :: total free energy        -149.288118899593 Eh   ::
         ::.................................................::
         :: total energy             -149.985154024459 Eh   ::
         :: zero point energy           0.772511634618 Eh   ::
         :: G(RRHO) w/o ZPVE           -0.075476509752 Eh   ::
         :: G(RRHO) contrib.            0.697035124865 Eh   ::
         :::::::::::::::::::::::::::::::::::::::::::::::::::::

           -------------------------------------------------
          | TOTAL ENERGY             -149.985154024459 Eh   |
          | TOTAL ENTHALPY           -149.164078048227 Eh   |
          | TOTAL FREE ENERGY        -149.288118899593 Eh   |
          | GRADIENT NORM               0.000033019869 Eh/α |
          | HOMO-LUMO GAP               3.024925918848 eV   |
           -------------------------------------------------

 * finished run on 2025/09/12 at 09:28:08.858
