   * xtb version 6.7.1 (edcfbbe) compiled by 'albert@albert-system' on 2024-07-22

   ID    Z sym.   atoms
    1    6 C      1-20, 22-30, 32-54, 56-59, 63-70
    2    7 N      21, 31, 55
    3   16 S      60
    4    8 O      61, 62
    5    1 H      71-133

          program call               : xtb data2507/toluene/t3Cz-SO/t3Cz-SO_toluene_S0_crest.xyz --gfn 2 --gbsa toluene --ohess vtight --parallel 40 --molden --ceasefiles --namespace data2507/toluene/t3Cz-SO/t3Cz-SO_toluene_S0_finalOpt
      * Solvation model:               GBSA
        Solvent                        toluene
        Solvent mass                       9.2140E+01 g/mol
          :  Hamiltonian                  GFN2-xTB          :
 * total energy  :  -189.5662669 Eh     change       -0.1244842E-08 Eh
 * total energy  :  -189.5664207 Eh     change       -0.1537705E-03 Eh
 * total energy  :  -189.5665057 Eh     change       -0.8493657E-04 Eh
 * total energy  :  -189.5665166 Eh     change       -0.1091377E-04 Eh
 * total energy  :  -189.5665035 Eh     change        0.1302222E-04 Eh
 * total energy  :  -189.5665235 Eh     change       -0.1997063E-04 Eh
 * total energy  :  -189.5665299 Eh     change       -0.6420345E-05 Eh
 * total energy  :  -189.5665320 Eh     change       -0.2104850E-05 Eh
 * total energy  :  -189.5665373 Eh     change       -0.5296579E-05 Eh
 * total energy  :  -189.5665433 Eh     change       -0.6009088E-05 Eh
 * total energy  :  -189.5666702 Eh     change       -0.1548675E-05 Eh
 * total energy  :  -189.5666719 Eh     change       -0.1682508E-05 Eh
 * total energy  :  -189.5666735 Eh     change       -0.1591463E-05 Eh
 * total energy  :  -189.5666749 Eh     change       -0.1431231E-05 Eh
 * total energy  :  -189.5666764 Eh     change       -0.1476913E-05 Eh
 * total energy  :  -189.5666781 Eh     change       -0.1753608E-05 Eh
 * total energy  :  -189.5666801 Eh     change       -0.1934371E-05 Eh
 * total energy  :  -189.5666819 Eh     change       -0.1831135E-05 Eh
 * total energy  :  -189.5666819 Eh     change       -0.4088815E-07 Eh
   *** GEOMETRY OPTIMIZATION CONVERGED AFTER 68 ITERATIONS ***

 final structure:
================
133
 xtb: 6.7.1 (edcfbbe)
C           -0.10318078152133       -9.12526434798877        1.89592684691443
C            0.38914130462614       -7.78105831442193        2.44139794640871
C            1.90827931070013       -7.70947424165292        2.22445251809609
C            0.07592588363605       -7.73402553983756        3.94458918923108
C           -0.27199781112297       -6.59306576690004        1.75490087473619
C            0.09577291437058       -5.29697405913146        2.14292874712737
C           -0.44317304981517       -4.16131809028947        1.57383368698706
C           -1.38563977121909       -4.32005915683005        0.56911218375650
C           -1.79216633846368       -5.61277507128698        0.17594026948264
C           -1.23177469764772       -6.73861485445455        0.76674159844286
C           -2.79630250318046       -5.43262141651013       -0.83625595176710
C           -3.54330787123396       -6.32133441393462       -1.59961721569654
C           -4.44225571892755       -5.83876843246350       -2.53659489777443
C           -5.29926901851470       -6.75298787880893       -3.40215942394606
C           -6.78216013265801       -6.45314464348787       -3.13583948339402
C           -5.05595131551601       -8.23722024036661       -3.11129595495708
C           -4.97541323974781       -6.49964710504223       -4.88224144356993
C           -4.55869944950109       -4.45080083713164       -2.69693926127531
C           -3.83028562056269       -3.54492848348475       -1.95334267430126
C           -2.95184466891299       -4.03973177146403       -1.00117922413435
N           -2.09495616601209       -3.37532478449588       -0.14621233306300
C           -1.96274806830701       -1.98420496097298       -0.02104617916037
C           -3.10544779067238       -1.19392909062129        0.15747505219143
C           -3.02108787381593        0.17715526808244        0.29144745574538
C           -1.76140263818882        0.75985042491156        0.27348812722406
C           -0.60397690239462       -0.02645269872641        0.07433642697873
C           -0.70465898776243       -1.40116135867186       -0.07748680888904
C            0.50947184320152        0.88116752224191        0.05664587960399
C            1.87716502879158        0.69503836044532       -0.07914549107699
C            2.70744244711405        1.80440830554817       -0.00596078458771
N            4.09725944469956        1.64888810412940       -0.12031260459744
C            4.93087533468131        2.37059574567156       -0.95162679577808
C            4.63528433834095        3.35116895993670       -1.88663232333374
C            5.67786898615887        3.89383291685253       -2.60977507456553
C            7.01109522949891        3.49230453810958       -2.44537081834028
C            8.08993823523593        4.16089277034182       -3.28701925018708
C            9.49096106428439        3.61884747600594       -2.98679629860971
C            7.79495808547242        3.91768042338670       -4.77474010101678
C            8.09238802956740        5.66945947925789       -2.99704316428088
C            7.29088991866252        2.49513950969501       -1.52554328031457
C            6.26115216066545        1.93108622365949       -0.78279456033195
C            6.22340079823408        0.89207475545168        0.20905164607141
C            7.20739453963879        0.10582560004021        0.79566761544003
C            6.86161727486406       -0.82305136756822        1.76325779912169
C            7.88591446875515       -1.72012320147107        2.44553656331409
C            7.52670991390119       -3.18970167855638        2.17945227574652
C            7.87033698948394       -1.44624292377067        3.95704270885904
C            9.31050391760494       -1.48049332817588        1.93575629414029
C            5.51366123026984       -0.93069037507734        2.13350322497227
C            4.51581740005526       -0.16230883550590        1.56926989177397
C            4.87120213914363        0.74874476333315        0.58596785797249
C            2.17092253166715        3.08147573574416        0.20400599941417
C            0.81058947454915        3.28323797835751        0.32059234373687
C           -0.02455028760027        2.17771803219475        0.23378038021785
N           -1.39948083703361        2.09237239402622        0.36439954355950
C           -2.27390759376731        3.16368771026998        0.55942965712169
C           -3.23792123670603        3.10504278647866        1.56852771135421
C           -4.10823131129308        4.16171866858108        1.75416471614261
C           -4.00938778772895        5.27627599570696        0.94097078724617
S           -5.16888958074871        6.62420131759700        1.18643806127622
O           -5.18431645639511        6.97458517888010        2.59151684659671
O           -4.84645195061295        7.68304156563385        0.25272957464453
C           -6.75982718018069        5.91638277167008        0.74812880773657
C           -6.99174141067552        5.58723778050389       -0.57418123446243
C           -8.20381925235560        5.01414432718130       -0.92223357107735
C           -9.16144527740026        4.77689898640821        0.05293283999843
C           -8.91578665160824        5.11120113373280        1.37567335226314
C           -7.70426767963977        5.68462541566456        1.72865098636997
C           -3.05879807232712        5.35119046088333       -0.05926223089984
C           -2.18894405215639        4.29451287849843       -0.25411560525234
H            0.10946504794125       -9.21744848867675        0.83308172207360
H            0.40849280345770       -9.93525929256314        2.41250390419053
H           -1.17187872181521       -9.24643593329958        2.05845411747573
H            2.13679849586930       -7.72190086281608        1.16027920591873
H            2.32958577323210       -6.80365804450489        2.65178569500624
H            2.39445553864966       -8.56354539577110        2.69194519970440
H            0.52702286390726       -8.58658294249567        4.44859974375452
H           -1.00005370267387       -7.76728655241234        4.10558982787339
H            0.46004170914783       -6.82627872972436        4.40203242522720
H            0.83060010924640       -5.16749170365870        2.92319632007992
H           -0.14158659326357       -3.18116134339918        1.91251944359639
H           -1.56371051834554       -7.71044227756284        0.44114688549451
H           -3.40060096750855       -7.37804497093164       -1.44579323509848
H           -7.41121705118158       -7.11113473038593       -3.73222204003976
H           -7.01468488413761       -6.61238639844844       -2.08444495704258
H           -7.03063749404206       -5.42571122371663       -3.38741733692016
H           -4.02291074778578       -8.51151529081599       -3.31351931998988
H           -5.29349894103492       -8.47743677592932       -2.07729253651302
H           -5.69515206916231       -8.84197137796603       -3.75193192447065
H           -5.19392974988355       -5.47424363822311       -5.16768280772192
H           -3.92066779569467       -6.68864795506797       -5.07367003005102
H           -5.56504241767318       -7.16134110370298       -5.51380942339302
H           -5.24291095734495       -4.05988680094838       -3.43486813729976
H           -3.93819198464491       -2.48377886019884       -2.12155494083187
H           -4.06963077989967       -1.67731143945707        0.19802355561615
H           -3.91442186525380        0.77079103079241        0.40556707786323
H            0.17157126215277       -2.00626707042671       -0.25044562536485
H            2.28997167966536       -0.28846968824808       -0.24050349152035
H            3.62027816336688        3.67861137929819       -2.05616767711830
H            5.44201167007152        4.65893473476798       -3.33406976210258
H            9.55518034694524        2.55579654647773       -3.20819921953125
H            9.75946045055507        3.78401410802891       -1.94568256596871
H           10.22014850480939        4.13572876255603       -3.60791319974040
H            8.56871219280677        4.37306218687047       -5.38982926580381
H            7.77157261234641        2.84963538502869       -4.98334765040422
H            6.83728179925719        4.34145566177487       -5.06451624132628
H            7.14170161014502        6.12601310143042       -3.25870063981674
H            8.27634801233728        5.84829445739405       -1.93918987252910
H            8.87518153744047        6.16077601587521       -3.57162672976746
H            8.29458027870153        2.13622703232367       -1.36938291626986
H            8.22939589976762        0.24217414476099        0.48341747854016
H            7.51943694261753       -3.38683234152833        1.10899214776695
H            8.25909752536321       -3.84539003147856        2.64634634359948
H            6.54633165786926       -3.43730968607621        2.57717245013091
H            8.10006640277690       -0.40013067531904        4.15133331612289
H            8.61484016187632       -2.06235987977597        4.45747989626744
H            6.89911018989949       -1.66709885637714        4.39131201630386
H            9.99773224459259       -2.14682555672508        2.45386993587181
H            9.38427455388508       -1.68453634104212        0.86982848442721
H            9.62749126227905       -0.45757587986169        2.12669060319840
H            5.23014288706199       -1.64063135010359        2.89586672597028
H            3.49204655517182       -0.26521206324061        1.89732062395338
H            2.84566332668353        3.91950214708952        0.29123347818889
H            0.41873163720245        4.27214054326464        0.50052879755149
H           -3.28570804803139        2.24064815862060        2.21220755721715
H           -4.85038673655294        4.14287220525659        2.53634261784455
H           -6.23055098601395        5.79411505889247       -1.31003401493211
H           -8.40075356765936        4.75469709878741       -1.95116692127362
H          -10.10566846402030        4.33056029699179       -0.22065150149427
H           -9.66440517742590        4.92849945382797        2.13134509411119
H           -7.47715354527087        5.96496686937988        2.74573420674394
H           -3.01810223927421        6.23875583642751       -0.67134026446741
H           -1.45517039327027        4.33173481967974       -1.04417667907304

          :  Hamiltonian                  GFN2-xTB          :
         :: gradient norm              0.000117649273 Eh/a0 ::
         :: HOMO-LUMO gap              2.147986898934 eV    ::
         :: SCC energy              -192.794298987092 Eh    ::
         :: -> dispersion             -0.174846152033 Eh    ::
         :: -> Gsolv                  -0.082507486446 Eh    ::
         :: repulsion energy           3.227617040843 Eh    ::

    * Orbital Energies and Occupations

         #    Occupation            Energy/Eh            Energy/eV
      -------------------------------------------------------------
         1        2.0000           -0.7771189             -21.1465
       ...           ...                  ...                  ...
       164        2.0000           -0.4102800             -11.1643
       165        2.0000           -0.4060349             -11.0488
       166        2.0000           -0.4059889             -11.0475
       167        2.0000           -0.4036686             -10.9844
       168        2.0000           -0.4035821             -10.9820
       169        2.0000           -0.3931145             -10.6972
       170        2.0000           -0.3930015             -10.6941
       171        2.0000           -0.3908887             -10.6366
       172        2.0000           -0.3793284             -10.3221
       173        2.0000           -0.3695448             -10.0558
       174        2.0000           -0.3694881             -10.0543
       175        2.0000           -0.3542160              -9.6387
       176        2.0000           -0.3498754              -9.5206 (HOMO)
       177                         -0.2709384              -7.3726 (LUMO)
       178                         -0.2576785              -7.0118
       179                         -0.2543381              -6.9209
       180                         -0.2523950              -6.8680
       181                         -0.2468502              -6.7171
       182                         -0.2404477              -6.5429
       183                         -0.2374536              -6.4614
       184                         -0.2326320              -6.3302
       185                         -0.2139066              -5.8207
       186                         -0.2138597              -5.8194
       187                         -0.2111329              -5.7452
       ...                                ...                  ...
       348                          1.1660823              31.7307
      -------------------------------------------------------------
                  HL-Gap            0.0789371 Eh            2.1480 eV

     #   Z          covCN         q      C6AA      α(0)
     1   6 C        3.761    -0.106    22.568     6.772
     2   6 C        3.902     0.024    20.107     6.374
     3   6 C        3.761    -0.104    22.534     6.767
     4   6 C        3.761    -0.104    22.534     6.767
     5   6 C        2.972    -0.004    28.128     8.699
     6   6 C        2.931    -0.041    29.026     8.835
     7   6 C        2.908    -0.055    29.378     8.888
     8   6 C        3.081     0.043    26.942     8.510
     9   6 C        3.067    -0.022    28.495     8.753
    10   6 C        2.918    -0.046    29.142     8.852
    11   6 C        3.067    -0.022    28.494     8.753
    12   6 C        2.918    -0.046    29.141     8.852
    13   6 C        2.972    -0.004    28.128     8.699
    14   6 C        3.902     0.024    20.107     6.374
    15   6 C        3.761    -0.104    22.539     6.768
    16   6 C        3.761    -0.106    22.568     6.772
    17   6 C        3.761    -0.104    22.537     6.767
    18   6 C        2.931    -0.042    29.032     8.836
    19   6 C        2.908    -0.056    29.389     8.889
    20   6 C        3.080     0.043    26.947     8.510
    21   7 N        2.802    -0.050    22.202     6.998
    22   6 C        2.912     0.057    26.730     8.478
    23   6 C        2.926    -0.045    29.129     8.851
    24   6 C        2.909    -0.050    29.236     8.866
    25   6 C        3.071     0.041    27.019     8.523
    26   6 C        3.066    -0.013    28.261     8.717
    27   6 C        2.915    -0.046    29.141     8.852
    28   6 C        3.067    -0.013    28.264     8.718
    29   6 C        2.915    -0.046    29.151     8.854
    30   6 C        2.912     0.057    26.729     8.478
    31   7 N        2.802    -0.050    22.210     6.999
    32   6 C        3.080     0.043    26.945     8.510
    33   6 C        2.908    -0.056    29.386     8.889
    34   6 C        2.931    -0.042    29.031     8.836
    35   6 C        2.972    -0.004    28.128     8.700
    36   6 C        3.902     0.024    20.107     6.374
    37   6 C        3.761    -0.106    22.569     6.772
    38   6 C        3.761    -0.104    22.536     6.767
    39   6 C        3.761    -0.104    22.535     6.767
    40   6 C        2.918    -0.046    29.142     8.852
    41   6 C        3.067    -0.022    28.496     8.753
    42   6 C        3.067    -0.022    28.495     8.753
    43   6 C        2.918    -0.046    29.142     8.852
    44   6 C        2.972    -0.004    28.127     8.699
    45   6 C        3.902     0.025    20.107     6.374
    46   6 C        3.761    -0.104    22.535     6.767
    47   6 C        3.761    -0.104    22.535     6.767
    48   6 C        3.761    -0.106    22.569     6.772
    49   6 C        2.931    -0.041    29.026     8.836
    50   6 C        2.908    -0.056    29.380     8.888
    51   6 C        3.080     0.043    26.943     8.510
    52   6 C        2.926    -0.045    29.118     8.849
    53   6 C        2.909    -0.049    29.225     8.865
    54   6 C        3.071     0.041    27.013     8.522
    55   7 N        2.801    -0.027    21.762     6.928
    56   6 C        2.912     0.072    26.396     8.425
    57   6 C        2.924    -0.037    28.929     8.820
    58   6 C        2.959    -0.025    28.628     8.776
    59   6 C        2.970    -0.076    29.899     8.969
    60  16 S        3.818     0.937   108.489    17.531
    61   8 O        0.860    -0.578    25.595     6.783
    62   8 O        0.860    -0.578    25.585     6.782
    63   6 C        2.972    -0.071    29.762     8.949
    64   6 C        2.961    -0.027    28.664     8.782
    65   6 C        2.921    -0.021    28.524     8.758
    66   6 C        2.920    -0.021    28.522     8.758
    67   6 C        2.921    -0.021    28.529     8.759
    68   6 C        2.953    -0.024    28.592     8.770
    69   6 C        2.951    -0.022    28.549     8.764
    70   6 C        2.923    -0.038    28.933     8.821
    71   1 H        0.925     0.035     2.518     2.482
    72   1 H        0.925     0.036     2.509     2.477
    73   1 H        0.925     0.035     2.519     2.482
    74   1 H        0.925     0.032     2.563     2.504
    75   1 H        0.925     0.035     2.514     2.479
    76   1 H        0.925     0.037     2.495     2.470
    77   1 H        0.925     0.037     2.493     2.469
    78   1 H        0.925     0.032     2.565     2.505
    79   1 H        0.925     0.035     2.517     2.481
    80   1 H        0.926     0.027     2.622     2.532
    81   1 H        0.926     0.024     2.666     2.553
    82   1 H        0.926     0.035     2.513     2.479
    83   1 H        0.926     0.035     2.515     2.480
    84   1 H        0.925     0.037     2.494     2.470
    85   1 H        0.925     0.032     2.562     2.503
    86   1 H        0.925     0.036     2.509     2.477
    87   1 H        0.925     0.035     2.521     2.483
    88   1 H        0.925     0.035     2.518     2.481
    89   1 H        0.925     0.035     2.510     2.477
    90   1 H        0.925     0.035     2.513     2.479
    91   1 H        0.925     0.031     2.567     2.506
    92   1 H        0.925     0.037     2.493     2.469
    93   1 H        0.926     0.028     2.613     2.528
    94   1 H        0.926     0.025     2.652     2.547
    95   1 H        0.926     0.046     2.365     2.405
    96   1 H        0.926     0.044     2.394     2.420
    97   1 H        0.926     0.045     2.381     2.413
    98   1 H        0.926     0.046     2.373     2.409
    99   1 H        0.926     0.025     2.663     2.552
   100   1 H        0.926     0.028     2.619     2.531
   101   1 H        0.925     0.035     2.517     2.481
   102   1 H        0.925     0.035     2.518     2.482
   103   1 H        0.925     0.036     2.508     2.476
   104   1 H        0.925     0.037     2.491     2.468
   105   1 H        0.925     0.032     2.563     2.503
   106   1 H        0.925     0.035     2.515     2.480
   107   1 H        0.925     0.035     2.515     2.480
   108   1 H        0.925     0.031     2.566     2.505
   109   1 H        0.925     0.037     2.493     2.469
   110   1 H        0.926     0.035     2.511     2.478
   111   1 H        0.926     0.035     2.512     2.478
   112   1 H        0.925     0.032     2.562     2.503
   113   1 H        0.925     0.037     2.492     2.468
   114   1 H        0.925     0.035     2.511     2.478
   115   1 H        0.925     0.031     2.568     2.506
   116   1 H        0.925     0.037     2.491     2.468
   117   1 H        0.925     0.035     2.515     2.480
   118   1 H        0.925     0.036     2.507     2.476
   119   1 H        0.925     0.035     2.517     2.481
   120   1 H        0.925     0.035     2.521     2.483
   121   1 H        0.926     0.028     2.617     2.530
   122   1 H        0.926     0.025     2.664     2.552
   123   1 H        0.926     0.045     2.387     2.416
   124   1 H        0.926     0.042     2.426     2.436
   125   1 H        0.926     0.071     2.077     2.253
   126   1 H        0.926     0.060     2.203     2.321
   127   1 H        0.926     0.053     2.287     2.365
   128   1 H        0.926     0.063     2.161     2.299
   129   1 H        0.926     0.064     2.149     2.293
   130   1 H        0.926     0.063     2.169     2.303
   131   1 H        0.926     0.058     2.224     2.332
   132   1 H        0.926     0.065     2.142     2.289
   133   1 H        0.926     0.070     2.091     2.261

molecular dipole:
                 x           y           z       tot (Debye)
 q only:       -1.153      -2.274      -0.851
   full:       -1.236      -1.924      -0.763       6.128

 projected vibrational frequencies (cm⁻¹)
eigval :       -0.00    -0.00    -0.00    -0.00     0.00     0.00
eigval :        3.30     6.09     7.27     9.80    11.15    12.92
eigval :       21.49    23.98    26.76    28.77    31.24    32.12
eigval :       35.47    36.29    43.24    57.84    60.42    61.88
eigval :       66.01    71.46    76.25    86.21    93.62   102.69
eigval :      115.68   116.31   121.34   124.37   129.21   137.55
eigval :      141.93   159.21   160.47   173.35   175.09   178.33
eigval :      182.89   186.25   197.41   202.10   202.85   205.73
eigval :      216.28   220.31   222.16   224.36   226.30   230.18
eigval :      232.34   240.40   246.02   258.74   259.33   270.73
eigval :      274.07   279.61   282.74   293.30   306.32   311.54
eigval :      315.07   315.62   319.31   319.48   322.01   326.96
eigval :      333.54   340.87   342.39   342.57   355.61   358.48
eigval :      358.59   361.25   363.39   370.40   377.32   381.82
eigval :      384.18   391.36   397.71   398.68   401.37   411.07
eigval :      411.39   415.71   429.61   436.72   440.96   441.66
eigval :      442.19   445.39   451.32   456.06   460.27   464.13
eigval :      464.97   466.46   473.76   486.33   500.79   513.04
eigval :      516.64   518.91   540.54   544.98   550.30   560.23
eigval :      576.83   583.30   583.81   584.06   584.52   587.65
eigval :      599.07   607.56   626.93   630.31   638.98   639.10
eigval :      641.14   645.95   657.08   662.54   677.66   681.07
eigval :      686.80   687.08   691.79   702.56   705.97   706.60
eigval :      712.47   718.10   719.06   732.18   743.96   751.96
eigval :      810.10   813.00   816.07   817.87   821.13   822.38
eigval :      829.05   830.04   831.25   834.95   869.23   870.71
eigval :      871.01   872.16   872.52   874.17   876.37   879.58
eigval :      882.82   884.08   889.83   906.08   907.99   908.26
eigval :      914.16   914.33   915.97   918.66   922.22   923.75
eigval :      925.65   927.19   928.81   930.38   931.98   932.48
eigval :      932.67   958.07   958.15   958.47   958.87   960.54
eigval :      960.57   960.75   961.02   961.39   961.86   961.88
eigval :      961.96   963.53   965.81   998.23  1004.88  1029.68
eigval :     1030.41  1032.76  1032.85  1033.56  1033.83  1034.12
eigval :     1035.34  1035.78  1040.93  1041.03  1065.71  1069.13
eigval :     1101.27  1104.62  1111.71  1112.20  1116.26  1118.29
eigval :     1126.82  1127.77  1128.34  1135.41  1136.98  1153.15
eigval :     1167.86  1172.56  1174.79  1175.69  1176.83  1188.84
eigval :     1190.60  1193.40  1195.19  1222.57  1225.05  1225.14
eigval :     1225.19  1225.43  1227.76  1228.93  1229.64  1230.21
eigval :     1233.16  1235.80  1236.56  1238.22  1242.72  1246.10
eigval :     1252.77  1256.87  1258.92  1270.31  1281.45  1283.85
eigval :     1286.53  1302.39  1303.21  1309.98  1311.01  1318.40
eigval :     1320.69  1339.52  1345.56  1345.64  1346.24  1346.46
eigval :     1360.35  1360.70  1381.44  1387.28  1396.90  1399.70
eigval :     1400.06  1401.34  1401.69  1401.74  1401.92  1402.17
eigval :     1402.66  1410.80  1412.41  1419.07  1425.39  1426.06
eigval :     1426.23  1426.52  1426.58  1428.88  1441.04  1442.27
eigval :     1445.79  1468.96  1472.68  1480.69  1481.91  1484.36
eigval :     1484.41  1488.65  1488.87  1489.10  1489.51  1489.79
eigval :     1492.26  1492.47  1492.56  1492.97  1498.70  1499.27
eigval :     1499.55  1499.94  1502.22  1502.32  1502.69  1503.12
eigval :     1511.11  1511.25  1511.58  1511.85  1516.83  1517.43
eigval :     1518.38  1518.49  1559.00  1565.77  1568.73  1569.58
eigval :     1572.64  1575.36  1576.22  1580.71  1581.08  1595.41
eigval :     1596.61  1603.40  1603.46  1611.69  1616.32  1616.74
eigval :     3016.62  3016.86  3016.89  3017.25  3017.75  3018.38
eigval :     3018.45  3018.61  3021.60  3021.92  3022.19  3022.24
eigval :     3023.25  3023.51  3023.53  3023.85  3025.35  3025.75
eigval :     3025.84  3025.96  3029.29  3029.49  3029.53  3029.65
eigval :     3034.07  3034.20  3034.25  3034.32  3041.99  3042.32
eigval :     3042.88  3043.01  3045.19  3045.77  3046.19  3046.46
eigval :     3074.05  3074.20  3074.93  3075.52  3085.37  3087.09
eigval :     3087.26  3088.17  3088.35  3090.70  3090.87  3091.84
eigval :     3096.02  3097.41  3097.70  3098.24  3100.95  3101.34
eigval :     3102.22  3103.56  3104.24  3106.49  3107.80  3112.18
eigval :     3112.91  3114.97  3115.62

   temp. (K)  partition function   enthalpy   heat capacity  entropy
                                   cal/mol     cal/K/mol   cal/K/mol   J/K/mol
 298.15  VIB  0.109E+34            39662.857    240.317    249.869
         ROT  0.424E+09              888.752      2.981     42.459
         INT  0.463E+42            40551.610    243.298    292.329
         TR   0.278E+29             1481.254      4.968     46.371
         TOT                       42032.8635   248.2663   338.6992  1417.1176

       T/K    H(0)-H(T)+PV         H(T)/Eh          T*S/Eh         G(T)/Eh
   ------------------------------------------------------------------------
    298.15    0.669836E-01    0.115046E+01    0.160927E+00    0.989529E+00
   ------------------------------------------------------------------------

         :::::::::::::::::::::::::::::::::::::::::::::::::::::
         ::                  THERMODYNAMIC                  ::
         :::::::::::::::::::::::::::::::::::::::::::::::::::::
         :: total free energy        -188.577152829746 Eh   ::
         ::.................................................::
         :: total energy             -189.566681942034 Eh   ::
         :: zero point energy           1.083472414407 Eh   ::
         :: G(RRHO) w/o ZPVE           -0.093943302119 Eh   ::
         :: G(RRHO) contrib.            0.989529112289 Eh   ::
         :::::::::::::::::::::::::::::::::::::::::::::::::::::

           -------------------------------------------------
          | TOTAL ENERGY             -189.566681942034 Eh   |
          | TOTAL ENTHALPY           -188.416225895879 Eh   |
          | TOTAL FREE ENERGY        -188.577152829746 Eh   |
          | GRADIENT NORM               0.000117578394 Eh/α |
          | HOMO-LUMO GAP               2.147987385092 eV   |
           -------------------------------------------------

 * finished run on 2025/07/20 at 17:12:32.433
