   * xtb version 6.7.1 (edcfbbe) compiled by 'albert@albert-system' on 2024-07-22

   ID    Z sym.   atoms
    1    6 C      1-20, 22-30, 32-54, 56-59, 63-70
    2    7 N      21, 31, 55
    3   16 S      60
    4    8 O      61, 62
    5    1 H      71-133

          program call               : xtb data2507/toluene/t3Cz-SO/t3Cz-SO.xyz --gfn 2 --gbsa toluene --ohess vtight --parallel 40 --molden --ceasefiles --namespace data2507/toluene/t3Cz-SO/t3Cz-SO_toluene_S0_preOpt
      * Solvation model:               GBSA
        Solvent                        toluene
        Solvent mass                       9.2140E+01 g/mol
          :  Hamiltonian                  GFN2-xTB          :
 * total energy  :  -189.5337817 Eh     change       -0.1785651E-08 Eh
 * total energy  :  -189.5545860 Eh     change       -0.2080426E-01 Eh
 * total energy  :  -189.5606160 Eh     change       -0.6030024E-02 Eh
 * total energy  :  -189.5623067 Eh     change       -0.1690756E-02 Eh
 * total energy  :  -189.5632844 Eh     change       -0.9776416E-03 Eh
 * total energy  :  -189.5636036 Eh     change       -0.3191768E-03 Eh
 * total energy  :  -189.5637471 Eh     change       -0.1435648E-03 Eh
 * total energy  :  -189.5638481 Eh     change       -0.1009515E-03 Eh
 * total energy  :  -189.5639387 Eh     change       -0.9060222E-04 Eh
 * total energy  :  -189.5640397 Eh     change       -0.1010656E-03 Eh
 * total energy  :  -189.5657739 Eh     change       -0.1356101E-05 Eh
 * total energy  :  -189.5657751 Eh     change       -0.1124549E-05 Eh
 * total energy  :  -189.5657760 Eh     change       -0.8942256E-06 Eh
 * total energy  :  -189.5657767 Eh     change       -0.7168067E-06 Eh
 * total energy  :  -189.5657775 Eh     change       -0.8180040E-06 Eh
 * total energy  :  -189.5657786 Eh     change       -0.1125054E-05 Eh
 * total energy  :  -189.5657804 Eh     change       -0.1749820E-05 Eh
 * total energy  :  -189.5657826 Eh     change       -0.2265602E-05 Eh
 * total energy  :  -189.5657826 Eh     change       -0.5009895E-08 Eh
   *** GEOMETRY OPTIMIZATION CONVERGED AFTER 152 ITERATIONS ***

 final structure:
================
133
 xtb: 6.7.1 (edcfbbe)
C           -7.55625420126899       -3.60701016695028        3.47823514338699
C           -6.09600285068422       -3.27448231448952        3.80099416568860
C           -5.25711801741498       -4.53830929303070        3.55883642034311
C           -6.01566889485828       -2.87354319751698        5.28183214552118
C           -5.55090707558347       -2.13858673406173        2.94527536877090
C           -4.22202460586406       -1.73093672126508        3.12770833130791
C           -3.64199292516326       -0.71232972170486        2.39920357279098
C           -4.41527527193126       -0.07377895592838        1.44157754066868
C           -5.76166202962628       -0.45043761180093        1.25092022408928
C           -6.31884765571628       -1.48007474787671        1.99873951802142
C           -6.28834342028788        0.42229823512035        0.23738007532727
C           -7.52585315072835        0.52777242398292       -0.37839293580950
C           -7.73636309060451        1.48493259329310       -1.36260320202704
C           -9.10635508304250        1.57984449167476       -2.02263880611221
C           -9.41812371143325        0.24732602134714       -2.72078141786799
C           -9.18905854374553        2.69458597349508       -3.07014665167587
C          -10.16584164687746        1.86161343310313       -0.94650469091129
C           -6.67166993884998        2.31824503037152       -1.71920162358915
C           -5.42620392847286        2.23469346629113       -1.12357559381119
C           -5.23578556193340        1.29058669260112       -0.12833943533821
N           -4.10696133784657        0.98000233831907        0.60400631036237
C           -2.86380404765246        1.62511632072948        0.51293973423610
C           -2.80416567389466        3.02075693699454        0.61805344707427
C           -1.60800199600698        3.70193109137562        0.52001938142081
C           -0.45039292001057        2.96384507215992        0.31417754857448
C           -0.49515897021273        1.55265255846977        0.24706837766876
C           -1.70608665044623        0.88164138396295        0.33365821576957
C            0.86129111997337        1.10701952290802        0.08567756522424
C            1.43325552244960       -0.14934970686105       -0.05131824358178
C            2.80539623321390       -0.23584619370335       -0.24001831003279
N            3.41737122518172       -1.48843512121524       -0.39723198654546
C            3.01843976549959       -2.48292940177541       -1.26917318644803
C            1.98443393786711       -2.50389001676233       -2.19292441719187
C            1.82468211838537       -3.63781413766634       -2.96318676655048
C            2.66225030392625       -4.75688214164466       -2.85696715053200
C            2.39344402652478       -5.96334091005597       -3.74661223818821
C            2.49199190350737       -5.53835508257510       -5.21943330799510
C            3.39188839887925       -7.10162621260845       -3.51361891884936
C            0.98425006422121       -6.50023650020447       -3.45391153852388
C            3.70710129675809       -4.71418633655478       -1.94830094188078
C            3.89116851652531       -3.58611226077562       -1.15860444791529
C            4.86475463371130       -3.23609101654349       -0.16066543462211
C            5.94832571457021       -3.90523536314489        0.38690567336032
C            6.71094848370721       -3.30372379825206        1.37962775964154
C            7.90097229508130       -4.05849425944101        1.95868596124476
C            7.40868547250107       -5.37584033051239        2.57691822970696
C            8.63566298603376       -3.27041361020461        3.04764322306685
C            8.90106349372643       -4.35678146854692        0.83136517920701
C            6.34785728622964       -2.02554686617303        1.81490909641692
C            5.27298696430062       -1.33400466004386        1.28629251009224
C            4.53540382347423       -1.93500291718044        0.27978814957349
C            3.58975281192589        0.92382502943665       -0.29516198896087
C            3.03686561120460        2.17822132069511       -0.13741213704338
C            1.66719250096670        2.26776265772744        0.07030899395549
N            0.86348073938256        3.38550831277763        0.21012381948168
C            1.30388505863923        4.71002253964780        0.25164080802288
C            2.36932751172517        5.06711324054001        1.08132899864292
C            2.80307542049415        6.37804316450870        1.12275957672206
C            2.16825059940644        7.33000015626092        0.34542036715904
S            2.75712840161325        9.02423143876489        0.41054100093912
O            1.93743664124501        9.82988654322884       -0.47053484160134
O            2.82705192684832        9.43933321534302        1.79628480887604
C            4.42283427122633        8.94003264944813       -0.25394382752832
C            4.58431194650919        8.56751268240760       -1.57523045616848
C            5.86399686714304        8.48401407016153       -2.09879862238852
C            6.95906977768842        8.76981380563398       -1.29658894935465
C            6.78298404360161        9.14057920964449        0.02748368547559
C            5.50432684638470        9.22471357610460        0.55600454738801
C            1.11317114579949        6.99287000540960       -0.48080546665548
C            0.67938279126033        5.68123036024636       -0.53236546404726
H           -7.66692826188590       -3.91757459316705        2.44155652622187
H           -7.88946943113171       -4.42676647227143        4.11200072178609
H           -8.20346254706058       -2.75329217352814        3.66700278895652
H           -5.29354631916756       -4.81794183785657        2.50749991724683
H           -4.21733241164055       -4.38397932955252        3.83386485436984
H           -5.64613486488741       -5.36497184478603        4.15007096492672
H           -6.42385061333344       -3.66491711661680        5.90751401203733
H           -6.58852710327669       -1.96465740288852        5.45676509452348
H           -4.98919900602370       -2.69261008130026        5.58898152920928
H           -3.61506012272371       -2.22487113159331        3.87147955688898
H           -2.61924435618519       -0.41796765092626        2.58322892252457
H           -7.34975382698150       -1.74188734744894        1.82744893526145
H           -8.31455336075758       -0.14706092241476       -0.08272330113084
H          -10.38865167870486        0.29760632395586       -3.21055579410872
H           -8.66195489171471        0.03128140047932       -3.47332066509243
H           -9.43652746193035       -0.57594620923262       -2.01182640065842
H          -10.19097681101923        2.71735199917019       -3.49497140310734
H           -8.99178997616577        3.66708148085874       -2.62438361845107
H           -8.48554117919520        2.52359523941551       -3.88196327553171
H           -9.93949730069433        2.79285490113760       -0.43037252411265
H          -11.15001974745924        1.95005669519601       -1.40249852199207
H          -10.20395426446922        1.06490116865094       -0.20872385494376
H           -6.80448716949194        3.05989802037692       -2.48964707212507
H           -4.62549149407284        2.88733837823386       -1.43860919672018
H           -3.71859439513842        3.56675063467992        0.79411677049036
H           -1.58140686510328        4.77550272460925        0.62265080376831
H           -1.75158293718210       -0.19361750733156        0.25830621099775
H            0.82772000476441       -1.04115788246179       -0.01001792882743
H            1.32528922344156       -1.65802183127272       -2.31983651234444
H            1.01524866335341       -3.64897169002835       -3.67752919272808
H            3.48019101772263       -5.13254838977494       -5.42804321028781
H            1.75412672741165       -4.77917495687754       -5.46393244801506
H            2.32598184900391       -6.39549547342259       -5.86910782544065
H            3.15026370599989       -7.93533762731400       -4.17026715713802
H            4.40789338537485       -6.78295952032788       -3.73616196587779
H            3.34569581941928       -7.45856446763490       -2.48706800707787
H            0.90100226648018       -6.78616338451436       -2.40693777964058
H            0.22315761988296       -5.75359925023324       -3.66363058867769
H            0.78088949784423       -7.37530518241620       -4.06813693923002
H            4.39165845708900       -5.53859726720574       -1.83643362649085
H            6.18245560012094       -4.89697290008951        0.03115572074997
H            6.67998225460856       -5.17454270448380        3.36010133827277
H            6.93942632841388       -6.01273946489446        1.83209424312973
H            8.24334182354059       -5.92100634894689        3.01340035088140
H            9.03181582609442       -2.33604986308271        2.65620205749799
H            9.47205037830085       -3.86023165280287        3.41822892371087
H            7.97830980867677       -3.05673974140104        3.88757035407875
H            8.44994825415269       -4.96566592342254        0.05258728996546
H            9.24692284755166       -3.42864922416017        0.37989375385627
H            9.76317656890655       -4.89129496346486        1.22560811373675
H            6.91278072426004       -1.54316611808987        2.59553370321183
H            5.01575921654606       -0.35490639536171        1.66244589306147
H            4.64835768474223        0.82507263072142       -0.48108583795778
H            3.65548447559986        3.05969950886531       -0.19944864262105
H            2.83564194515371        4.31889629164819        1.70297344114779
H            3.61421337187131        6.67762099833376        1.76727106841014
H            3.71224723377210        8.36144887652622       -2.17593160184419
H            6.00627794852893        8.19750774264137       -3.12952827907833
H            7.95540680996752        8.70535618331447       -1.70731974828438
H            7.63687519432461        9.36477621800039        0.64837919001031
H            5.32456371659093        9.51364113417185        1.58014364525689
H            0.64982466541500        7.76688121043875       -1.07277049450055
H           -0.12967381658585        5.40085029605141       -1.18863575784813

          :  Hamiltonian                  GFN2-xTB          :
         :: gradient norm              0.000045982243 Eh/a0 ::
         :: HOMO-LUMO gap              2.159800219040 eV    ::
         :: SCC energy              -192.792969899247 Eh    ::
         :: -> dispersion             -0.174562141725 Eh    ::
         :: -> Gsolv                  -0.082562521185 Eh    ::
         :: repulsion energy           3.227187264784 Eh    ::

    * Orbital Energies and Occupations

         #    Occupation            Energy/Eh            Energy/eV
      -------------------------------------------------------------
         1        2.0000           -0.7770703             -21.1452
       ...           ...                  ...                  ...
       164        2.0000           -0.4103020             -11.1649
       165        2.0000           -0.4056912             -11.0394
       166        2.0000           -0.4056228             -11.0376
       167        2.0000           -0.4039911             -10.9932
       168        2.0000           -0.4038630             -10.9897
       169        2.0000           -0.3924828             -10.6800
       170        2.0000           -0.3923279             -10.6758
       171        2.0000           -0.3908523             -10.6356
       172        2.0000           -0.3794294             -10.3248
       173        2.0000           -0.3703509             -10.0778
       174        2.0000           -0.3702074             -10.0739
       175        2.0000           -0.3534441              -9.6177
       176        2.0000           -0.3499150              -9.5217 (HOMO)
       177                         -0.2705438              -7.3619 (LUMO)
       178                         -0.2577568              -7.0139
       179                         -0.2544082              -6.9228
       180                         -0.2525809              -6.8731
       181                         -0.2468082              -6.7160
       182                         -0.2403847              -6.5412
       183                         -0.2376289              -6.4662
       184                         -0.2329270              -6.3383
       185                         -0.2145355              -5.8378
       186                         -0.2143730              -5.8334
       187                         -0.2112321              -5.7479
       ...                                ...                  ...
       348                          1.1666028              31.7449
      -------------------------------------------------------------
                  HL-Gap            0.0793712 Eh            2.1598 eV

     #   Z          covCN         q      C6AA      α(0)
     1   6 C        3.761    -0.106    22.565     6.772
     2   6 C        3.902     0.024    20.107     6.374
     3   6 C        3.761    -0.104    22.538     6.768
     4   6 C        3.761    -0.104    22.535     6.767
     5   6 C        2.972    -0.004    28.128     8.700
     6   6 C        2.931    -0.041    29.023     8.835
     7   6 C        2.908    -0.056    29.383     8.888
     8   6 C        3.080     0.044    26.933     8.508
     9   6 C        3.066    -0.022    28.496     8.753
    10   6 C        2.918    -0.046    29.136     8.851
    11   6 C        3.066    -0.022    28.483     8.751
    12   6 C        2.920    -0.042    29.035     8.836
    13   6 C        2.971    -0.004    28.130     8.700
    14   6 C        3.902     0.024    20.107     6.374
    15   6 C        3.761    -0.104    22.532     6.767
    16   6 C        3.761    -0.106    22.572     6.773
    17   6 C        3.761    -0.104    22.533     6.767
    18   6 C        2.928    -0.046    29.141     8.853
    19   6 C        2.909    -0.057    29.404     8.892
    20   6 C        3.078     0.043    26.942     8.510
    21   7 N        2.802    -0.051    22.223     7.002
    22   6 C        2.912     0.057    26.730     8.478
    23   6 C        2.926    -0.045    29.113     8.849
    24   6 C        2.909    -0.049    29.227     8.865
    25   6 C        3.071     0.041    27.012     8.522
    26   6 C        3.067    -0.013    28.263     8.717
    27   6 C        2.915    -0.046    29.145     8.853
    28   6 C        3.066    -0.013    28.261     8.717
    29   6 C        2.915    -0.046    29.152     8.854
    30   6 C        2.912     0.057    26.730     8.478
    31   7 N        2.801    -0.050    22.206     6.999
    32   6 C        3.079     0.044    26.936     8.509
    33   6 C        2.908    -0.056    29.384     8.888
    34   6 C        2.931    -0.041    29.023     8.835
    35   6 C        2.972    -0.004    28.126     8.699
    36   6 C        3.902     0.025    20.106     6.374
    37   6 C        3.761    -0.104    22.537     6.767
    38   6 C        3.761    -0.106    22.565     6.772
    39   6 C        3.761    -0.104    22.535     6.767
    40   6 C        2.918    -0.046    29.135     8.851
    41   6 C        3.066    -0.022    28.493     8.753
    42   6 C        3.066    -0.022    28.480     8.751
    43   6 C        2.920    -0.042    29.034     8.836
    44   6 C        2.971    -0.004    28.127     8.699
    45   6 C        3.902     0.025    20.107     6.374
    46   6 C        3.761    -0.104    22.532     6.767
    47   6 C        3.761    -0.106    22.574     6.773
    48   6 C        3.761    -0.104    22.534     6.767
    49   6 C        2.928    -0.046    29.142     8.853
    50   6 C        2.909    -0.057    29.404     8.892
    51   6 C        3.078     0.043    26.946     8.510
    52   6 C        2.926    -0.045    29.123     8.850
    53   6 C        2.909    -0.050    29.232     8.866
    54   6 C        3.071     0.040    27.020     8.523
    55   7 N        2.801    -0.027    21.756     6.928
    56   6 C        2.912     0.072    26.395     8.425
    57   6 C        2.924    -0.037    28.926     8.820
    58   6 C        2.959    -0.025    28.627     8.776
    59   6 C        2.970    -0.076    29.893     8.968
    60  16 S        3.818     0.937   108.481    17.530
    61   8 O        0.860    -0.579    25.600     6.784
    62   8 O        0.860    -0.579    25.600     6.784
    63   6 C        2.972    -0.071    29.755     8.948
    64   6 C        2.961    -0.027    28.668     8.782
    65   6 C        2.922    -0.021    28.522     8.758
    66   6 C        2.920    -0.021    28.522     8.758
    67   6 C        2.921    -0.021    28.528     8.759
    68   6 C        2.953    -0.023    28.585     8.769
    69   6 C        2.952    -0.022    28.546     8.763
    70   6 C        2.924    -0.038    28.936     8.821
    71   1 H        0.925     0.035     2.519     2.482
    72   1 H        0.925     0.036     2.507     2.476
    73   1 H        0.925     0.035     2.523     2.484
    74   1 H        0.925     0.032     2.561     2.502
    75   1 H        0.925     0.035     2.512     2.479
    76   1 H        0.925     0.037     2.492     2.469
    77   1 H        0.925     0.037     2.491     2.468
    78   1 H        0.925     0.031     2.567     2.506
    79   1 H        0.925     0.035     2.515     2.480
    80   1 H        0.926     0.028     2.616     2.529
    81   1 H        0.926     0.025     2.663     2.552
    82   1 H        0.926     0.035     2.523     2.484
    83   1 H        0.926     0.028     2.616     2.529
    84   1 H        0.925     0.037     2.493     2.469
    85   1 H        0.925     0.031     2.567     2.505
    86   1 H        0.925     0.035     2.511     2.478
    87   1 H        0.925     0.036     2.505     2.475
    88   1 H        0.925     0.035     2.523     2.484
    89   1 H        0.925     0.035     2.520     2.483
    90   1 H        0.925     0.031     2.569     2.507
    91   1 H        0.925     0.036     2.496     2.471
    92   1 H        0.925     0.035     2.510     2.478
    93   1 H        0.926     0.035     2.516     2.481
    94   1 H        0.926     0.025     2.665     2.553
    95   1 H        0.926     0.045     2.388     2.416
    96   1 H        0.926     0.042     2.421     2.433
    97   1 H        0.926     0.046     2.376     2.410
    98   1 H        0.926     0.045     2.378     2.412
    99   1 H        0.926     0.025     2.655     2.548
   100   1 H        0.926     0.028     2.618     2.530
   101   1 H        0.925     0.032     2.563     2.503
   102   1 H        0.925     0.035     2.514     2.479
   103   1 H        0.925     0.037     2.492     2.469
   104   1 H        0.925     0.036     2.508     2.477
   105   1 H        0.925     0.035     2.520     2.483
   106   1 H        0.925     0.035     2.520     2.483
   107   1 H        0.925     0.032     2.564     2.504
   108   1 H        0.925     0.035     2.514     2.479
   109   1 H        0.925     0.037     2.494     2.470
   110   1 H        0.926     0.034     2.524     2.484
   111   1 H        0.926     0.028     2.618     2.530
   112   1 H        0.925     0.031     2.570     2.507
   113   1 H        0.925     0.035     2.512     2.479
   114   1 H        0.925     0.036     2.497     2.471
   115   1 H        0.925     0.035     2.516     2.480
   116   1 H        0.925     0.036     2.506     2.475
   117   1 H        0.925     0.035     2.521     2.483
   118   1 H        0.925     0.035     2.512     2.479
   119   1 H        0.925     0.032     2.564     2.504
   120   1 H        0.925     0.037     2.496     2.470
   121   1 H        0.926     0.035     2.511     2.478
   122   1 H        0.926     0.025     2.651     2.546
   123   1 H        0.926     0.046     2.365     2.405
   124   1 H        0.926     0.044     2.393     2.419
   125   1 H        0.926     0.071     2.077     2.254
   126   1 H        0.926     0.059     2.207     2.323
   127   1 H        0.926     0.052     2.296     2.369
   128   1 H        0.926     0.063     2.159     2.298
   129   1 H        0.926     0.064     2.149     2.292
   130   1 H        0.926     0.063     2.169     2.303
   131   1 H        0.926     0.058     2.225     2.333
   132   1 H        0.926     0.065     2.142     2.289
   133   1 H        0.926     0.070     2.088     2.260

molecular dipole:
                 x           y           z       tot (Debye)
 q only:        1.825      -1.714      -1.004
   full:        1.773      -1.388      -0.931       6.192

 projected vibrational frequencies (cm⁻¹)
eigval :       -0.00    -0.00    -0.00    -0.00     0.00     0.00
eigval :       -4.37     2.35     7.43     9.91    11.01    13.72
eigval :       22.28    22.85    23.90    24.53    31.10    31.92
eigval :       34.20    35.58    46.99    55.85    59.45    61.47
eigval :       70.00    73.39    76.46    80.46    89.19   100.25
eigval :      113.70   118.46   122.93   124.16   127.59   134.51
eigval :      144.37   154.55   156.59   169.95   175.28   176.81
eigval :      179.26   182.55   190.20   193.94   195.48   203.13
eigval :      213.28   215.16   216.84   219.73   222.86   236.36
eigval :      239.34   242.11   247.41   261.63   266.65   274.94
eigval :      278.82   287.88   295.73   298.13   300.35   303.40
eigval :      314.82   315.48   317.90   321.19   321.65   323.97
eigval :      330.93   333.56   347.74   351.12   353.59   355.29
eigval :      356.76   363.98   365.89   371.32   376.37   378.37
eigval :      385.19   391.64   398.27   398.93   402.90   411.10
eigval :      412.04   415.78   429.59   437.33   441.82   442.56
eigval :      443.10   446.40   453.07   457.84   460.70   465.36
eigval :      466.02   470.64   475.29   484.50   500.80   512.18
eigval :      517.55   518.56   540.32   543.90   556.45   556.68
eigval :      577.18   581.96   583.54   584.34   585.93   586.89
eigval :      598.88   609.50   620.38   635.03   638.50   638.68
eigval :      641.08   643.96   657.76   662.73   679.24   681.21
eigval :      686.37   686.90   691.69   702.68   706.47   706.80
eigval :      711.89   717.96   719.08   731.77   745.07   753.24
eigval :      809.97   813.13   814.31   816.63   818.71   822.18
eigval :      829.54   830.86   832.42   835.39   870.49   871.61
eigval :      872.52   872.91   876.96   880.86   880.99   881.16
eigval :      885.01   885.13   889.66   902.10   904.22   909.80
eigval :      909.99   914.43   918.02   918.73   922.24   925.10
eigval :      926.03   928.62   929.50   929.51   931.30   933.27
eigval :      934.38   958.16   958.66   958.75   959.17   960.00
eigval :      960.16   961.30   961.92   961.96   962.85   963.07
eigval :      963.50   964.45   966.09   998.34  1004.62  1030.10
eigval :     1031.71  1032.90  1033.43  1034.24  1034.88  1035.27
eigval :     1035.87  1036.06  1038.98  1039.27  1065.80  1069.30
eigval :     1102.09  1105.58  1112.53  1112.93  1116.27  1118.78
eigval :     1127.15  1127.81  1128.60  1135.61  1137.29  1153.48
eigval :     1167.64  1172.79  1175.60  1176.85  1177.02  1188.20
eigval :     1191.59  1195.20  1197.09  1221.29  1224.53  1224.72
eigval :     1225.26  1225.33  1225.60  1227.81  1229.86  1230.80
eigval :     1233.66  1235.91  1237.90  1239.73  1244.13  1248.27
eigval :     1253.51  1257.57  1258.84  1270.44  1282.54  1284.26
eigval :     1286.69  1300.30  1300.80  1308.34  1309.05  1318.31
eigval :     1320.73  1339.23  1343.80  1344.69  1346.48  1348.62
eigval :     1363.78  1364.17  1380.53  1386.59  1397.01  1398.81
eigval :     1400.33  1400.57  1402.20  1402.26  1402.37  1403.73
eigval :     1404.07  1410.60  1412.39  1419.01  1425.68  1425.90
eigval :     1426.79  1427.59  1427.69  1428.63  1441.49  1441.88
eigval :     1445.54  1469.02  1472.69  1473.94  1474.85  1482.18
eigval :     1482.66  1488.02  1488.65  1489.40  1489.64  1489.72
eigval :     1491.67  1492.13  1492.49  1492.89  1498.84  1499.67
eigval :     1499.85  1500.09  1501.93  1502.29  1502.30  1503.40
eigval :     1509.37  1510.92  1512.40  1513.79  1517.30  1517.54
eigval :     1518.43  1518.45  1559.24  1566.50  1569.52  1569.67
eigval :     1572.81  1575.48  1576.19  1582.71  1583.14  1595.53
eigval :     1596.60  1603.50  1603.63  1611.38  1617.58  1617.98
eigval :     3016.33  3017.15  3017.22  3017.26  3017.75  3017.78
eigval :     3018.19  3018.38  3021.53  3021.74  3022.04  3022.06
eigval :     3022.84  3023.06  3023.40  3023.47  3025.24  3025.57
eigval :     3025.76  3025.87  3029.47  3029.49  3029.58  3029.67
eigval :     3034.18  3034.45  3034.56  3034.80  3042.81  3043.07
eigval :     3043.09  3044.02  3046.44  3046.49  3046.57  3047.07
eigval :     3073.39  3074.69  3077.35  3078.11  3084.51  3084.74
eigval :     3085.96  3087.52  3088.41  3090.02  3090.50  3091.72
eigval :     3096.57  3096.97  3099.14  3100.05  3101.13  3101.31
eigval :     3101.83  3103.57  3104.44  3106.17  3109.58  3113.00
eigval :     3113.81  3114.44  3115.12

   temp. (K)  partition function   enthalpy   heat capacity  entropy
                                   cal/mol     cal/K/mol   cal/K/mol   J/K/mol
 298.15  VIB  0.310E+34            39701.173    240.175    251.066
         ROT  0.427E+09              888.752      2.981     42.472
         INT  0.132E+43            40589.926    243.156    293.538
         TR   0.278E+29             1481.254      4.968     46.371
         TOT                       42071.1797   248.1244   339.9084  1422.1766

       T/K    H(0)-H(T)+PV         H(T)/Eh          T*S/Eh         G(T)/Eh
   ------------------------------------------------------------------------
    298.15    0.670447E-01    0.115057E+01    0.161501E+00    0.989071E+00
   ------------------------------------------------------------------------

         :::::::::::::::::::::::::::::::::::::::::::::::::::::
         ::                  THERMODYNAMIC                  ::
         :::::::::::::::::::::::::::::::::::::::::::::::::::::
         :: total free energy        -188.576712066374 Eh   ::
         ::.................................................::
         :: total energy             -189.565782632553 Eh   ::
         :: zero point energy           1.083527303127 Eh   ::
         :: G(RRHO) w/o ZPVE           -0.094456736947 Eh   ::
         :: G(RRHO) contrib.            0.989070566180 Eh   ::
         :::::::::::::::::::::::::::::::::::::::::::::::::::::

           -------------------------------------------------
          | TOTAL ENERGY             -189.565782632553 Eh   |
          | TOTAL ENTHALPY           -188.415210636963 Eh   |
          | TOTAL FREE ENERGY        -188.576712066374 Eh   |
          | GRADIENT NORM               0.000045981451 Eh/α |
          | HOMO-LUMO GAP               2.159800458260 eV   |
           -------------------------------------------------

 * finished run on 2025/07/20 at 16:22:20.484
