   * xtb version 6.7.1 (edcfbbe) compiled by 'albert@albert-system' on 2024-07-22

   ID    Z sym.   atoms
    1    6 C      1-20, 22-30, 32-54, 56-59, 63-70
    2    7 N      21, 31, 55
    3   16 S      60
    4    8 O      61, 62
    5    1 H      71-133

          program call               : xtb data2507/toluene/t3Cz-SO/t3Cz-SO_toluene_T1_crest.xyz --gfn 2 --uhf 2 --gbsa toluene --ohess vtight --parallel 40 --molden --ceasefiles --namespace data2507/toluene/t3Cz-SO/t3Cz-SO_toluene_T1_finalOpt
      * Solvation model:               GBSA
        Solvent                        toluene
        Solvent mass                       9.2140E+01 g/mol
          :  Hamiltonian                  GFN2-xTB          :
 * total energy  :  -189.4758294 Eh     change       -0.5673456E-08 Eh
 * total energy  :  -189.4761830 Eh     change       -0.3536006E-03 Eh
 * total energy  :  -189.4763893 Eh     change       -0.2062418E-03 Eh
 * total energy  :  -189.4764028 Eh     change       -0.1350754E-04 Eh
 * total energy  :  -189.4764112 Eh     change       -0.8407851E-05 Eh
 * total energy  :  -189.4764145 Eh     change       -0.3335229E-05 Eh
 * total energy  :  -189.4764174 Eh     change       -0.2913351E-05 Eh
 * total energy  :  -189.4764189 Eh     change       -0.1429538E-05 Eh
 * total energy  :  -189.4764213 Eh     change       -0.2421410E-05 Eh
 * total energy  :  -189.4764231 Eh     change       -0.1783054E-05 Eh
 * total energy  :  -189.4764263 Eh     change       -0.9920839E-06 Eh
 * total energy  :  -189.4764272 Eh     change       -0.9688107E-06 Eh
 * total energy  :  -189.4764279 Eh     change       -0.6097718E-06 Eh
 * total energy  :  -189.4764282 Eh     change       -0.3376927E-06 Eh
 * total energy  :  -189.4764285 Eh     change       -0.2987064E-06 Eh
 * total energy  :  -189.4764288 Eh     change       -0.2903057E-06 Eh
 * total energy  :  -189.4764291 Eh     change       -0.3380142E-06 Eh
 * total energy  :  -189.4764294 Eh     change       -0.3085300E-06 Eh
 * total energy  :  -189.4764294 Eh     change       -0.3538304E-08 Eh
   *** GEOMETRY OPTIMIZATION CONVERGED AFTER 22 ITERATIONS ***

 final structure:
================
133
 xtb: 6.7.1 (edcfbbe)
C           -0.26684716767148       -9.20200965890472        1.51805460166826
C            0.29786863700399       -7.89930232122903        2.09290175935078
C            1.79721043276406       -7.84303082398053        1.76216103858125
C            0.10158367124178       -7.92451490787319        3.61658570035438
C           -0.38368800176104       -6.66435497653874        1.52347414657815
C            0.04032304583464       -5.39807874240977        1.94789805852183
C           -0.51411608382090       -4.22392308937504        1.47821268773817
C           -1.52676369636615       -4.31326395314973        0.53313640706326
C           -1.99587787152394       -5.57758843133281        0.11564431652334
C           -1.42445710102197       -6.74110700185089        0.60562469015218
C           -3.07727627094179       -5.32629185171667       -0.80345434071662
C           -3.89462458314156       -6.16164524015927       -1.54786291618244
C           -4.85230791292166       -5.61453884331841       -2.39343031967195
C           -5.78837810372621       -6.47094237262280       -3.23246558001113
C           -7.24194033648664       -6.13767786219527       -2.86288148242704
C           -5.57372952880509       -7.97120515890917       -3.00959853810444
C           -5.54772106393438       -6.16922895354031       -4.71961148350627
C           -4.94430172447081       -4.21922467887592       -2.48300118957812
C           -4.14184966124527       -3.36463672568600       -1.75332524848745
C           -3.21250461014062       -3.92303694652192       -0.88665136856861
N           -2.26928714119010       -3.31977632162020       -0.07664736064237
C           -2.08594610872816       -1.94896630781453        0.09968124854054
C           -3.20146227368378       -1.12148931006262        0.31957470790782
C           -3.04736585314758        0.24305869564972        0.52290928532709
C           -1.77066259639844        0.77444676391101        0.49770662253773
C           -0.63274574411906       -0.04929853709931        0.22599302384063
C           -0.79918361774771       -1.41988677361007        0.04578352983700
C            0.49813393550034        0.80993443489045        0.20368710636208
C            1.85994881118264        0.59985149219820        0.00142515762614
C            2.72502451047923        1.68645835774329        0.10152568458367
N            4.09231180177710        1.49459254252159       -0.08916006914004
C            4.92749890132787        2.28706389178990       -0.85305654940408
C            4.63931211188474        3.38414468639562       -1.65287391291864
C            5.67863581854343        3.97316767985734       -2.34532892356954
C            6.99806557393317        3.50554295210737       -2.28271593049319
C            8.07566454285239        4.22912247794191       -3.07572059045409
C            9.46218962825832        3.60408248499926       -2.89271293946369
C            7.72072516095290        4.17614703630621       -4.56967059937114
C            8.14683225234230        5.69143278639627       -2.60987828883998
C            7.26736145513396        2.38495310268190       -1.50585306075514
C            6.24252998871104        1.77554518201877       -0.79998814220743
C            6.19336384563907        0.61449731379001        0.05285430525635
C            7.16057151471534       -0.27493905545576        0.49289900921682
C            6.80803657064389       -1.30535606891068        1.35645189199761
C            7.81531833998963       -2.32280947621464        1.87043114709059
C            7.35637879039720       -3.73247784382094        1.46687138309371
C            7.89692699341466       -2.22089288973323        3.40133596216555
C            9.22030122979703       -2.10007113961586        1.30226308954160
C            5.47488001431561       -1.39635107296844        1.77790991256252
C            4.49244759082997       -0.52246082176491        1.35608662638056
C            4.84966511277320        0.47941543197031        0.46438654596000
C            2.24303938345706        2.97207617876466        0.40625677852660
C            0.88707172853003        3.19695398442644        0.59943487011813
C            0.01708828223399        2.12877281659321        0.47763281219125
N           -1.35230997167094        2.08159753886593        0.64105427907156
C           -2.17298035934799        3.17511886732508        0.90417211731251
C           -3.14511739052617        3.10743998871465        1.92274698470181
C           -3.94084655370808        4.19061824735029        2.19055255663638
C           -3.78767782078074        5.37145610684096        1.45555182661139
S           -4.92167326381671        6.70085111438642        1.69091213073358
O           -5.42219016765104        6.66876641005784        3.05720290869430
O           -4.30146136642453        7.94306106483837        1.25453992850681
C           -6.26251908224156        6.31263676665189        0.58374956904908
C           -6.20687152786754        6.74499641055942       -0.73459198554416
C           -7.19039180247875        6.35059749075345       -1.62071179607450
C           -8.21877077473183        5.51824010366164       -1.19432095299241
C           -8.26379940966048        5.08519412035892        0.12585784648961
C           -7.28325226100818        5.47656881128005        1.01653845290160
C           -2.83684835638915        5.44388896365134        0.43190300283972
C           -2.03129536453530        4.36715539122151        0.16573725340680
H           -0.14018513118082       -9.24123481027878        0.43843966859423
H            0.26550429438458      -10.04769486391159        1.94889722181639
H           -1.32134478086371       -9.31331279639511        1.76021062348154
H            1.94365520267113       -7.80153468230106        0.68454238578362
H            2.27071934905082       -6.97110905804601        2.20450574616193
H            2.29653524737772       -8.73100747113875        2.14402856628609
H            0.56204007884982       -8.81600796038307        4.03725726847406
H           -0.95924368633860       -7.93701922787058        3.85965794215635
H            0.54913469150160       -7.05533981669232        4.09058150340493
H            0.82968637320378       -5.32286258628857        2.67955396791535
H           -0.17508110998937       -3.26947303103218        1.85062399006052
H           -1.80588338706819       -7.68892740209749        0.26583794371018
H           -3.76460046832255       -7.22690672632884       -1.46014099137524
H           -7.47561974950659       -5.09551521315495       -3.06188319655437
H           -7.92486059852904       -6.75507110819374       -3.44268523418259
H           -7.41563089765978       -6.33033903178758       -1.80582320997467
H           -4.56844510740640       -8.27070983159781       -3.29707663325839
H           -5.74587358497334       -8.24144939493480       -1.97015036327994
H           -6.27722213365193       -8.53153077067668       -3.62226367260613
H           -5.75487147997206       -5.12860653634836       -4.95331305358978
H           -4.51298702426383       -6.37870716348370       -4.98405358830194
H           -6.19399771858487       -6.79099064549770       -5.33561154035238
H           -5.66728672007137       -3.77876922249408       -3.15194342576173
H           -4.23258644270803       -2.29582113269524       -1.87002251144124
H           -4.18338031229132       -1.56269157506470        0.37227110153445
H           -3.91092240528441        0.86488402511644        0.69814388498816
H            0.04365129483144       -2.05284768618620       -0.18172997384446
H            2.23393830568091       -0.37503164357948       -0.26768505667593
H            3.63365529213979        3.76431586033679       -1.74513476298180
H            5.44937596526274        4.82862697312798       -2.96163351037934
H            9.47833558100714        2.57520071899054       -3.24502708754427
H            9.76976560944906        3.63197026087805       -1.84976625699402
H           10.19123239475949        4.16705245189750       -3.47208786256004
H            8.49717515816391        4.66443457376223       -5.15478848380106
H            7.63730755462469        3.14262451701683       -4.90035630052436
H            6.77772383623121        4.67602773647176       -4.77279119122636
H            7.20632861590468        6.20936028665340       -2.77593805063998
H            8.37891667488133        5.73797772734606       -1.54752859355334
H            8.92568444724266        6.21927944499145       -3.15623983876469
H            8.25925341246984        1.97099449595205       -1.44169515765964
H            8.17565135014152       -0.14443977556289        0.15845329399339
H            7.26977917972027       -3.80463481864146        0.38440149672528
H            8.08047368843450       -4.47074076857120        1.80494963885084
H            6.39253478727804       -3.97852786979129        1.90338824747275
H            8.20067867382166       -1.21849699510174        3.69711449757952
H            8.62885341707572       -2.92927322327103        3.78375087921394
H            6.93930412807485       -2.43738298032945        3.86665739491928
H            9.89280944684901       -2.86140488100797        1.69259486825163
H            9.22073299673399       -2.17717422403786        0.21728139474595
H            9.61207475563119       -1.12807105590073        1.59330293893887
H            5.19100789003912       -2.17535533873909        2.46829955546576
H            3.48269754194260       -0.61235364447881        1.72586304558501
H            2.94466145660599        3.77959148988858        0.53903381126826
H            0.53250816114744        4.17915004608983        0.87104169584578
H           -3.22628502588210        2.20953255745704        2.51620780779671
H           -4.67238156503161        4.17415034835206        2.98315095946100
H           -5.40125003959677        7.39980580803029       -1.02899752010679
H           -7.15993069535165        6.69139974630535       -2.64502194899732
H           -8.98686222988268        5.21196706637628       -1.88806890909423
H           -9.06707360055183        4.44400178805025        0.45743926655006
H           -7.29535700892505        5.16983461318703        2.05108983258999
H           -2.75127471266142        6.36617069282576       -0.12090542020265
H           -1.30832353196214        4.41026516599355       -0.63451986961457

          :  Hamiltonian                  GFN2-xTB          :
         :: gradient norm              0.000054651280 Eh/a0 ::
         :: HOMO-LUMO gap              0.189322408605 eV    ::
         :: SCC energy              -192.685540424129 Eh    ::
         :: -> dispersion             -0.174940755860 Eh    ::
         :: -> Gsolv                  -0.089594281641 Eh    ::
         :: repulsion energy           3.209110988680 Eh    ::

    * Orbital Energies and Occupations

         #    Occupation            Energy/Eh            Energy/eV
      -------------------------------------------------------------
         1        2.0000           -0.7548458             -20.5404
       ...           ...                  ...                  ...
       165        2.0000           -0.4119453             -11.2096
       166        2.0000           -0.4104933             -11.1701
       167        2.0000           -0.4080142             -11.1026
       168        2.0000           -0.4043601             -11.0032
       169        2.0000           -0.4042349             -10.9998
       170        2.0000           -0.3916585             -10.6576
       171        2.0000           -0.3853822             -10.4868
       172        2.0000           -0.3822407             -10.4013
       173        2.0000           -0.3820712             -10.3967
       174        2.0000           -0.3797172             -10.3326
       175        1.9856           -0.3644232              -9.9165
       176        1.0144           -0.3563969              -9.6981
       177        0.9739           -0.2595441              -7.0626 (HOMO)
       178        0.0241           -0.2525869              -6.8732 (LUMO)
       179        0.0016           -0.2499716              -6.8021
       180        0.0005           -0.2488125              -6.7705
       181                         -0.2351690              -6.3993
       182                         -0.2346852              -6.3861
       183                         -0.2299067              -6.2561
       184                         -0.2280986              -6.2069
       185                         -0.2271392              -6.1808
       186                         -0.2269917              -6.1768
       187                         -0.2138606              -5.8194
       188                         -0.2027262              -5.5165
       ...                                ...                  ...
       348                          1.1497769              31.2870
      -------------------------------------------------------------
                  HL-Gap            0.0069573 Eh            0.1893 eV

     #   Z          covCN         q      C6AA      α(0)
     1   6 C        3.761    -0.109    22.625     6.781
     2   6 C        3.902     0.026    20.077     6.369
     3   6 C        3.761    -0.106    22.580     6.774
     4   6 C        3.761    -0.106    22.572     6.773
     5   6 C        2.973     0.008    27.844     8.656
     6   6 C        2.930    -0.038    28.944     8.823
     7   6 C        2.908    -0.046    29.151     8.853
     8   6 C        3.076     0.043    26.957     8.512
     9   6 C        3.063    -0.014    28.309     8.725
    10   6 C        2.917    -0.041    29.009     8.832
    11   6 C        3.064    -0.015    28.312     8.725
    12   6 C        2.917    -0.041    29.012     8.833
    13   6 C        2.972     0.008    27.846     8.656
    14   6 C        3.902     0.026    20.077     6.369
    15   6 C        3.761    -0.106    22.573     6.773
    16   6 C        3.761    -0.109    22.627     6.781
    17   6 C        3.761    -0.106    22.573     6.773
    18   6 C        2.930    -0.038    28.941     8.823
    19   6 C        2.908    -0.046    29.151     8.853
    20   6 C        3.075     0.043    26.954     8.512
    21   7 N        2.802    -0.014    21.519     6.890
    22   6 C        2.910     0.058    26.692     8.472
    23   6 C        2.922    -0.064    29.591     8.921
    24   6 C        2.907    -0.046    29.132     8.850
    25   6 C        3.065     0.037    27.115     8.539
    26   6 C        3.058    -0.021    28.461     8.749
    27   6 C        2.912    -0.052    29.293     8.875
    28   6 C        3.057    -0.021    28.469     8.750
    29   6 C        2.912    -0.052    29.295     8.875
    30   6 C        2.910     0.058    26.692     8.472
    31   7 N        2.802    -0.014    21.515     6.889
    32   6 C        3.075     0.043    26.953     8.512
    33   6 C        2.908    -0.046    29.147     8.853
    34   6 C        2.929    -0.038    28.939     8.822
    35   6 C        2.973     0.008    27.844     8.656
    36   6 C        3.902     0.026    20.077     6.369
    37   6 C        3.761    -0.109    22.628     6.781
    38   6 C        3.761    -0.106    22.573     6.773
    39   6 C        3.761    -0.106    22.571     6.773
    40   6 C        2.917    -0.041    29.012     8.833
    41   6 C        3.064    -0.015    28.311     8.725
    42   6 C        3.064    -0.014    28.306     8.724
    43   6 C        2.917    -0.041    29.007     8.832
    44   6 C        2.972     0.008    27.842     8.655
    45   6 C        3.902     0.026    20.076     6.369
    46   6 C        3.761    -0.107    22.582     6.774
    47   6 C        3.761    -0.106    22.573     6.773
    48   6 C        3.761    -0.109    22.626     6.781
    49   6 C        2.930    -0.038    28.941     8.823
    50   6 C        2.908    -0.046    29.151     8.853
    51   6 C        3.076     0.043    26.959     8.513
    52   6 C        2.922    -0.064    29.580     8.919
    53   6 C        2.907    -0.045    29.124     8.849
    54   6 C        3.067     0.037    27.109     8.538
    55   7 N        2.796     0.001    21.240     6.845
    56   6 C        2.911     0.036    27.183     8.549
    57   6 C        2.917    -0.045    29.111     8.848
    58   6 C        2.955    -0.036    28.896     8.817
    59   6 C        2.967    -0.098    30.451     9.052
    60  16 S        3.831     0.878   110.227    17.670
    61   8 O        0.860    -0.593    25.954     6.830
    62   8 O        0.860    -0.593    25.947     6.830
    63   6 C        2.969    -0.080    29.985     8.982
    64   6 C        2.957    -0.033    28.809     8.804
    65   6 C        2.919    -0.028    28.703     8.786
    66   6 C        2.919    -0.036    28.894     8.815
    67   6 C        2.919    -0.028    28.704     8.786
    68   6 C        2.957    -0.033    28.813     8.804
    69   6 C        2.955    -0.036    28.897     8.817
    70   6 C        2.917    -0.045    29.107     8.847
    71   1 H        0.925     0.038     2.477     2.461
    72   1 H        0.925     0.039     2.469     2.457
    73   1 H        0.925     0.037     2.485     2.465
    74   1 H        0.925     0.035     2.520     2.482
    75   1 H        0.925     0.039     2.468     2.457
    76   1 H        0.925     0.040     2.445     2.445
    77   1 H        0.925     0.040     2.444     2.445
    78   1 H        0.925     0.034     2.536     2.490
    79   1 H        0.925     0.038     2.479     2.462
    80   1 H        0.926     0.040     2.452     2.449
    81   1 H        0.926     0.038     2.469     2.457
    82   1 H        0.926     0.048     2.341     2.393
    83   1 H        0.926     0.049     2.336     2.390
    84   1 H        0.925     0.037     2.483     2.464
    85   1 H        0.925     0.040     2.448     2.447
    86   1 H        0.925     0.034     2.529     2.487
    87   1 H        0.925     0.038     2.474     2.460
    88   1 H        0.925     0.038     2.478     2.462
    89   1 H        0.925     0.039     2.468     2.457
    90   1 H        0.925     0.037     2.483     2.464
    91   1 H        0.925     0.034     2.524     2.485
    92   1 H        0.925     0.040     2.444     2.445
    93   1 H        0.926     0.038     2.469     2.457
    94   1 H        0.926     0.038     2.475     2.460
    95   1 H        0.926     0.039     2.458     2.452
    96   1 H        0.926     0.038     2.470     2.458
    97   1 H        0.926     0.045     2.377     2.411
    98   1 H        0.926     0.046     2.370     2.408
    99   1 H        0.926     0.038     2.482     2.463
   100   1 H        0.926     0.038     2.472     2.459
   101   1 H        0.925     0.038     2.471     2.458
   102   1 H        0.925     0.038     2.477     2.461
   103   1 H        0.925     0.039     2.466     2.456
   104   1 H        0.925     0.040     2.443     2.444
   105   1 H        0.925     0.035     2.522     2.483
   106   1 H        0.925     0.037     2.485     2.465
   107   1 H        0.925     0.037     2.487     2.466
   108   1 H        0.925     0.034     2.531     2.488
   109   1 H        0.925     0.040     2.447     2.446
   110   1 H        0.926     0.049     2.332     2.388
   111   1 H        0.926     0.048     2.339     2.391
   112   1 H        0.925     0.035     2.520     2.482
   113   1 H        0.925     0.040     2.443     2.444
   114   1 H        0.925     0.039     2.465     2.455
   115   1 H        0.925     0.034     2.537     2.491
   116   1 H        0.925     0.041     2.442     2.444
   117   1 H        0.925     0.038     2.477     2.461
   118   1 H        0.925     0.039     2.467     2.456
   119   1 H        0.925     0.038     2.477     2.461
   120   1 H        0.925     0.037     2.486     2.466
   121   1 H        0.926     0.040     2.447     2.446
   122   1 H        0.926     0.039     2.464     2.455
   123   1 H        0.926     0.038     2.470     2.458
   124   1 H        0.926     0.037     2.485     2.465
   125   1 H        0.926     0.050     2.322     2.383
   126   1 H        0.926     0.038     2.471     2.458
   127   1 H        0.926     0.039     2.463     2.454
   128   1 H        0.926     0.048     2.351     2.398
   129   1 H        0.926     0.048     2.341     2.393
   130   1 H        0.926     0.048     2.349     2.397
   131   1 H        0.926     0.039     2.464     2.455
   132   1 H        0.926     0.038     2.471     2.458
   133   1 H        0.926     0.050     2.323     2.383

molecular dipole:
                 x           y           z       tot (Debye)
 q only:        4.576      -7.854      -2.701
   full:        4.315      -7.357      -2.536      22.617

 projected vibrational frequencies (cm⁻¹)
eigval :       -0.00    -0.00    -0.00    -0.00     0.00     0.00
eigval :        6.17     8.56     9.97    10.45    12.07    14.50
eigval :       23.54    24.40    32.36    33.17    33.91    36.30
eigval :       37.65    37.81    50.34    61.01    62.62    63.79
eigval :       68.54    71.71    78.22    86.46    96.34   108.83
eigval :      117.11   119.41   123.42   127.33   134.33   142.28
eigval :      144.49   155.18   158.48   168.86   172.25   175.30
eigval :      183.57   185.46   195.35   197.30   200.56   205.07
eigval :      214.42   216.41   220.71   221.52   224.10   230.78
eigval :      231.68   236.50   242.02   256.42   258.31   272.33
eigval :      277.14   279.65   289.16   292.93   297.70   309.63
eigval :      316.69   320.37   321.41   322.33   326.18   329.41
eigval :      333.09   339.99   340.42   342.36   354.53   357.75
eigval :      358.03   361.13   366.58   367.20   378.91   380.59
eigval :      384.09   386.83   395.05   397.13   399.88   404.72
eigval :      406.71   407.15   415.87   425.26   432.98   441.00
eigval :      441.69   441.86   442.52   455.71   458.00   461.55
eigval :      465.34   465.60   476.88   485.24   495.11   500.86
eigval :      514.41   519.42   524.87   545.47   551.48   553.01
eigval :      572.62   583.88   584.53   585.97   586.88   591.21
eigval :      595.51   602.30   616.31   623.79   628.08   639.91
eigval :      641.13   642.67   642.71   650.74   658.76   664.00
eigval :      678.21   681.80   692.01   692.26   706.08   708.59
eigval :      710.95   716.58   718.55   728.23   735.02   740.68
eigval :      785.76   797.59   800.23   807.29   816.47   820.29
eigval :      828.49   829.56   829.78   833.92   835.88   841.66
eigval :      846.08   864.66   869.37   870.51   871.53   871.89
eigval :      872.06   872.89   881.16   882.48   883.98   885.84
eigval :      903.55   908.72   910.94   915.08   915.57   916.86
eigval :      919.52   920.29   920.77   924.05   925.00   929.16
eigval :      930.72   954.30   959.42   959.55   959.62   960.18
eigval :      961.52   961.88   961.97   962.66   963.05   963.30
eigval :      963.38   964.25   964.53   980.25   993.91  1023.70
eigval :     1030.24  1030.95  1033.64  1034.24  1034.40  1034.43
eigval :     1035.35  1036.49  1040.54  1041.08  1043.86  1063.01
eigval :     1069.18  1092.12  1102.39  1103.28  1104.92  1117.61
eigval :     1119.20  1123.77  1127.40  1128.00  1133.78  1137.23
eigval :     1162.63  1163.13  1163.79  1167.45  1171.20  1180.33
eigval :     1190.46  1193.04  1194.38  1214.86  1223.48  1223.51
eigval :     1223.91  1224.04  1225.66  1227.03  1227.08  1228.29
eigval :     1229.18  1229.35  1231.02  1233.14  1233.72  1236.41
eigval :     1247.31  1251.80  1260.04  1261.67  1261.89  1277.80
eigval :     1280.16  1289.67  1290.29  1294.62  1297.62  1310.87
eigval :     1322.77  1328.47  1328.90  1336.18  1337.59  1344.96
eigval :     1346.86  1350.53  1355.70  1381.44  1390.09  1393.85
eigval :     1399.82  1400.00  1401.93  1402.26  1402.79  1402.88
eigval :     1402.99  1403.42  1407.09  1408.27  1409.18  1423.47
eigval :     1424.26  1426.65  1426.92  1427.01  1427.21  1427.52
eigval :     1427.71  1431.64  1436.04  1451.12  1459.98  1462.40
eigval :     1463.53  1474.73  1474.97  1483.43  1487.95  1488.14
eigval :     1488.23  1488.41  1489.75  1490.13  1490.55  1490.70
eigval :     1496.38  1497.03  1497.14  1497.76  1501.17  1501.19
eigval :     1501.28  1501.46  1507.38  1511.00  1511.47  1511.73
eigval :     1512.41  1515.72  1516.98  1517.19  1517.59  1528.87
eigval :     1529.37  1532.04  1536.41  1560.09  1560.33  1569.10
eigval :     1571.39  1579.12  1579.18  1582.51  1591.43  1601.58
eigval :     3020.71  3020.87  3021.35  3021.57  3021.81  3022.05
eigval :     3022.10  3022.18  3024.97  3025.20  3025.27  3025.42
eigval :     3026.23  3026.29  3026.35  3026.60  3028.67  3028.96
eigval :     3029.07  3029.27  3031.63  3031.98  3032.00  3032.18
eigval :     3036.48  3036.82  3037.05  3037.11  3045.43  3045.84
eigval :     3045.87  3046.24  3048.70  3049.12  3049.31  3049.93
eigval :     3077.01  3079.27  3085.63  3085.99  3086.20  3087.31
eigval :     3087.79  3087.83  3090.98  3092.34  3095.09  3097.40
eigval :     3097.62  3097.94  3098.71  3098.82  3099.00  3099.61
eigval :     3101.07  3101.74  3103.08  3109.43  3111.53  3121.81
eigval :     3121.83  3124.21  3124.32

   temp. (K)  partition function   enthalpy   heat capacity  entropy
                                   cal/mol     cal/K/mol   cal/K/mol   J/K/mol
 298.15  VIB  0.971E+32            39783.728    242.629    248.736
         ROT  0.418E+09              888.752      2.981     42.429
         INT  0.406E+41            40672.480    245.610    291.165
         TR   0.278E+29             1481.254      4.968     46.371
         TOT                       42153.7340   250.5782   337.5358  1412.2499

       T/K    H(0)-H(T)+PV         H(T)/Eh          T*S/Eh         G(T)/Eh
   ------------------------------------------------------------------------
    298.15    0.671763E-01    0.114654E+01    0.160374E+00    0.986162E+00
   ------------------------------------------------------------------------

         :::::::::::::::::::::::::::::::::::::::::::::::::::::
         ::                  THERMODYNAMIC                  ::
         :::::::::::::::::::::::::::::::::::::::::::::::::::::
         :: total free energy        -188.490267049961 Eh   ::
         ::.................................................::
         :: total energy             -189.476429437329 Eh   ::
         :: zero point energy           1.079360300562 Eh   ::
         :: G(RRHO) w/o ZPVE           -0.093197913194 Eh   ::
         :: G(RRHO) contrib.            0.986162387368 Eh   ::
         :::::::::::::::::::::::::::::::::::::::::::::::::::::

           -------------------------------------------------
          | TOTAL ENERGY             -189.476429437329 Eh   |
          | TOTAL ENTHALPY           -188.329892885742 Eh   |
          | TOTAL FREE ENERGY        -188.490267049961 Eh   |
          | GRADIENT NORM               0.000054774388 Eh/α |
          | HOMO-LUMO GAP               0.189317653948 eV   |
           -------------------------------------------------

 * finished run on 2025/07/20 at 18:10:41.914
