   * xtb version 6.7.1 (edcfbbe) compiled by 'albert@albert-system' on 2024-07-22

   ID    Z sym.   atoms
    1    6 C      1-20, 22-30, 32-54, 56-59, 63-70
    2    7 N      21, 31, 55
    3   16 S      60
    4    8 O      61, 62
    5    1 H      71-133

          program call               : xtb data2507/toluene/t3Cz-SO/t3Cz-SO_toluene_S0_finalOpt.xtbopt.xyz --gfn 2 --uhf 2 --gbsa toluene --ohess vtight --parallel 40 --molden --ceasefiles --namespace data2507/toluene/t3Cz-SO/t3Cz-SO_toluene_T1_preOpt
      * Solvation model:               GBSA
        Solvent                        toluene
        Solvent mass                       9.2140E+01 g/mol
          :  Hamiltonian                  GFN2-xTB          :
 * total energy  :  -189.4720692 Eh     change       -0.5675787E-08 Eh
 * total energy  :  -189.4742565 Eh     change       -0.2187323E-02 Eh
 * total energy  :  -189.4749205 Eh     change       -0.6639713E-03 Eh
 * total energy  :  -189.4750142 Eh     change       -0.9373315E-04 Eh
 * total energy  :  -189.4750835 Eh     change       -0.6928200E-04 Eh
 * total energy  :  -189.4751150 Eh     change       -0.3150754E-04 Eh
 * total energy  :  -189.4751605 Eh     change       -0.4551935E-04 Eh
 * total energy  :  -189.4751967 Eh     change       -0.3619282E-04 Eh
 * total energy  :  -189.4752374 Eh     change       -0.4067456E-04 Eh
 * total energy  :  -189.4752846 Eh     change       -0.4720821E-04 Eh
 * total energy  :  -189.4764107 Eh     change       -0.5446854E-06 Eh
 * total energy  :  -189.4764113 Eh     change       -0.5662952E-06 Eh
 * total energy  :  -189.4764119 Eh     change       -0.6687527E-06 Eh
 * total energy  :  -189.4764127 Eh     change       -0.7544386E-06 Eh
 * total energy  :  -189.4764129 Eh     change       -0.2739779E-06 Eh
 * total energy  :  -189.4764133 Eh     change       -0.3922513E-06 Eh
 * total energy  :  -189.4764131 Eh     change        0.2418087E-06 Eh
 * total energy  :  -189.4764135 Eh     change       -0.3888796E-06 Eh
 * total energy  :  -189.4764136 Eh     change       -0.9670364E-07 Eh
   *** GEOMETRY OPTIMIZATION CONVERGED AFTER 98 ITERATIONS ***

 final structure:
================
133
 xtb: 6.7.1 (edcfbbe)
C            0.11234060929847       -9.14717245800225        1.74675314873351
C            0.59801557537333       -7.81052775661630        2.31585317386575
C            2.10025745980575       -7.68484214990612        2.01925124827372
C            0.36723110333624       -7.82467423267755        3.83483398280182
C           -0.13032948324162       -6.61868186872778        1.71337134936100
C            0.22589687092096       -5.32689614570725        2.12301321023361
C           -0.37399913862280       -4.18817387736478        1.62291405337165
C           -1.36350530377636       -4.34086222956162        0.66155920329202
C           -1.76630189932133       -5.63274779857829        0.25941810270375
C           -1.15021906740180       -6.75971431080436        0.77978478135886
C           -2.84130864252804       -5.44794749198714       -0.68272230615668
C           -3.60594781569900       -6.33338725943656       -1.42529458660951
C           -4.57178973089585       -5.84636841773020       -2.29791860956401
C           -5.45120755103081       -6.75967922269086       -3.13829362692039
C           -6.92590712995946       -6.48201302062099       -2.80865879684687
C           -5.17804775173477       -8.24430841851622       -2.87786341018066
C           -5.18895556812087       -6.47831876459326       -4.62579326541165
C           -4.72554880136068       -4.45863162492470       -2.41548638705260
C           -3.97660141820885       -3.55494318381374       -1.68811311424976
C           -3.03874443844605       -4.05410927214167       -0.79489396663822
N           -2.13905093529235       -3.39356310166141        0.02017581931249
C           -2.01446816189915       -2.01246878916376        0.16442076038612
C           -3.16593796883830       -1.22447246584669        0.33973439047376
C           -3.07031533914351        0.15097835011507        0.50220275956549
C           -1.81573630015166        0.73283739539216        0.48059506835069
C           -0.64084896494270       -0.05251441790484        0.25785582096410
C           -0.74887102446176       -1.43365834315818        0.11902581143403
C            0.45482415898067        0.85085445116251        0.22625386253282
C            1.82786016478643        0.68917938400704        0.05988091362752
C            2.64662467809559        1.81290490635458        0.13788787363818
N            4.02421594772241        1.66577692869046       -0.01467774212367
C            4.84925037019390        2.45186867221361       -0.79581918958665
C            4.54415094729433        3.50877381223440       -1.64204982550249
C            5.57783817695306        4.09815909562076       -2.34266938345376
C            6.90778082053076        3.66775555631410       -2.24515549923912
C            7.97722786438627        4.38665905642347       -3.05332791181083
C            9.37492526219980        3.79859761189025       -2.83607838963619
C            7.63911815373398        4.27472577092647       -4.54794728462782
C            8.01198170559127        5.86532446233022       -2.63753457472667
C            7.19531289460258        2.58737170286481       -1.41941516882119
C            6.17710121837887        1.98063192292364       -0.70188625760021
C            6.14705465997720        0.85481697167537        0.19781534779900
C            7.13177676982533        0.01440485966589        0.69223187582006
C            6.79354620225249       -0.98878009215174        1.59283829043803
C            7.82023912321986       -1.95275135191447        2.16785825885937
C            7.40658922038889       -3.39228622951839        1.82556053194055
C            7.87494979004339       -1.77635081520997        3.69315709352284
C            9.22701367639593       -1.71790940491532        1.60924173886457
C            5.45634301935115       -1.10124875030195        1.99602034055015
C            4.45676215414465       -0.27571757162860        1.52075346548056
C            4.80096900212355        0.69725066472679        0.59267446134286
C            2.10747918064901        3.08839078897814        0.38242930466363
C            0.73946384623330        3.26469463701322        0.53944900259181
C           -0.08404075645648        2.15775780072318        0.44289680031785
N           -1.45320348881939        2.06014718093939        0.58408974625577
C           -2.32306217675799        3.12832186316962        0.78858398497325
C           -3.30622932348986        3.06418262323078        1.79652765534372
C           -4.15207535497778        4.12240285094172        2.00372232950844
C           -4.04066676221699        5.27329311626631        1.21547300556867
S           -5.24066955889904        6.55549092796411        1.37094184043154
O           -5.72580952452267        6.59737314264814        2.74257838258689
O           -4.69212153390005        7.79308191667273        0.83673702160794
C           -6.56787734838225        6.01237253112273        0.31384450913775
C           -6.54232784022350        6.33533823602049       -1.03641357090992
C           -7.50698325753851        5.81519337935929       -1.87713343464421
C           -8.48525493928031        4.96543485507832       -1.37369361262745
C           -8.50037005892192        4.64281227655388       -0.02168732068797
C           -7.53917830380893        5.16107620351209        0.82410809578845
C           -3.07867768243385        5.34085299053540        0.20212230772322
C           -2.22217224979764        4.29024171317832       -0.00240916980940
H            0.26384914369964       -9.19275465546726        0.67057630027901
H            0.67764788554007       -9.95938825659077        2.19945420311296
H           -0.94007326286008       -9.30925005471888        1.96837359514177
H            2.27027015193177       -7.65050008938678        0.94484975334949
H            2.52023933481915       -6.78518274521640        2.45998074019333
H            2.63283334565300       -8.54223626038651        2.42529226704107
H            0.86404490085716       -8.68423284254486        4.27997216888492
H           -0.69690571564976       -7.89001591082785        4.05377587900906
H            0.75684639254788       -6.92601156720518        4.30498965534271
H            0.99730010125612       -5.20238917881194        2.86698751881644
H           -0.08660537797471       -3.21273701653360        1.98413132704397
H           -1.48108783516785       -7.73007444471039        0.45078503072840
H           -3.42903230886398       -7.38976632510064       -1.31497657159266
H           -7.56813762374679       -7.14359403669007       -3.38625772294067
H           -7.11458274803984       -6.65534943732025       -1.75084087079136
H           -7.20083281221677       -5.45676754763991       -3.04009099593332
H           -4.15460679092527       -8.50651366086558       -3.13619529853462
H           -5.36254002506134       -8.49943526172715       -1.83670834906317
H           -5.84265749380670       -8.84733572093769       -3.49336570897666
H           -5.43297303659989       -5.45195932656891       -4.88564249364092
H           -4.14066883149820       -6.65007717034477       -4.86271920874844
H           -5.79494494996308       -7.13842202001221       -5.24287547674631
H           -5.45505390179757       -4.06420081149650       -3.10567594920053
H           -4.11393839711983       -2.49379049618397       -1.82675068363635
H           -4.13026608823774       -1.70319400903638        0.38950152409902
H           -3.96090025499969        0.74283370627513        0.64273110851555
H            0.12281708398120       -2.03848926739109       -0.07337923389522
H            2.24673643060747       -0.27875917706896       -0.16442117669884
H            3.53027467079969        3.85774581490910       -1.76318966539714
H            5.33550308372391        4.92315485008501       -2.99450337032843
H            9.41573841698990        2.75806451780801       -3.15013206046295
H            9.67262347418483        3.87116118023869       -1.79245399169418
H           10.09708473465795        4.35554363621190       -3.42972533477938
H            8.41120312730112        4.75935341239070       -5.14186574527971
H            7.58122783177405        3.22899040603634       -4.84385827021027
H            6.68808879522767        4.74701532535632       -4.77789887929150
H            7.06122840600037        6.35550837257448       -2.82787188663265
H            8.23456342125894        5.95352525915264       -1.57578961463216
H            8.78308294439926        6.39173207865890       -3.19611957881154
H            8.19627506288004        2.20176163106821       -1.32612191296696
H            8.14874385967232        0.16204604937577        0.37081975967332
H            7.34265998661525       -3.51907817116651        0.74655551178568
H            8.14345619859837       -4.09317752974551        2.21202688906606
H            6.44154397487300       -3.64344464896254        2.25634327589413
H            8.14776317826246       -0.75324305583725        3.94484986723491
H            8.61854857206977       -2.44618683355614        4.11997573943385
H            6.91567427740193       -1.99560310743556        4.15371346992129
H            9.91330461522271       -2.44337425778731        2.04157065687545
H            9.24489297029464       -1.84243174742475        0.52883413344662
H            9.58946412226118       -0.72413022600433        1.86214864165283
H            5.18296155536968       -1.85744044739577        2.71538340129639
H            3.44356654934028       -0.37852974646796        1.87769560206388
H            2.77320945484868        3.92830180379917        0.49761842943219
H            0.33967441862439        4.24121184451183        0.76484799746500
H           -3.35839187342912        2.19099055544673        2.42887739344017
H           -4.89347847216920        4.10983422920025        2.78711710135329
H           -5.77534922605120        7.00598092752940       -1.39214093792309
H           -7.50066237836391        6.07070152784960       -2.92640890953868
H           -9.23773827740620        4.55989456110418       -2.03278707546903
H           -9.26460727852989        3.98767446022780        0.36957743131830
H           -7.52959680320538        4.94213841301449        1.88077698214487
H           -3.02633124350561        6.23959280839777       -0.39216426465908
H           -1.48866949675913        4.32894586138398       -0.79330440779433

          :  Hamiltonian                  GFN2-xTB          :
         :: gradient norm              0.000078638472 Eh/a0 ::
         :: HOMO-LUMO gap              0.186999632888 eV    ::
         :: SCC energy              -192.685592543311 Eh    ::
         :: -> dispersion             -0.174950774496 Eh    ::
         :: -> Gsolv                  -0.089637916956 Eh    ::
         :: repulsion energy           3.209178924092 Eh    ::

    * Orbital Energies and Occupations

         #    Occupation            Energy/Eh            Energy/eV
      -------------------------------------------------------------
         1        2.0000           -0.7548498             -20.5405
       ...           ...                  ...                  ...
       165        2.0000           -0.4119192             -11.2089
       166        2.0000           -0.4104408             -11.1687
       167        2.0000           -0.4079077             -11.0997
       168        2.0000           -0.4043725             -11.0035
       169        2.0000           -0.4042588             -11.0004
       170        2.0000           -0.3916166             -10.6564
       171        2.0000           -0.3854386             -10.4883
       172        2.0000           -0.3822541             -10.4017
       173        2.0000           -0.3821043             -10.3976
       174        2.0000           -0.3798072             -10.3351
       175        1.9858           -0.3644659              -9.9176
       176        1.0142           -0.3564108              -9.6984
       177        0.9728           -0.2595257              -7.0621 (HOMO)
       178        0.0252           -0.2526536              -6.8751 (LUMO)
       179        0.0016           -0.2499838              -6.8024
       180        0.0005           -0.2488431              -6.7714
       181                         -0.2352100              -6.4004
       182                         -0.2345496              -6.3824
       183                         -0.2298827              -6.2554
       184                         -0.2280523              -6.2056
       185                         -0.2271456              -6.1809
       186                         -0.2270326              -6.1779
       187                         -0.2139369              -5.8215
       188                         -0.2027914              -5.5182
       ...                                ...                  ...
       348                          1.1499045              31.2905
      -------------------------------------------------------------
                  HL-Gap            0.0068721 Eh            0.1870 eV

     #   Z          covCN         q      C6AA      α(0)
     1   6 C        3.761    -0.109    22.626     6.781
     2   6 C        3.902     0.026    20.076     6.369
     3   6 C        3.761    -0.106    22.581     6.774
     4   6 C        3.761    -0.106    22.572     6.773
     5   6 C        2.972     0.008    27.843     8.655
     6   6 C        2.930    -0.038    28.944     8.823
     7   6 C        2.908    -0.046    29.150     8.853
     8   6 C        3.076     0.043    26.958     8.513
     9   6 C        3.063    -0.014    28.308     8.725
    10   6 C        2.917    -0.041    29.008     8.832
    11   6 C        3.064    -0.015    28.312     8.725
    12   6 C        2.917    -0.041    29.012     8.833
    13   6 C        2.972     0.008    27.845     8.656
    14   6 C        3.902     0.026    20.077     6.369
    15   6 C        3.761    -0.106    22.574     6.773
    16   6 C        3.761    -0.109    22.627     6.781
    17   6 C        3.761    -0.106    22.572     6.773
    18   6 C        2.930    -0.038    28.941     8.823
    19   6 C        2.908    -0.046    29.151     8.853
    20   6 C        3.074     0.043    26.955     8.512
    21   7 N        2.802    -0.014    21.516     6.889
    22   6 C        2.910     0.058    26.692     8.472
    23   6 C        2.922    -0.064    29.589     8.920
    24   6 C        2.907    -0.046    29.132     8.850
    25   6 C        3.066     0.037    27.111     8.538
    26   6 C        3.059    -0.021    28.460     8.749
    27   6 C        2.912    -0.052    29.294     8.875
    28   6 C        3.058    -0.021    28.468     8.750
    29   6 C        2.912    -0.052    29.295     8.875
    30   6 C        2.910     0.058    26.692     8.472
    31   7 N        2.802    -0.014    21.516     6.889
    32   6 C        3.075     0.043    26.953     8.512
    33   6 C        2.908    -0.046    29.148     8.853
    34   6 C        2.930    -0.038    28.938     8.822
    35   6 C        2.972     0.008    27.845     8.656
    36   6 C        3.902     0.026    20.077     6.369
    37   6 C        3.761    -0.109    22.628     6.781
    38   6 C        3.761    -0.106    22.573     6.773
    39   6 C        3.761    -0.106    22.570     6.772
    40   6 C        2.917    -0.041    29.012     8.833
    41   6 C        3.064    -0.015    28.311     8.725
    42   6 C        3.063    -0.014    28.306     8.725
    43   6 C        2.917    -0.041    29.007     8.832
    44   6 C        2.972     0.008    27.841     8.655
    45   6 C        3.902     0.026    20.076     6.369
    46   6 C        3.761    -0.107    22.583     6.774
    47   6 C        3.761    -0.106    22.573     6.773
    48   6 C        3.761    -0.109    22.626     6.781
    49   6 C        2.930    -0.038    28.941     8.823
    50   6 C        2.908    -0.046    29.151     8.853
    51   6 C        3.077     0.043    26.958     8.513
    52   6 C        2.922    -0.063    29.579     8.919
    53   6 C        2.907    -0.045    29.123     8.849
    54   6 C        3.067     0.037    27.106     8.537
    55   7 N        2.796     0.001    21.245     6.846
    56   6 C        2.911     0.036    27.184     8.549
    57   6 C        2.917    -0.045    29.107     8.847
    58   6 C        2.956    -0.036    28.900     8.817
    59   6 C        2.967    -0.098    30.453     9.052
    60  16 S        3.831     0.878   110.223    17.670
    61   8 O        0.860    -0.593    25.958     6.831
    62   8 O        0.860    -0.593    25.938     6.828
    63   6 C        2.969    -0.080    29.990     8.983
    64   6 C        2.957    -0.033    28.812     8.804
    65   6 C        2.919    -0.028    28.704     8.786
    66   6 C        2.919    -0.036    28.897     8.815
    67   6 C        2.919    -0.028    28.705     8.786
    68   6 C        2.958    -0.033    28.815     8.805
    69   6 C        2.955    -0.036    28.895     8.817
    70   6 C        2.918    -0.044    29.105     8.847
    71   1 H        0.925     0.038     2.478     2.462
    72   1 H        0.925     0.039     2.468     2.457
    73   1 H        0.925     0.037     2.485     2.465
    74   1 H        0.925     0.035     2.520     2.482
    75   1 H        0.925     0.039     2.468     2.456
    76   1 H        0.925     0.040     2.445     2.445
    77   1 H        0.925     0.040     2.444     2.445
    78   1 H        0.925     0.034     2.536     2.490
    79   1 H        0.925     0.038     2.479     2.462
    80   1 H        0.926     0.040     2.452     2.448
    81   1 H        0.926     0.039     2.468     2.457
    82   1 H        0.926     0.048     2.340     2.392
    83   1 H        0.926     0.049     2.336     2.390
    84   1 H        0.925     0.040     2.448     2.447
    85   1 H        0.925     0.034     2.529     2.487
    86   1 H        0.925     0.037     2.483     2.464
    87   1 H        0.925     0.038     2.474     2.460
    88   1 H        0.925     0.038     2.478     2.462
    89   1 H        0.925     0.039     2.468     2.457
    90   1 H        0.925     0.037     2.483     2.464
    91   1 H        0.925     0.034     2.524     2.485
    92   1 H        0.925     0.040     2.443     2.444
    93   1 H        0.926     0.039     2.469     2.457
    94   1 H        0.926     0.038     2.474     2.460
    95   1 H        0.926     0.039     2.456     2.451
    96   1 H        0.926     0.038     2.472     2.459
    97   1 H        0.926     0.046     2.376     2.410
    98   1 H        0.926     0.046     2.370     2.408
    99   1 H        0.926     0.038     2.482     2.464
   100   1 H        0.926     0.038     2.472     2.459
   101   1 H        0.925     0.038     2.471     2.458
   102   1 H        0.925     0.038     2.477     2.461
   103   1 H        0.925     0.039     2.466     2.456
   104   1 H        0.925     0.040     2.443     2.444
   105   1 H        0.925     0.035     2.522     2.484
   106   1 H        0.925     0.037     2.485     2.465
   107   1 H        0.925     0.037     2.488     2.467
   108   1 H        0.925     0.034     2.530     2.488
   109   1 H        0.925     0.040     2.446     2.446
   110   1 H        0.926     0.049     2.332     2.388
   111   1 H        0.926     0.048     2.339     2.392
   112   1 H        0.925     0.035     2.519     2.482
   113   1 H        0.925     0.040     2.443     2.444
   114   1 H        0.925     0.039     2.465     2.455
   115   1 H        0.925     0.034     2.537     2.491
   116   1 H        0.925     0.041     2.442     2.444
   117   1 H        0.925     0.038     2.477     2.461
   118   1 H        0.925     0.039     2.467     2.456
   119   1 H        0.925     0.038     2.477     2.461
   120   1 H        0.925     0.037     2.486     2.466
   121   1 H        0.926     0.040     2.446     2.446
   122   1 H        0.926     0.039     2.464     2.455
   123   1 H        0.926     0.038     2.470     2.457
   124   1 H        0.926     0.037     2.487     2.466
   125   1 H        0.926     0.050     2.322     2.383
   126   1 H        0.926     0.038     2.475     2.460
   127   1 H        0.926     0.039     2.466     2.456
   128   1 H        0.926     0.047     2.352     2.398
   129   1 H        0.926     0.048     2.342     2.393
   130   1 H        0.926     0.048     2.350     2.397
   131   1 H        0.926     0.039     2.466     2.456
   132   1 H        0.926     0.039     2.467     2.456
   133   1 H        0.926     0.050     2.325     2.384

molecular dipole:
                 x           y           z       tot (Debye)
 q only:        4.952      -7.824      -2.265
   full:        4.670      -7.326      -2.128      22.734

 projected vibrational frequencies (cm⁻¹)
eigval :       -0.00    -0.00    -0.00    -0.00     0.00     0.00
eigval :        8.43     9.12    10.28    10.79    11.83    15.21
eigval :       23.75    23.95    29.55    30.64    31.72    34.20
eigval :       35.90    36.67    48.39    61.04    62.74    63.90
eigval :       68.79    72.36    78.36    87.09    96.35   109.24
eigval :      118.15   119.28   122.92   126.59   133.85   142.71
eigval :      145.18   157.79   159.00   171.15   172.34   175.60
eigval :      183.07   185.44   196.26   199.52   201.23   204.89
eigval :      214.99   218.20   221.54   222.36   224.71   230.33
eigval :      231.72   236.43   241.88   258.10   258.49   271.85
eigval :      276.78   279.24   289.09   293.55   297.12   308.41
eigval :      314.28   318.16   318.93   320.62   322.48   326.85
eigval :      332.40   338.22   340.03   342.52   353.78   357.50
eigval :      357.59   359.95   366.66   367.25   378.23   381.37
eigval :      382.65   385.25   395.03   396.58   399.69   405.17
eigval :      406.60   407.53   415.47   425.96   433.10   441.03
eigval :      441.78   442.10   442.85   455.48   458.14   461.81
eigval :      464.98   465.47   476.56   485.03   495.38   500.11
eigval :      514.08   519.00   524.96   545.34   550.60   552.49
eigval :      572.70   584.13   584.47   585.84   586.71   591.11
eigval :      595.58   601.76   616.18   624.11   627.92   639.63
eigval :      642.07   642.52   642.93   650.86   658.23   662.88
eigval :      675.79   681.52   691.66   692.19   706.06   708.61
eigval :      711.00   716.56   718.58   728.29   734.90   740.40
eigval :      786.44   796.62   799.09   807.00   818.60   819.75
eigval :      828.81   829.46   829.72   833.97   838.98   842.40
eigval :      846.54   869.12   871.29   871.67   871.91   872.14
eigval :      872.98   875.10   881.50   882.77   883.94   886.61
eigval :      903.33   908.58   911.50   915.71   916.36   917.76
eigval :      918.55   919.74   920.12   923.84   924.95   929.15
eigval :      930.66   954.15   958.54   958.64   959.12   959.61
eigval :      961.17   961.89   962.32   962.54   962.72   962.73
eigval :      963.40   963.69   965.20   981.12   993.30  1024.00
eigval :     1030.06  1030.48  1033.23  1033.72  1033.91  1034.47
eigval :     1035.15  1035.56  1040.41  1040.58  1043.86  1063.36
eigval :     1068.77  1090.50  1101.62  1103.46  1106.10  1117.32
eigval :     1118.52  1122.43  1127.28  1127.96  1134.00  1136.15
eigval :     1162.70  1163.41  1163.75  1166.90  1172.65  1179.99
eigval :     1189.51  1193.58  1194.67  1215.56  1222.95  1223.17
eigval :     1223.32  1223.46  1225.50  1226.29  1227.14  1228.10
eigval :     1228.97  1229.29  1230.70  1231.93  1233.59  1235.45
eigval :     1248.51  1252.56  1259.08  1260.92  1261.60  1277.72
eigval :     1280.12  1289.56  1290.40  1294.48  1297.48  1310.56
eigval :     1322.94  1328.62  1329.10  1336.10  1337.56  1345.07
eigval :     1346.69  1350.46  1355.17  1381.47  1389.54  1393.80
eigval :     1400.02  1400.28  1402.20  1402.42  1402.60  1402.85
eigval :     1403.03  1403.37  1406.92  1408.38  1409.16  1423.23
eigval :     1424.74  1426.29  1426.42  1426.75  1426.88  1427.01
eigval :     1427.40  1431.68  1435.84  1450.89  1459.12  1462.40
eigval :     1463.00  1474.72  1474.96  1482.61  1487.87  1488.26
eigval :     1488.31  1488.47  1489.94  1490.37  1490.68  1490.69
eigval :     1496.27  1496.71  1496.98  1497.10  1500.39  1501.37
eigval :     1501.47  1501.85  1507.41  1510.87  1511.80  1512.17
eigval :     1512.44  1515.31  1515.54  1516.46  1517.07  1528.87
eigval :     1529.50  1531.73  1536.69  1560.08  1560.39  1569.21
eigval :     1571.47  1579.00  1579.17  1582.61  1591.26  1601.56
eigval :     3020.83  3020.83  3021.35  3021.77  3021.83  3021.98
eigval :     3022.10  3022.27  3025.08  3025.11  3025.23  3025.43
eigval :     3026.30  3026.35  3026.50  3026.64  3028.73  3028.97
eigval :     3029.02  3029.15  3031.89  3032.04  3032.06  3032.18
eigval :     3036.89  3036.95  3037.04  3037.10  3045.09  3045.43
eigval :     3045.49  3045.92  3048.43  3048.71  3049.11  3049.60
eigval :     3077.63  3079.70  3084.43  3086.39  3086.45  3086.53
eigval :     3087.77  3088.03  3090.86  3092.47  3094.58  3097.42
eigval :     3097.78  3098.11  3098.70  3098.72  3099.17  3099.44
eigval :     3099.64  3101.28  3103.05  3108.77  3111.79  3121.22
eigval :     3121.86  3123.92  3124.32

   temp. (K)  partition function   enthalpy   heat capacity  entropy
                                   cal/mol     cal/K/mol   cal/K/mol   J/K/mol
 298.15  VIB  0.874E+32            39799.830    242.438    248.331
         ROT  0.416E+09              888.752      2.981     42.421
         INT  0.364E+41            40688.582    245.419    290.752
         TR   0.278E+29             1481.254      4.968     46.371
         TOT                       42169.8362   250.3872   337.1226  1410.5209

       T/K    H(0)-H(T)+PV         H(T)/Eh          T*S/Eh         G(T)/Eh
   ------------------------------------------------------------------------
    298.15    0.672019E-01    0.114647E+01    0.160178E+00    0.986297E+00
   ------------------------------------------------------------------------

         :::::::::::::::::::::::::::::::::::::::::::::::::::::
         ::                  THERMODYNAMIC                  ::
         :::::::::::::::::::::::::::::::::::::::::::::::::::::
         :: total free energy        -188.490116780628 Eh   ::
         ::.................................................::
         :: total energy             -189.476413624138 Eh   ::
         :: zero point energy           1.079272753597 Eh   ::
         :: G(RRHO) w/o ZPVE           -0.092975910086 Eh   ::
         :: G(RRHO) contrib.            0.986296843510 Eh   ::
         :::::::::::::::::::::::::::::::::::::::::::::::::::::

           -------------------------------------------------
          | TOTAL ENERGY             -189.476413624138 Eh   |
          | TOTAL ENTHALPY           -188.329938958947 Eh   |
          | TOTAL FREE ENERGY        -188.490116780628 Eh   |
          | GRADIENT NORM               0.000076796979 Eh/α |
          | HOMO-LUMO GAP               0.186999716647 eV   |
           -------------------------------------------------

 * finished run on 2025/07/20 at 17:13:05.560
