   * xtb version 6.7.1 (edcfbbe) compiled by 'albert@albert-system' on 2024-07-22

   ID    Z sym.   atoms
    1    6 C      1-7, 9, 11-23, 25-36, 38-48
    2    7 N      8, 10, 24, 37
    3    1 H      49-80

          program call               : xtb data2507/gas/2DPA-DPQ/2DPA-DPQ.xyz --gfn 2 --ohess vtight --parallel 40 --molden --ceasefiles --namespace data2507/gas/2DPA-DPQ/2DPA-DPQ_gas_S0_preOpt
          :  Hamiltonian                  GFN2-xTB          :
 * total energy  :  -122.2087474 Eh     change       -0.2403993E-08 Eh
 * total energy  :  -122.2282865 Eh     change       -0.1953908E-01 Eh
 * total energy  :  -122.2367592 Eh     change       -0.8472757E-02 Eh
 * total energy  :  -122.2398295 Eh     change       -0.3070250E-02 Eh
 * total energy  :  -122.2416854 Eh     change       -0.1855925E-02 Eh
 * total energy  :  -122.2424155 Eh     change       -0.7300895E-03 Eh
 * total energy  :  -122.2428848 Eh     change       -0.4692832E-03 Eh
 * total energy  :  -122.2433719 Eh     change       -0.4871000E-03 Eh
 * total energy  :  -122.2438873 Eh     change       -0.5154868E-03 Eh
 * total energy  :  -122.2443640 Eh     change       -0.4766296E-03 Eh
 * total energy  :  -122.2481481 Eh     change       -0.1136096E-05 Eh
 * total energy  :  -122.2481486 Eh     change       -0.5191910E-06 Eh
 * total energy  :  -122.2481490 Eh     change       -0.4045391E-06 Eh
 * total energy  :  -122.2481493 Eh     change       -0.3464306E-06 Eh
 * total energy  :  -122.2481496 Eh     change       -0.2403488E-06 Eh
 * total energy  :  -122.2481498 Eh     change       -0.1703415E-06 Eh
 * total energy  :  -122.2481499 Eh     change       -0.1473877E-06 Eh
 * total energy  :  -122.2481500 Eh     change       -0.1053370E-06 Eh
 * total energy  :  -122.2481501 Eh     change       -0.5906469E-07 Eh
   *** GEOMETRY OPTIMIZATION CONVERGED AFTER 55 ITERATIONS ***

 final structure:
================
80
 xtb: 6.7.1 (edcfbbe)
C            7.23362988338969       -2.92991723128256       -0.01888639280042
C            6.27228791203282       -3.17862033335258       -0.98374534151819
C            5.09268422994227       -2.45733080651154       -0.99080459807567
C            4.86240500569783       -1.46882655343212       -0.03815246682940
C            3.60010867380712       -0.70886574480750       -0.04656655009292
C            2.40688556948445       -1.39210722756952       -0.11435139001430
C            1.18613792708370       -0.70461807952539       -0.07435446773680
N            0.02070373607856       -1.36833767425941       -0.22430546532880
C           -1.10609384796862       -0.70498361468557       -0.16416981391147
N           -2.26006056248267       -1.42046354324014       -0.43384768624091
C           -2.24699161674544       -2.81743028029494       -0.23961119088151
C           -2.76736267822975       -3.66912118309653       -1.20934348707960
C           -2.77549140450775       -5.03559015200320       -1.00209267384567
C           -2.25816268702593       -5.56965244306860        0.16570677450428
C           -1.72904066459348       -4.72480346598788        1.12715529542537
C           -1.72436757809095       -3.35747809287079        0.93103905513558
C           -3.32300693258715       -0.84302392124579       -1.13986450896911
C           -3.09502885134074        0.16140511660293       -2.07723249713926
C           -4.15522590289504        0.74506591547078       -2.74412639413759
C           -5.44995550356914        0.31623037514696       -2.50824839135044
C           -5.67834549478086       -0.70587275623005       -1.60046365145438
C           -4.62765321607293       -1.28045165789724       -0.91482823836464
C           -1.10608939920069        0.70499558616599        0.16415946831472
N           -2.26005668552181        1.42049427797599        0.43379127161268
C           -2.24696133281129        2.81745867086897        0.23954410256538
C           -1.72425322010701        3.35749158901834       -0.93107613489741
C           -1.72887355509528        4.72481680020053       -1.12719326455814
C           -2.25802909403168        5.56968208765938       -0.16577741708086
C           -2.77544812334306        5.03563476077508        1.00198870470607
C           -2.76737226176561        3.66916547846843        1.20924102614375
C           -3.32303020497661        0.84306920888954        1.13977887973822
C           -3.09508699035502       -0.16135416552744        2.07716153886723
C           -4.15530812734724       -0.74500738565668        2.74402348040033
C           -5.45002834677984       -0.31616921230695        2.50809865982498
C           -5.67838424367955        0.70592868389937        1.60029944649244
C           -4.62766704726990        1.28050029661875        0.91469592467281
N            0.02071577108571        1.36833218586386        0.22433808838713
C            1.18614538865156        0.70459648237230        0.07442461347800
C            2.40689997754249        1.39207123564451        0.11445521376193
C            3.60011634232897        0.70881597600493        0.04669675673731
C            4.86242073052116        1.46876395315460        0.03830034732813
C            5.09269710040767        2.45726722113070        0.99095373690030
C            6.27230572948537        3.17854872677121        0.98390498735095
C            7.23365733366742        2.92983517454193        0.01905850065076
C            7.00623444317267        1.95944303335623       -0.94268225646309
C            5.83069570939843        1.23299506410660       -0.93430670396628
C            5.83067146843113       -1.23306644910654        0.93446537090468
C            7.00620308831474       -1.95952578724061        0.94285443483595
H            8.15577137225895       -3.49227473892624       -0.01458019756259
H            6.44287101110267       -3.93671991009586       -1.73455115770948
H            4.34732353519907       -2.64429266744041       -1.75073231609958
H            2.38602293655532       -2.46894994375047       -0.18603618097657
H           -3.16066994321585       -3.25705060833664       -2.12711950786223
H           -3.18081413622786       -5.68661074105789       -1.76273661909861
H           -2.26290330860913       -6.63761915494821        0.32372321408433
H           -1.32103093530897       -5.13323084472238        2.04000895797679
H           -1.30855331802822       -2.70609793039646        1.68341730124070
H           -2.08252669011259        0.47146382794971       -2.29073127150121
H           -3.96559781663821        1.53099653263164       -3.46027494383351
H           -6.27603940078134        0.77039172065022       -3.03399845846827
H           -6.68481073737672       -1.05054860148948       -1.41596835957990
H           -4.80677777358151       -2.06172781175490       -0.19168866196373
H           -1.30840339069771        2.70610072293659       -1.68342539431656
H           -1.32082086492400        5.13322937872543       -2.04003435462384
H           -2.26276887756633        6.63764563410846       -0.32381409869134
H           -3.18082668128973        5.68666522186750        1.76259423540073
H           -3.16073961895930        3.25710883698940        2.12699757229433
H           -2.08259294312250       -0.47141783490757        2.29069236365442
H           -3.96570742038155       -1.53093829027824        3.46017894474742
H           -6.27613152680665       -0.77032514883240        3.03382310906871
H           -6.68484145204882        1.05061144445682        1.41577352707477
H           -4.80676393306427        2.06177702734174        0.19155011192726
H            2.38604742909697        2.46891418034370        0.18613940307079
H            4.34733445783957        2.64422813410952        1.75087999189613
H            6.44289380678800        3.93663669398649        1.73472171841060
H            8.15580352631125        3.49218502043811        0.01476231898727
H            7.74899702643908        1.76751052322899       -1.70327242779661
H            5.65354026891177        0.48437951170271       -1.69249525867312
H            5.65351877365285       -0.48444316108521        1.69264669475628
H            7.74896517731781       -1.76759016293869        1.70344404817365

          :  Hamiltonian                  GFN2-xTB          :
         :: gradient norm              0.000019897042 Eh/a0 ::
         :: HOMO-LUMO gap              1.869006507883 eV    ::
         :: SCC energy              -124.532691590464 Eh    ::
         :: -> dispersion             -0.123017047927 Eh    ::
         :: repulsion energy           2.284541521127 Eh    ::

    * Orbital Energies and Occupations

         #    Occupation            Energy/Eh            Energy/eV
      -------------------------------------------------------------
         1        2.0000           -0.6801570             -18.5080
       ...           ...                  ...                  ...
       102        2.0000           -0.4090392             -11.1305
       103        2.0000           -0.4078787             -11.0989
       104        2.0000           -0.4055605             -11.0359
       105        2.0000           -0.4045730             -11.0090
       106        2.0000           -0.4045706             -11.0089
       107        2.0000           -0.4005648             -10.8999
       108        2.0000           -0.3995997             -10.8737
       109        2.0000           -0.3986552             -10.8480
       110        2.0000           -0.3880324             -10.5589
       111        2.0000           -0.3839418             -10.4476
       112        2.0000           -0.3663195              -9.9681
       113        2.0000           -0.3532181              -9.6116
       114        2.0000           -0.3455388              -9.4026 (HOMO)
       115                         -0.2768541              -7.5336 (LUMO)
       116                         -0.2483961              -6.7592
       117                         -0.2364523              -6.4342
       118                         -0.2296679              -6.2496
       119                         -0.2290591              -6.2330
       120                         -0.2284615              -6.2168
       121                         -0.2233453              -6.0775
       122                         -0.2224802              -6.0540
       123                         -0.2223588              -6.0507
       124                         -0.2218652              -6.0373
       125                         -0.2208967              -6.0109
       ...                                ...                  ...
       224                          0.7099999              19.3201
      -------------------------------------------------------------
                  HL-Gap            0.0686847 Eh            1.8690 eV

     #   Z          covCN         q      C6AA      α(0)
     1   6 C        2.920    -0.031    28.779     8.797
     2   6 C        2.919    -0.030    28.742     8.792
     3   6 C        2.925    -0.034    28.848     8.808
     4   6 C        2.979     0.014    27.686     8.631
     5   6 C        2.977     0.005    27.915     8.667
     6   6 C        2.924    -0.049    29.228     8.866
     7   6 C        2.959     0.072    26.389     8.426
     8   7 N        1.854    -0.272    27.902     7.829
     9   6 C        2.894     0.134    25.073     8.210
    10   7 N        2.758    -0.077    22.731     7.081
    11   6 C        2.930     0.075    26.335     8.416
    12   6 C        2.923    -0.042    29.046     8.838
    13   6 C        2.920    -0.028    28.706     8.786
    14   6 C        2.919    -0.035    28.869     8.811
    15   6 C        2.921    -0.027    28.680     8.782
    16   6 C        2.923    -0.035    28.874     8.812
    17   6 C        2.925     0.066    26.533     8.447
    18   6 C        2.923    -0.044    29.089     8.845
    19   6 C        2.920    -0.028    28.696     8.785
    20   6 C        2.920    -0.036    28.900     8.816
    21   6 C        2.920    -0.028    28.697     8.785
    22   6 C        2.923    -0.044    29.082     8.844
    23   6 C        2.894     0.134    25.073     8.210
    24   7 N        2.758    -0.077    22.731     7.081
    25   6 C        2.930     0.075    26.335     8.416
    26   6 C        2.923    -0.035    28.874     8.812
    27   6 C        2.921    -0.027    28.680     8.782
    28   6 C        2.919    -0.035    28.869     8.811
    29   6 C        2.920    -0.028    28.706     8.786
    30   6 C        2.923    -0.042    29.046     8.838
    31   6 C        2.925     0.066    26.533     8.447
    32   6 C        2.923    -0.044    29.089     8.845
    33   6 C        2.920    -0.028    28.696     8.785
    34   6 C        2.920    -0.036    28.900     8.816
    35   6 C        2.920    -0.028    28.697     8.785
    36   6 C        2.923    -0.044    29.082     8.844
    37   7 N        1.854    -0.272    27.902     7.829
    38   6 C        2.959     0.072    26.389     8.426
    39   6 C        2.924    -0.049    29.228     8.866
    40   6 C        2.977     0.005    27.915     8.667
    41   6 C        2.979     0.014    27.686     8.631
    42   6 C        2.925    -0.034    28.848     8.808
    43   6 C        2.919    -0.030    28.742     8.792
    44   6 C        2.920    -0.031    28.779     8.797
    45   6 C        2.919    -0.029    28.734     8.790
    46   6 C        2.924    -0.031    28.764     8.795
    47   6 C        2.924    -0.031    28.764     8.795
    48   6 C        2.919    -0.029    28.734     8.790
    49   1 H        0.926     0.029     2.598     2.520
    50   1 H        0.926     0.030     2.589     2.516
    51   1 H        0.926     0.032     2.562     2.503
    52   1 H        0.926     0.048     2.341     2.393
    53   1 H        0.926     0.034     2.536     2.490
    54   1 H        0.926     0.034     2.525     2.485
    55   1 H        0.926     0.034     2.535     2.490
    56   1 H        0.926     0.036     2.507     2.476
    57   1 H        0.926     0.036     2.506     2.475
    58   1 H        0.926     0.027     2.623     2.533
    59   1 H        0.926     0.035     2.518     2.482
    60   1 H        0.926     0.034     2.532     2.488
    61   1 H        0.926     0.035     2.519     2.482
    62   1 H        0.926     0.034     2.535     2.490
    63   1 H        0.926     0.036     2.506     2.475
    64   1 H        0.926     0.036     2.507     2.476
    65   1 H        0.926     0.034     2.535     2.490
    66   1 H        0.926     0.034     2.525     2.485
    67   1 H        0.926     0.034     2.536     2.490
    68   1 H        0.926     0.027     2.623     2.533
    69   1 H        0.926     0.035     2.518     2.482
    70   1 H        0.926     0.034     2.532     2.488
    71   1 H        0.926     0.035     2.519     2.482
    72   1 H        0.926     0.034     2.535     2.490
    73   1 H        0.926     0.048     2.341     2.393
    74   1 H        0.926     0.032     2.562     2.503
    75   1 H        0.926     0.030     2.589     2.516
    76   1 H        0.926     0.029     2.598     2.520
    77   1 H        0.926     0.029     2.598     2.521
    78   1 H        0.926     0.029     2.600     2.522
    79   1 H        0.926     0.029     2.600     2.522
    80   1 H        0.926     0.029     2.598     2.521

molecular dipole:
                 x           y           z       tot (Debye)
 q only:       -0.785      -0.000      -0.000
   full:       -0.729      -0.000      -0.000       1.852

 projected vibrational frequencies (cm⁻¹)
eigval :       -0.00    -0.00    -0.00    -0.00     0.00     0.00
eigval :       12.50    16.89    16.94    27.66    30.69    43.94
eigval :       48.09    48.38    55.57    58.17    65.31    66.62
eigval :       68.07    71.03    81.39    87.24   100.60   107.72
eigval :      123.75   146.20   160.41   161.64   192.65   201.77
eigval :      210.79   235.11   243.38   243.77   249.17   250.21
eigval :      276.75   284.83   307.81   318.78   342.47   354.71
eigval :      372.25   373.39   374.77   376.09   378.56   379.54
eigval :      387.23   389.53   417.13   445.49   453.01   457.49
eigval :      472.14   479.75   489.70   500.42   506.63   526.79
eigval :      541.17   560.22   571.61   580.32   584.72   589.24
eigval :      590.07   590.71   591.25   594.27   594.48   615.29
eigval :      649.79   649.92   658.66   660.87   661.76   669.32
eigval :      673.91   679.57   688.07   697.63   721.11   727.34
eigval :      737.00   755.97   756.27   758.14   758.83   761.94
eigval :      763.93   840.06   855.71   862.69   868.42   869.14
eigval :      874.71   875.49   876.37   879.04   882.38   891.26
eigval :      892.78   894.03   896.07   902.44   903.49   904.62
eigval :      908.73   924.01   924.67   926.66   926.69   927.83
eigval :      928.48   928.86   929.08   929.99   930.12   931.67
eigval :      932.12   933.24   958.68   973.63   983.02   997.95
eigval :     1004.99  1012.04  1016.25  1069.16  1083.34  1083.61
eigval :     1084.94  1085.23  1085.32  1087.37  1120.93  1121.91
eigval :     1122.48  1122.84  1124.40  1126.09  1170.49  1180.34
eigval :     1180.62  1181.12  1181.26  1182.33  1182.34  1191.80
eigval :     1195.05  1195.84  1196.99  1198.50  1200.39  1206.77
eigval :     1210.64  1238.84  1255.43  1264.76  1274.29  1276.71
eigval :     1278.89  1280.55  1282.84  1283.60  1291.60  1303.45
eigval :     1313.38  1315.45  1319.30  1319.67  1321.90  1322.33
eigval :     1329.35  1329.53  1348.94  1398.13  1419.98  1428.84
eigval :     1432.87  1434.50  1435.24  1439.23  1444.97  1449.17
eigval :     1467.22  1469.93  1473.35  1475.12  1477.15  1481.17
eigval :     1490.67  1505.65  1525.76  1579.07  1580.27  1580.93
eigval :     1582.44  1586.37  1586.62  1588.32  1595.27  1595.55
eigval :     1599.17  1599.73  1600.14  1601.43  3070.08  3070.09
eigval :     3073.39  3073.81  3076.16  3076.18  3076.31  3076.54
eigval :     3079.32  3079.36  3080.29  3080.59  3080.98  3081.37
eigval :     3085.95  3086.54  3086.63  3086.75  3087.73  3087.79
eigval :     3092.29  3092.63  3093.73  3093.88  3093.98  3094.08
eigval :     3095.02  3095.26  3100.00  3100.27  3103.54  3103.57

   temp. (K)  partition function   enthalpy   heat capacity  entropy
                                   cal/mol     cal/K/mol   cal/K/mol   J/K/mol
 298.15  VIB  0.527E+18            22667.380    142.731    142.333
         ROT  0.345E+08              888.752      2.981     37.474
         INT  0.182E+26            23556.132    145.712    179.807
         TR   0.148E+29             1481.254      4.968     45.120
         TOT                       25037.3861   150.6797   224.9274   941.0960

       T/K    H(0)-H(T)+PV         H(T)/Eh          T*S/Eh         G(T)/Eh
   ------------------------------------------------------------------------
    298.15    0.398996E-01    0.660069E+00    0.106870E+00    0.553199E+00
   ------------------------------------------------------------------------

         :::::::::::::::::::::::::::::::::::::::::::::::::::::
         ::                  THERMODYNAMIC                  ::
         :::::::::::::::::::::::::::::::::::::::::::::::::::::
         :: total free energy        -121.694951009092 Eh   ::
         ::.................................................::
         :: total energy             -122.248150069337 Eh   ::
         :: zero point energy           0.620169688807 Eh   ::
         :: G(RRHO) w/o ZPVE           -0.066970628562 Eh   ::
         :: G(RRHO) contrib.            0.553199060246 Eh   ::
         :::::::::::::::::::::::::::::::::::::::::::::::::::::

           -------------------------------------------------
          | TOTAL ENERGY             -122.248150069337 Eh   |
          | TOTAL ENTHALPY           -121.588080766129 Eh   |
          | TOTAL FREE ENERGY        -121.694951009092 Eh   |
          | GRADIENT NORM               0.000019890024 Eh/α |
          | HOMO-LUMO GAP               1.869007163263 eV   |
           -------------------------------------------------

 * finished run on 2025/07/18 at 16:40:58.702
