   * xtb version 6.7.1 (edcfbbe) compiled by 'albert@albert-system' on 2024-07-22

   ID    Z sym.   atoms
    1    6 C      1-7, 9, 11-23, 25-36, 38-48
    2    7 N      8, 10, 24, 37
    3    1 H      49-80

          program call               : xtb data2507/gas/2DPA-DPQ/2DPA-DPQ_gas_S0_crest.xyz --gfn 2 --ohess vtight --parallel 40 --molden --ceasefiles --namespace data2507/gas/2DPA-DPQ/2DPA-DPQ_gas_S0_finalOpt
          :  Hamiltonian                  GFN2-xTB          :
 * total energy  :  -122.2481368 Eh     change       -0.2907271E-08 Eh
 * total energy  :  -122.2481382 Eh     change       -0.1384136E-05 Eh
 * total energy  :  -122.2481395 Eh     change       -0.1265583E-05 Eh
 * total energy  :  -122.2481416 Eh     change       -0.2087468E-05 Eh
 * total energy  :  -122.2481420 Eh     change       -0.4169262E-06 Eh
 * total energy  :  -122.2481423 Eh     change       -0.3006671E-06 Eh
 * total energy  :  -122.2481427 Eh     change       -0.4550729E-06 Eh
 * total energy  :  -122.2481432 Eh     change       -0.4414982E-06 Eh
 * total energy  :  -122.2481436 Eh     change       -0.3865447E-06 Eh
 * total energy  :  -122.2481440 Eh     change       -0.4282222E-06 Eh
 * total energy  :  -122.2481454 Eh     change       -0.2793746E-06 Eh
 * total energy  :  -122.2481458 Eh     change       -0.3342663E-06 Eh
 * total energy  :  -122.2481461 Eh     change       -0.3383191E-06 Eh
 * total energy  :  -122.2481464 Eh     change       -0.2528964E-06 Eh
 * total energy  :  -122.2481465 Eh     change       -0.1643874E-06 Eh
 * total energy  :  -122.2481467 Eh     change       -0.1766179E-06 Eh
 * total energy  :  -122.2481469 Eh     change       -0.2030877E-06 Eh
 * total energy  :  -122.2481472 Eh     change       -0.2337466E-06 Eh
 * total energy  :  -122.2481472 Eh     change       -0.1810690E-08 Eh
   *** GEOMETRY OPTIMIZATION CONVERGED AFTER 22 ITERATIONS ***

 final structure:
================
80
 xtb: 6.7.1 (edcfbbe)
C            7.23339892828124       -2.93354981391410        0.12402479929221
C            6.27643609297283       -3.22357747952005       -0.83362671872080
C            5.09784711973303       -2.50196153728987       -0.87848530953212
C            4.86437065384905       -1.47193648765965        0.02825530751445
C            3.60279107192617       -0.71217894979860       -0.01787906474813
C            2.40913026959801       -1.39672212506871       -0.05962985940078
C            1.18899834081116       -0.70709622565122       -0.05011834627541
N            0.02317981815630       -1.37517344157417       -0.17606038685488
C           -1.10300928030212       -0.70904164316890       -0.14245379872375
N           -2.25747948612725       -1.43226931697771       -0.38819787091408
C           -2.24702563657485       -2.82137974704740       -0.14414885594571
C           -1.72523248647478       -3.32037698743756        1.04495700296850
C           -1.73263302037246       -4.67981095062160        1.28977907154340
C           -2.26365017386551       -5.55741733648143        0.35922436164688
C           -2.78009097708418       -5.06434678719789       -0.82685079568054
C           -2.76922475159308       -3.70617990516617       -1.08278699390930
C           -3.31870774278453       -0.87841941459558       -1.11544700944953
C           -4.62436718574128       -1.30536326984888       -0.87654805268996
C           -5.67329848988019       -0.75404299656727       -1.58365493684989
C           -5.44216110963122        0.23460002379706       -2.52710077909244
C           -4.14646940839475        0.65286488606997       -2.77628968383835
C           -3.08802485467050        0.09176498903268       -2.08758606599182
C           -1.10205650120542        0.71203140837747        0.13408943605859
N           -2.25555837543696        1.43634110617982        0.38092305955777
C           -2.24343455271426        2.82596798333767        0.13987903711280
C           -1.72215260841604        3.32693725706323       -1.04859827573331
C           -1.72776862148051        4.68698730548143       -1.29012568703912
C           -2.25649700674148        5.56315374096686       -0.35690622663778
C           -2.77257406446136        5.06804709099825        0.82848152573201
C           -2.76348086213763        3.70925553418164        1.08112893197484
C           -3.31702920302727        0.88268137321782        1.10806204948793
C           -3.08659004417493       -0.08799348951350        2.07974513675568
C           -4.14519388616119       -0.64960937312394        2.76775698407896
C           -5.44078588410797       -0.23107976793765        2.51848986848864
C           -5.67161946920110        0.75851735477418        1.57596479205413
C           -4.62250484118084        1.31025462659360        0.86942848109434
N            0.02502709694956        1.37671000389265        0.16748426071065
C            1.18998237758190        0.70695886878614        0.04226842015918
C            2.41120846450602        1.39464952311517        0.05380514340288
C            3.60388551880660        0.70818435154464        0.01497832127412
C            4.86694979248790        1.46568026214057       -0.02714568383021
C            5.09907770315600        2.49556967452403        0.88011225311490
C            6.27930592947875        3.21474692009432        0.83951575361421
C            7.23939063214027        2.92232307086445       -0.11427443997384
C            7.01022299613365        1.90995054860790       -1.03128339088504
C            5.83411798983673        1.18563863243606       -0.98908758263468
C            5.82842465880265       -1.19418878362257        0.99398039434744
C            7.00282223673631       -1.92099775216109        1.04048396531387
H            8.15458012874331       -3.49646974830614        0.15800689774166
H            6.44964356957776       -4.01445194376043       -1.54919566896546
H            4.35589312300948       -2.72166104373059       -1.63296817223330
H            2.38743079626218       -2.47559191194949       -0.08661894170876
H           -1.30790126791803       -2.64347791541801        1.77355692843468
H           -1.32524751172335       -5.05616565170064        2.21659065569809
H           -2.27055332810840       -6.61903959960756        0.55531542087681
H           -3.18688341815700       -5.74127696448887       -1.56372125201212
H           -3.16180186569144       -3.32643675364275       -2.01471059603330
H           -4.80565807420490       -2.06002933835527       -0.12619662306363
H           -6.68052565639442       -1.09042664286766       -1.38832480190652
H           -6.26684537280645        0.67083494633950       -3.06995113241063
H           -3.95471150533790        1.41248130296647       -3.51974342461972
H           -2.07479558375787        0.39259672787861       -2.31065993841877
H           -1.30664941051093        2.65105827576817       -1.77919855846939
H           -1.32077886025720        5.06500172034325       -2.21643446790523
H           -2.26198966977428        6.62525821447887       -0.55042961722447
H           -3.17762974791262        5.74382203561680        1.56736918090533
H           -3.15570714992023        3.32780623323168        2.01250789754723
H           -2.07337444912820       -0.38881565538618        2.30287903791686
H           -3.95366018866705       -1.40985959510375        3.51061925171598
H           -6.26564273122879       -0.66786370605254        3.06063310834761
H           -6.67877020341511        1.09521735784239        1.38080779232428
H           -4.80349157120092        2.06563246468357        0.11971603733435
H            2.39118232644721        2.47355266206908        0.08075785908106
H            4.35472680307937        2.71705551150285        1.63170496167820
H            6.45139830336328        4.00552166883517        1.55546412478351
H            8.16189718141590        3.48326565497563       -0.14483851705999
H            7.75199126722836        1.68348845135829       -1.78330142079741
H            5.65550600614296        0.40391329483865       -1.71273425032096
H            5.64861302713400       -0.41237470926709        1.71723835471331
H            7.74209907090960       -1.69642901272540        1.79551696360409

          :  Hamiltonian                  GFN2-xTB          :
         :: gradient norm              0.000029539955 Eh/a0 ::
         :: HOMO-LUMO gap              1.870091481517 eV    ::
         :: SCC energy              -124.532705400928 Eh    ::
         :: -> dispersion             -0.123007290205 Eh    ::
         :: repulsion energy           2.284558246413 Eh    ::

    * Orbital Energies and Occupations

         #    Occupation            Energy/Eh            Energy/eV
      -------------------------------------------------------------
         1        2.0000           -0.6801819             -18.5087
       ...           ...                  ...                  ...
       102        2.0000           -0.4090979             -11.1321
       103        2.0000           -0.4078688             -11.0987
       104        2.0000           -0.4055530             -11.0357
       105        2.0000           -0.4045637             -11.0087
       106        2.0000           -0.4045452             -11.0082
       107        2.0000           -0.4005403             -10.8993
       108        2.0000           -0.3996013             -10.8737
       109        2.0000           -0.3986511             -10.8478
       110        2.0000           -0.3880171             -10.5585
       111        2.0000           -0.3839113             -10.4468
       112        2.0000           -0.3663472              -9.9688
       113        2.0000           -0.3531920              -9.6108
       114        2.0000           -0.3455331              -9.4024 (HOMO)
       115                         -0.2768085              -7.5323 (LUMO)
       116                         -0.2484171              -6.7598
       117                         -0.2364850              -6.4351
       118                         -0.2297184              -6.2510
       119                         -0.2290845              -6.2337
       120                         -0.2284797              -6.2172
       121                         -0.2233431              -6.0775
       122                         -0.2224691              -6.0537
       123                         -0.2223537              -6.0506
       124                         -0.2218617              -6.0372
       125                         -0.2208398              -6.0094
       ...                                ...                  ...
       224                          0.7100289              19.3209
      -------------------------------------------------------------
                  HL-Gap            0.0687246 Eh            1.8701 eV

     #   Z          covCN         q      C6AA      α(0)
     1   6 C        2.920    -0.031    28.779     8.797
     2   6 C        2.919    -0.030    28.742     8.792
     3   6 C        2.925    -0.034    28.848     8.808
     4   6 C        2.979     0.014    27.686     8.631
     5   6 C        2.977     0.005    27.915     8.667
     6   6 C        2.924    -0.049    29.228     8.866
     7   6 C        2.959     0.072    26.390     8.426
     8   7 N        1.854    -0.272    27.902     7.829
     9   6 C        2.894     0.134    25.073     8.210
    10   7 N        2.758    -0.077    22.730     7.081
    11   6 C        2.930     0.074    26.336     8.416
    12   6 C        2.923    -0.035    28.874     8.812
    13   6 C        2.921    -0.027    28.680     8.782
    14   6 C        2.919    -0.035    28.870     8.811
    15   6 C        2.920    -0.028    28.707     8.786
    16   6 C        2.923    -0.042    29.047     8.838
    17   6 C        2.925     0.066    26.533     8.447
    18   6 C        2.923    -0.044    29.082     8.844
    19   6 C        2.920    -0.028    28.697     8.785
    20   6 C        2.920    -0.036    28.900     8.816
    21   6 C        2.920    -0.028    28.696     8.785
    22   6 C        2.923    -0.044    29.088     8.845
    23   6 C        2.894     0.134    25.073     8.210
    24   7 N        2.758    -0.077    22.731     7.081
    25   6 C        2.930     0.074    26.336     8.416
    26   6 C        2.923    -0.035    28.874     8.812
    27   6 C        2.921    -0.027    28.680     8.782
    28   6 C        2.919    -0.035    28.870     8.811
    29   6 C        2.920    -0.028    28.706     8.786
    30   6 C        2.923    -0.042    29.047     8.838
    31   6 C        2.925     0.066    26.533     8.447
    32   6 C        2.923    -0.044    29.088     8.844
    33   6 C        2.920    -0.028    28.696     8.785
    34   6 C        2.920    -0.036    28.900     8.816
    35   6 C        2.920    -0.028    28.697     8.785
    36   6 C        2.923    -0.044    29.081     8.843
    37   7 N        1.854    -0.272    27.904     7.829
    38   6 C        2.959     0.072    26.390     8.426
    39   6 C        2.924    -0.049    29.228     8.866
    40   6 C        2.977     0.005    27.915     8.667
    41   6 C        2.979     0.014    27.686     8.631
    42   6 C        2.925    -0.034    28.848     8.808
    43   6 C        2.919    -0.030    28.742     8.792
    44   6 C        2.920    -0.031    28.779     8.797
    45   6 C        2.919    -0.029    28.734     8.790
    46   6 C        2.925    -0.031    28.765     8.795
    47   6 C        2.925    -0.031    28.765     8.795
    48   6 C        2.919    -0.029    28.734     8.790
    49   1 H        0.926     0.029     2.598     2.520
    50   1 H        0.926     0.030     2.589     2.516
    51   1 H        0.926     0.032     2.562     2.503
    52   1 H        0.926     0.048     2.342     2.393
    53   1 H        0.926     0.036     2.505     2.475
    54   1 H        0.926     0.036     2.507     2.476
    55   1 H        0.926     0.034     2.535     2.490
    56   1 H        0.926     0.034     2.526     2.485
    57   1 H        0.926     0.034     2.536     2.490
    58   1 H        0.926     0.034     2.535     2.490
    59   1 H        0.926     0.035     2.519     2.482
    60   1 H        0.926     0.034     2.532     2.488
    61   1 H        0.926     0.035     2.518     2.481
    62   1 H        0.926     0.027     2.623     2.533
    63   1 H        0.926     0.036     2.504     2.475
    64   1 H        0.926     0.036     2.507     2.476
    65   1 H        0.926     0.034     2.535     2.490
    66   1 H        0.926     0.034     2.525     2.485
    67   1 H        0.926     0.034     2.537     2.491
    68   1 H        0.926     0.027     2.623     2.533
    69   1 H        0.926     0.035     2.518     2.481
    70   1 H        0.926     0.034     2.532     2.488
    71   1 H        0.926     0.035     2.519     2.482
    72   1 H        0.926     0.034     2.534     2.489
    73   1 H        0.926     0.048     2.342     2.393
    74   1 H        0.926     0.032     2.562     2.503
    75   1 H        0.926     0.030     2.590     2.516
    76   1 H        0.926     0.029     2.598     2.520
    77   1 H        0.926     0.029     2.598     2.521
    78   1 H        0.926     0.029     2.600     2.521
    79   1 H        0.926     0.029     2.600     2.522
    80   1 H        0.926     0.029     2.598     2.521

molecular dipole:
                 x           y           z       tot (Debye)
 q only:       -0.789       0.001       0.001
   full:       -0.733       0.001       0.002       1.863

 projected vibrational frequencies (cm⁻¹)
eigval :       -0.00    -0.00     0.00     0.00     0.00     0.00
eigval :       12.55    16.83    16.92    27.58    30.71    43.90
eigval :       48.02    48.35    55.58    58.19    65.21    66.62
eigval :       68.15    71.04    81.40    87.20   100.49   107.67
eigval :      123.83   146.04   160.36   161.77   192.64   201.84
eigval :      210.68   235.16   243.34   243.80   249.16   250.19
eigval :      276.88   284.66   307.82   318.81   342.44   355.01
eigval :      372.24   373.36   374.76   376.02   378.56   379.54
eigval :      387.21   389.54   417.05   445.35   452.92   457.45
eigval :      472.09   479.77   489.72   500.45   506.59   526.82
eigval :      541.10   560.24   571.63   580.33   584.69   589.23
eigval :      590.09   590.72   591.25   594.24   594.43   615.31
eigval :      649.77   649.89   658.65   660.89   661.74   669.34
eigval :      673.86   679.52   688.07   697.55   721.09   727.44
eigval :      736.89   755.97   756.27   758.15   758.86   761.91
eigval :      763.92   840.05   855.59   862.69   868.41   869.12
eigval :      874.74   875.52   876.32   879.00   882.31   891.28
eigval :      892.82   894.04   896.10   902.46   903.49   904.57
eigval :      908.72   924.01   924.66   926.69   926.70   927.84
eigval :      928.49   928.86   929.10   929.96   930.11   931.66
eigval :      932.10   933.24   958.70   973.63   983.02   997.97
eigval :     1004.99  1012.04  1016.25  1069.15  1083.35  1083.62
eigval :     1084.94  1085.24  1085.34  1087.36  1120.93  1121.91
eigval :     1122.49  1122.86  1124.42  1126.11  1170.46  1180.33
eigval :     1180.63  1181.12  1181.26  1182.34  1182.35  1191.82
eigval :     1195.08  1195.83  1197.01  1198.51  1200.39  1206.76
eigval :     1210.63  1238.86  1255.40  1264.67  1274.32  1276.73
eigval :     1278.89  1280.55  1282.86  1283.62  1291.69  1303.50
eigval :     1313.35  1315.46  1319.26  1319.68  1321.87  1322.33
eigval :     1329.32  1329.53  1348.92  1398.17  1420.03  1428.87
eigval :     1432.92  1434.51  1435.23  1439.25  1444.99  1449.22
eigval :     1467.26  1469.93  1473.38  1475.12  1477.14  1481.18
eigval :     1490.68  1505.77  1525.74  1579.08  1580.26  1580.93
eigval :     1582.45  1586.36  1586.61  1588.30  1595.26  1595.54
eigval :     1599.15  1599.72  1600.14  1601.45  3070.08  3070.09
eigval :     3073.37  3073.79  3076.15  3076.18  3076.30  3076.53
eigval :     3079.34  3079.38  3080.28  3080.59  3080.98  3081.37
eigval :     3085.94  3086.53  3086.62  3086.74  3087.73  3087.79
eigval :     3092.28  3092.62  3093.73  3093.88  3093.98  3094.07
eigval :     3095.04  3095.28  3100.00  3100.27  3103.75  3103.83

   temp. (K)  partition function   enthalpy   heat capacity  entropy
                                   cal/mol     cal/K/mol   cal/K/mol   J/K/mol
 298.15  VIB  0.531E+18            22668.100    142.729    142.339
         ROT  0.345E+08              888.752      2.981     37.474
         INT  0.183E+26            23556.852    145.710    179.813
         TR   0.148E+29             1481.254      4.968     45.120
         TOT                       25038.1062   150.6777   224.9335   941.1217

       T/K    H(0)-H(T)+PV         H(T)/Eh          T*S/Eh         G(T)/Eh
   ------------------------------------------------------------------------
    298.15    0.399008E-01    0.660070E+00    0.106873E+00    0.553197E+00
   ------------------------------------------------------------------------

         :::::::::::::::::::::::::::::::::::::::::::::::::::::
         ::                  THERMODYNAMIC                  ::
         :::::::::::::::::::::::::::::::::::::::::::::::::::::
         :: total free energy        -121.694950341323 Eh   ::
         ::.................................................::
         :: total energy             -122.248147154515 Eh   ::
         :: zero point energy           0.620169208360 Eh   ::
         :: G(RRHO) w/o ZPVE           -0.066972395168 Eh   ::
         :: G(RRHO) contrib.            0.553196813192 Eh   ::
         :::::::::::::::::::::::::::::::::::::::::::::::::::::

           -------------------------------------------------
          | TOTAL ENERGY             -122.248147154515 Eh   |
          | TOTAL ENTHALPY           -121.588077184111 Eh   |
          | TOTAL FREE ENERGY        -121.694950341323 Eh   |
          | GRADIENT NORM               0.000029536379 Eh/α |
          | HOMO-LUMO GAP               1.870091612548 eV   |
           -------------------------------------------------

 * finished run on 2025/07/18 at 16:47:14.671
