   * xtb version 6.7.1 (edcfbbe) compiled by 'albert@albert-system' on 2024-07-22

   ID    Z sym.   atoms
    1    6 C      1-7, 9, 11-23, 25-36, 38-48
    2    7 N      8, 10, 24, 37
    3    1 H      49-80

          program call               : xtb data2507/gas/2DPA-DPQ/2DPA-DPQ_gas_T1_crest.xyz --gfn 2 --spinpol --tblite --uhf 2 --ohess vtight --parallel 40 --molden --ceasefiles --namespace data2507/gas/2DPA-DPQ/2DPA-DPQ_gas_T1_finalOpt
 * total energy  :  -122.1862576 Eh     change       -0.7648254E-08 Eh
 * total energy  :  -122.1862818 Eh     change       -0.2414612E-04 Eh
 * total energy  :  -122.1862865 Eh     change       -0.4712317E-05 Eh
 * total energy  :  -122.1862883 Eh     change       -0.1776690E-05 Eh
 * total energy  :  -122.1862906 Eh     change       -0.2307945E-05 Eh
 * total energy  :  -122.1862928 Eh     change       -0.2192285E-05 Eh
 * total energy  :  -122.1862952 Eh     change       -0.2468716E-05 Eh
 * total energy  :  -122.1862970 Eh     change       -0.1789621E-05 Eh
 * total energy  :  -122.1862980 Eh     change       -0.9438608E-06 Eh
 * total energy  :  -122.1862988 Eh     change       -0.8482008E-06 Eh
 * total energy  :  -122.1863030 Eh     change       -0.8484378E-06 Eh
 * total energy  :  -122.1863037 Eh     change       -0.7719050E-06 Eh
 * total energy  :  -122.1863045 Eh     change       -0.7245189E-06 Eh
 * total energy  :  -122.1863050 Eh     change       -0.5804266E-06 Eh
 * total energy  :  -122.1863056 Eh     change       -0.5193387E-06 Eh
 * total energy  :  -122.1863059 Eh     change       -0.3378180E-06 Eh
 * total energy  :  -122.1863062 Eh     change       -0.3463542E-06 Eh
 * total energy  :  -122.1863066 Eh     change       -0.3230875E-06 Eh
 * total energy  :  -122.1863066 Eh     change       -0.7458074E-07 Eh
   *** GEOMETRY OPTIMIZATION CONVERGED AFTER 22 ITERATIONS ***

 final structure:
================
80
 xtb: 6.7.1 (edcfbbe)
C            7.25841280666216       -2.94722772774150       -0.46533838129887
C            6.27908893547605       -3.05286194170776       -1.43850924197806
C            5.11089658804309       -2.32158159069656       -1.33096572851374
C            4.90784778713756       -1.46435872285743       -0.25210113023304
C            3.66083484694437       -0.69247013182420       -0.14027276233817
C            2.44545715851237       -1.35345363166867       -0.31612270904601
C            1.22745263481137       -0.70283147805075       -0.18315485583192
N            0.05736821156159       -1.29832231179866       -0.42139886584962
C           -1.10312657561992       -0.66468969239030       -0.23637701755346
N           -2.28110673434408       -1.35405689483946       -0.51758660774366
C           -2.37803441082391       -2.69114918860955       -0.11895013901624
C           -1.71554812204812       -3.13867745029249        1.02327017288217
C           -1.79458917223970       -4.46423084495091        1.40241825578304
C           -2.53316788579689       -5.36647843355799        0.65588952818564
C           -3.17911571327571       -4.93130111842634       -0.48986393930936
C           -3.10127513749645       -3.60967230892036       -0.88103626632176
C           -3.26533882201896       -0.74701206262209       -1.30269044379747
C           -4.61715012883918       -1.02178777634899       -1.09037261072689
C           -5.57897850820275       -0.39142911848757       -1.85351489565112
C           -5.21646453865456        0.53045520047488       -2.82343935598687
C           -3.87638408216971        0.80472591061696       -3.03931355901978
C           -2.90603240768460        0.16497039003632       -2.29343604299896
C           -1.10253549902473        0.65868850600933        0.24308849268812
N           -2.27888332496023        1.35621989102829        0.51016034260510
C           -2.35706019769057        2.69503515995484        0.11162243202417
C           -1.68402351086259        3.13390440979079       -1.02768174638710
C           -1.74301380620526        4.46070561677042       -1.40613812659427
C           -2.47190487206288        5.37251391064401       -0.66171975269682
C           -3.12889723368672        4.94550708040155        0.48083457943616
C           -3.07102229770770        3.62260586512143        0.87128873011020
C           -3.27992365446146        0.75920075322056        1.28092857092036
C           -2.94575788710859       -0.16420997516541        2.26990623786671
C           -3.93403522345655       -0.79233628105681        3.00205044270040
C           -5.26722908788129       -0.49509012146392        2.77436297318149
C           -5.60476995329702        0.43769178589379        1.80578643001596
C           -4.62507778776053        1.05637751005700        1.05603981476179
N            0.05896574608982        1.28742818132214        0.43821654948473
C            1.22848186918794        0.68870973684314        0.20557219402951
C            2.44729953092589        1.33688671531759        0.34239739667348
C            3.66181538142006        0.67394758461076        0.16817782178251
C            4.90962692233239        1.44472113189013        0.27910939705871
C            5.11449874472194        2.30238195650560        1.35726105405910
C            6.28296887008857        3.03359106271416        1.46252749670927
C            7.26065499333839        2.92750058470242        0.48776360611441
C            7.05965829484636        2.08927532523190       -0.59662238720854
C            5.89486144729833        1.35385639556084       -0.70201130258960
C            5.89467137528960       -1.37403321161480        0.72746366063923
C            7.05924249528155       -2.10950740495461        0.61977867297046
H            8.17178911683347       -3.51749405305586       -0.55054944766056
H            6.42737691040191       -3.70666807933251       -2.28609988252494
H            4.35366150751491       -2.39558213634474       -2.09858466739500
H            2.43049309092721       -2.41079360569687       -0.53149908112219
H           -1.13534460056341       -2.44800824000055        1.61407729555352
H           -1.27713436120315       -4.79332107596700        2.29144587609067
H           -2.59788924688631       -6.40056599058175        0.95819374306837
H           -3.74069904593927       -5.62971035811863       -1.09280370456658
H           -3.58443907008062       -3.28743914408535       -1.79116666577676
H           -4.90320413179663       -1.71650039441551       -0.31508393063120
H           -6.62185746031905       -0.61064835931199       -1.67916584507615
H           -5.97381061854158        1.02952691990835       -3.40845535460693
H           -3.58316992392745        1.51487474939294       -3.79802297871739
H           -1.85969625804995        0.35352105029544       -2.48269150455925
H           -1.11163064562712        2.43533188979776       -1.61678713906125
H           -1.21749348481472        4.78320560067506       -2.29283830637984
H           -2.52073623301489        6.40768596617341       -0.96328445295183
H           -3.68329014417224        5.65124464925667        1.08187609688560
H           -3.56268299777724        3.30605005661355        1.77887752075886
H           -1.90477256948209       -0.37093535657522        2.46906488214956
H           -3.66007260149903       -1.51149913146426        3.75946485380815
H           -6.03852178973433       -0.98480969997700        3.34896440920801
H           -6.64212165966095        0.67475603595197        1.62201261400355
H           -4.89201311815008        1.75959209746065        0.28159956837544
H            2.43367491881379        2.39422787604406        0.55783277114765
H            4.35845705667173        2.37697467193069        2.12599649596081
H            6.43270692008926        3.68785032177590        2.30951273737473
H            8.17413596691126        3.49788076657957        0.57109869583590
H            7.81482030673661        2.00946878438896       -1.36516871964378
H            5.73818972010393        0.71044091809753       -1.55527149220462
H            5.73957070168405       -0.73088234326415        1.58121057562177
H            7.81577044856987       -2.03000984852522        1.38700963434183

 projected vibrational frequencies (cm⁻¹)
eigval :       -0.00    -0.00    -0.00     0.00     0.00     0.00
eigval :       11.33    14.32    14.48    24.80    28.55    42.00
eigval :       43.96    46.73    55.58    58.54    64.71    67.02
eigval :       67.22    79.08    79.23    83.41   108.78   112.42
eigval :      127.66   144.72   160.03   161.10   192.96   200.14
eigval :      211.81   232.95   236.20   239.69   248.22   259.33
eigval :      261.46   277.48   310.95   321.59   322.98   334.37
eigval :      369.33   371.11   374.27   376.00   376.96   381.25
eigval :      388.24   392.71   405.89   418.70   452.10   470.01
eigval :      470.59   476.10   484.81   495.92   507.31   519.30
eigval :      536.34   544.35   559.03   575.79   583.83   587.19
eigval :      588.11   588.28   589.51   592.97   593.85   609.85
eigval :      610.94   636.38   647.83   656.95   657.16   661.22
eigval :      662.91   667.44   678.49   682.32   690.56   701.83
eigval :      721.17   751.17   753.87   758.48   758.76   761.15
eigval :      761.42   802.37   821.06   831.51   836.32   861.44
eigval :      864.49   874.58   878.05   878.31   879.86   886.57
eigval :      891.34   897.73   900.42   901.33   902.48   905.84
eigval :      906.27   921.81   922.83   925.19   925.42   925.56
eigval :      928.51   928.55   929.51   929.69   930.47   931.11
eigval :      934.95   935.37   957.83   974.34   979.83   998.88
eigval :     1003.17  1008.18  1011.36  1073.80  1082.48  1082.74
eigval :     1085.07  1086.38  1086.56  1088.30  1120.05  1121.16
eigval :     1121.60  1121.99  1126.89  1129.85  1155.21  1178.99
eigval :     1179.28  1180.22  1180.34  1181.91  1182.00  1187.90
eigval :     1191.89  1194.82  1197.46  1198.38  1200.31  1205.24
eigval :     1211.05  1226.60  1246.11  1247.40  1266.49  1271.16
eigval :     1275.02  1277.60  1281.58  1281.77  1287.63  1288.14
eigval :     1313.40  1314.65  1317.61  1319.37  1320.62  1320.78
eigval :     1326.58  1328.82  1330.18  1332.02  1374.35  1394.90
eigval :     1400.34  1430.12  1431.98  1432.92  1434.47  1443.54
eigval :     1444.14  1456.04  1465.72  1468.84  1469.13  1472.05
eigval :     1479.67  1480.54  1511.00  1520.76  1573.88  1574.14
eigval :     1578.78  1579.24  1579.40  1579.98  1588.91  1589.07
eigval :     1593.42  1596.08  1597.79  1598.77  3068.05  3068.15
eigval :     3071.70  3072.17  3077.44  3077.51  3078.89  3079.11
eigval :     3079.57  3079.85  3080.88  3081.00  3081.40  3081.94
eigval :     3085.07  3085.83  3089.01  3089.36  3091.45  3091.69
eigval :     3091.77  3091.86  3092.76  3092.83  3094.14  3095.07
eigval :     3097.34  3097.89  3100.29  3100.54  3106.16  3106.57

   temp. (K)  partition function   enthalpy   heat capacity  entropy
                                   cal/mol     cal/K/mol   cal/K/mol   J/K/mol
 298.15  VIB  0.117E+19            22863.650    143.754    143.596
         ROT  0.344E+08              888.752      2.981     37.466
         INT  0.403E+26            23752.402    146.735    181.062
         TR   0.148E+29             1481.254      4.968     45.120
         TOT                       25233.6563   151.7035   226.1824   946.3472

       T/K    H(0)-H(T)+PV         H(T)/Eh          T*S/Eh         G(T)/Eh
   ------------------------------------------------------------------------
    298.15    0.402124E-01    0.657848E+00    0.107467E+00    0.550382E+00
   ------------------------------------------------------------------------

         :::::::::::::::::::::::::::::::::::::::::::::::::::::
         ::                  THERMODYNAMIC                  ::
         :::::::::::::::::::::::::::::::::::::::::::::::::::::
         :: total free energy        -121.635925083449 Eh   ::
         ::.................................................::
         :: total energy             -122.186306645596 Eh   ::
         :: zero point energy           0.617635728128 Eh   ::
         :: G(RRHO) w/o ZPVE           -0.067254165981 Eh   ::
         :: G(RRHO) contrib.            0.550381562147 Eh   ::
         :::::::::::::::::::::::::::::::::::::::::::::::::::::

           -------------------------------------------------
          | TOTAL ENERGY             -122.186306645596 Eh   |
          | TOTAL ENTHALPY           -121.528458526574 Eh   |
          | TOTAL FREE ENERGY        -121.635925083449 Eh   |
          | GRADIENT NORM               0.000081340673 Eh/α |
           -------------------------------------------------

 * finished run on 2025/07/18 at 16:54:37.896
