   * xtb version 6.7.1 (edcfbbe) compiled by 'albert@albert-system' on 2024-07-22

   ID    Z sym.   atoms
    1    6 C      1-7, 9, 11-23, 25-36, 38-48
    2    7 N      8, 10, 24, 37
    3    1 H      49-80

          program call               : xtb data2507/gas/2DPA-DPQ/2DPA-DPQ_gas_S0_finalOpt.xtbopt.xyz --gfn 2 --spinpol --tblite --uhf 2 --ohess vtight --parallel 40 --molden --ceasefiles --namespace data2507/gas/2DPA-DPQ/2DPA-DPQ_gas_T1_preOpt
 * total energy  :  -122.1788542 Eh     change        0.2117609E-07 Eh
 * total energy  :  -122.1825768 Eh     change       -0.3722651E-02 Eh
 * total energy  :  -122.1841526 Eh     change       -0.1575820E-02 Eh
 * total energy  :  -122.1845039 Eh     change       -0.3512630E-03 Eh
 * total energy  :  -122.1848474 Eh     change       -0.3434614E-03 Eh
 * total energy  :  -122.1850298 Eh     change       -0.1824119E-03 Eh
 * total energy  :  -122.1852379 Eh     change       -0.2081108E-03 Eh
 * total energy  :  -122.1853980 Eh     change       -0.1601203E-03 Eh
 * total energy  :  -122.1855069 Eh     change       -0.1089039E-03 Eh
 * total energy  :  -122.1855789 Eh     change       -0.7197415E-04 Eh
 * total energy  :  -122.1862882 Eh     change       -0.9302683E-05 Eh
 * total energy  :  -122.1862923 Eh     change       -0.4126979E-05 Eh
 * total energy  :  -122.1862950 Eh     change       -0.2698338E-05 Eh
 * total energy  :  -122.1862977 Eh     change       -0.2681196E-05 Eh
 * total energy  :  -122.1862997 Eh     change       -0.2018468E-05 Eh
 * total energy  :  -122.1863007 Eh     change       -0.1006496E-05 Eh
 * total energy  :  -122.1863010 Eh     change       -0.3186562E-06 Eh
 * total energy  :  -122.1863012 Eh     change       -0.1240853E-06 Eh
 * total energy  :  -122.1863012 Eh     change       -0.2235878E-07 Eh
   *** GEOMETRY OPTIMIZATION CONVERGED AFTER 44 ITERATIONS ***

 final structure:
================
80
 xtb: 6.7.1 (edcfbbe)
C            7.25298315684631       -2.95595728105511       -0.40658445935630
C            6.27322207841825       -3.08379660273813       -1.37664583130493
C            5.10620602668664       -2.34829855535370       -1.28665541919896
C            4.90482717947548       -1.46458652399015       -0.22903643120227
C            3.65823405816987       -0.68954380852214       -0.13557084983569
C            2.44275195255677       -1.35528034992118       -0.29220221862812
C            1.22471712586395       -0.70181756313083       -0.17471235711396
N            0.05447738921758       -1.30425796162570       -0.39147399294117
C           -1.10704253236223       -0.66806738007583       -0.21975842199165
N           -2.28096529349890       -1.37679825310763       -0.46611183041948
C           -2.34611855185700       -2.70815879200265       -0.03923458691454
C           -1.67415518486189       -3.11529370358201        1.11236757992533
C           -1.71843518390883       -4.43492782073589        1.51720933709812
C           -2.43153542874589       -5.37065818395460        0.78736533623053
C           -3.08845314456293       -4.97493005645034       -0.36648486016156
C           -3.04521916412355       -3.65946539868055       -0.78308590276351
C           -3.29129988482990       -0.80692034949542       -1.24468328523409
C           -4.63174445863959       -1.11694636473484       -1.00888054939462
C           -5.62209733971286       -0.52620042147426       -1.76676862879343
C           -5.30027696984029        0.39178906836769       -2.75470021987167
C           -3.97197851429574        0.70241864293718       -2.99271651952878
C           -2.97282452902682        0.10172817303468       -2.25230739461860
C           -1.10625038709937        0.66985292545006        0.21777395870529
N           -2.27938021051862        1.38033735213653        0.46284465457695
C           -2.34234425202255        2.71171661527821        0.03578721668292
C           -1.66793596319063        3.11811736555149       -1.11465042925910
C           -1.71011845210003        4.43778980990912       -1.51959480018120
C           -2.42356446763167        5.37427668597143       -0.79107012732976
C           -3.08286681541981        4.97929138234125        0.36167526122036
C           -3.04171558566710        3.66379769822666        0.77840299970160
C           -3.29142655485424        0.81172691259252        1.24015667084555
C           -2.97525587599584       -0.09685077438757        2.24855914160083
C           -3.97604584945306       -0.69630018877092        2.98776060177716
C           -5.30370001710577       -0.38449325798786        2.74770635167422
C           -5.62322725617443        0.53342664503285        1.75897448515158
C           -4.63121821898289        1.12297062153104        1.00231033060875
N            0.05607684356349        1.30431840101416        0.39066037641421
C            1.22561553261581        0.70013722704937        0.17483812134808
C            2.44450836520802        1.35182281878084        0.29326084136210
C            3.65913536660072        0.68432584229670        0.13741875499786
C            4.90678877500036        1.45757548879157        0.23156150360972
C            5.10891225323763        2.34099838353190        1.28927868603970
C            6.27693881593321        3.07482812374109        1.37983627200154
C            7.25699332926970        2.94557925653263        0.41025524067572
C            7.05886674466199        2.08129064184845       -0.65401005473747
C            5.89451682924160        1.34312020908930       -0.74451616891109
C            5.89223858954246       -1.35154716786336        0.74752293889288
C            7.05557211255640       -2.09138912087645        0.65758453850500
H            8.16529847670841       -3.52981678846093       -0.47788932830845
H            6.42015963326459       -3.75846519709782       -2.20796080093075
H            4.34846915552999       -2.44004858497847       -2.05185488708086
H            2.42775331618624       -2.41825717309752       -0.47783204784052
H           -1.11366743219488       -2.39799486416495        1.69049711864921
H           -1.19372605358874       -4.73288852482527        2.41293511228158
H           -2.46842357130449       -6.40023300749081        1.10912457587849
H           -3.63088967230171       -5.69956027307354       -0.95582946555843
H           -3.53678590071774       -3.36699126048810       -1.69879690228028
H           -4.88673505444603       -1.80713849582122       -0.21886424879243
H           -6.65553419264326       -0.77310109491671       -1.57430137991832
H           -6.07998357363964        0.85992074778862       -3.33590851785566
H           -3.71010079982386        1.41070501511308       -3.76457020694359
H           -1.93550276967697        0.31863211419425       -2.45933315067102
H           -1.10722011087671        2.40022914910072       -1.69182184263042
H           -1.18357077846446        4.73514909104070       -2.41444506451664
H           -2.45880429089245        6.40388781186860       -1.11291933377461
H           -3.62563370551509        5.70449213682647        0.95001732240300
H           -3.53519937652630        3.37188283130005        1.69325642985453
H           -1.93842962551867       -0.31467568948366        2.45711538697008
H           -3.71596978334108       -1.40459158013482        3.76021885471559
H           -6.08469217964674       -0.85169645580769        3.32794084000614
H           -6.65614971867473        0.78125103318947        1.56493001472763
H           -4.88440324716325        1.81314509948349        0.21169749651931
H            2.43094104849063        2.41481788952220        0.47889607447761
H            4.35093825657654        2.43382787814698        2.05411147062743
H            6.42445964470649        3.74924764208089        2.21124842413960
H            8.17010176619971        3.51811637370217        0.48201543877297
H            7.81598833538926        1.98318396438498       -1.41848745933366
H            5.74023502940530        0.67910685869350       -1.58228298993097
H            5.73851473082686       -0.68729180702896        1.58520089924758
H            7.81246696647094       -1.99435745381333        1.42242502788704

 projected vibrational frequencies (cm⁻¹)
eigval :       -0.00     0.00     0.00     0.00     0.00     0.00
eigval :       11.15    14.22    14.48    25.50    28.65    42.64
eigval :       44.31    47.35    55.45    58.40    64.78    66.90
eigval :       67.40    78.71    79.11    83.55   108.00   111.32
eigval :      127.68   144.89   159.74   160.76   192.73   199.94
eigval :      211.77   233.21   236.52   240.05   248.11   258.28
eigval :      261.09   277.68   310.81   321.56   322.80   334.27
eigval :      369.09   371.06   374.09   375.99   376.95   381.10
eigval :      387.55   392.15   405.98   418.36   451.60   470.35
eigval :      470.65   476.11   485.02   495.41   507.37   519.12
eigval :      536.58   543.70   558.84   575.92   583.82   587.01
eigval :      588.05   588.25   589.45   592.99   593.71   610.03
eigval :      610.07   636.13   647.98   657.27   657.48   660.85
eigval :      662.32   667.12   678.44   682.21   690.15   702.02
eigval :      721.01   751.24   754.01   758.29   758.61   761.04
eigval :      761.11   802.23   820.89   831.33   836.51   861.68
eigval :      864.77   874.53   878.02   878.24   878.99   886.69
eigval :      891.56   897.15   900.33   900.44   902.38   905.56
eigval :      906.36   921.86   922.91   925.40   925.42   925.69
eigval :      928.34   928.40   929.43   929.62   930.41   931.04
eigval :      933.83   934.78   957.74   974.38   979.73   998.71
eigval :     1003.19  1008.35  1011.72  1073.79  1082.59  1082.76
eigval :     1085.29  1086.36  1086.54  1088.55  1120.11  1121.39
eigval :     1121.56  1122.03  1126.77  1129.80  1155.60  1178.89
eigval :     1179.34  1180.35  1180.41  1181.95  1182.01  1187.39
eigval :     1191.99  1194.70  1197.47  1198.47  1200.26  1205.39
eigval :     1210.84  1226.27  1245.92  1247.11  1266.52  1271.07
eigval :     1275.04  1277.77  1281.66  1281.80  1287.53  1288.17
eigval :     1313.50  1314.82  1317.70  1319.90  1320.61  1320.87
eigval :     1327.28  1329.26  1330.15  1331.98  1374.46  1395.06
eigval :     1400.56  1430.22  1432.07  1433.03  1434.43  1443.67
eigval :     1444.18  1454.89  1465.83  1468.86  1469.25  1471.76
eigval :     1479.61  1480.20  1510.38  1520.81  1573.89  1574.13
eigval :     1578.83  1579.29  1579.44  1580.01  1589.06  1589.25
eigval :     1593.42  1596.08  1597.82  1598.82  3067.72  3067.74
eigval :     3071.57  3071.98  3077.45  3077.48  3078.72  3078.80
eigval :     3079.42  3079.69  3080.54  3080.64  3081.38  3081.91
eigval :     3084.60  3085.31  3089.16  3089.29  3091.20  3091.25
eigval :     3091.41  3091.80  3092.66  3092.68  3094.01  3094.59
eigval :     3097.18  3097.74  3100.05  3100.39  3105.10  3105.23

   temp. (K)  partition function   enthalpy   heat capacity  entropy
                                   cal/mol     cal/K/mol   cal/K/mol   J/K/mol
 298.15  VIB  0.116E+19            22868.246    143.809    143.665
         ROT  0.344E+08              888.752      2.981     37.467
         INT  0.398E+26            23756.999    146.790    181.131
         TR   0.148E+29             1481.254      4.968     45.120
         TOT                       25238.2525   151.7578   226.2516   946.6368

       T/K    H(0)-H(T)+PV         H(T)/Eh          T*S/Eh         G(T)/Eh
   ------------------------------------------------------------------------
    298.15    0.402197E-01    0.657812E+00    0.107499E+00    0.550312E+00
   ------------------------------------------------------------------------

         :::::::::::::::::::::::::::::::::::::::::::::::::::::
         ::                  THERMODYNAMIC                  ::
         :::::::::::::::::::::::::::::::::::::::::::::::::::::
         :: total free energy        -121.635988844188 Eh   ::
         ::.................................................::
         :: total energy             -122.186301175044 Eh   ::
         :: zero point energy           0.617592068364 Eh   ::
         :: G(RRHO) w/o ZPVE           -0.067279737508 Eh   ::
         :: G(RRHO) contrib.            0.550312330856 Eh   ::
         :::::::::::::::::::::::::::::::::::::::::::::::::::::

           -------------------------------------------------
          | TOTAL ENERGY             -122.186301175044 Eh   |
          | TOTAL ENTHALPY           -121.528489391286 Eh   |
          | TOTAL FREE ENERGY        -121.635988844188 Eh   |
          | GRADIENT NORM               0.000050685934 Eh/α |
           -------------------------------------------------

 * finished run on 2025/07/18 at 16:47:23.387
