   * xtb version 6.7.1 (edcfbbe) compiled by 'albert@albert-system' on 2024-07-22

   ID    Z sym.   atoms
    1    7 N      1, 8, 18, 42, 61
    2    6 C      2-7, 9-17, 19-41, 43-60, 62-69
    3    1 H      70-112

          program call               : xtb data2507/gas/3,6-TC/3,6-TC_gas_S0_crest.xyz --gfn 2 --ohess vtight --parallel 40 --molden --ceasefiles --namespace data2507/gas/3,6-TC/3,6-TC_gas_S0_finalOpt
          :  Hamiltonian                  GFN2-xTB          :
 * total energy  :  -173.6181595 Eh     change       -0.3529351E-08 Eh
 * total energy  :  -173.6181610 Eh     change       -0.1501945E-05 Eh
 * total energy  :  -173.6181615 Eh     change       -0.4366755E-06 Eh
 * total energy  :  -173.6181651 Eh     change       -0.3664054E-05 Eh
 * total energy  :  -173.6181670 Eh     change       -0.1820233E-05 Eh
 * total energy  :  -173.6181700 Eh     change       -0.3019360E-05 Eh
 * total energy  :  -173.6181737 Eh     change       -0.3707856E-05 Eh
 * total energy  :  -173.6181769 Eh     change       -0.3169622E-05 Eh
 * total energy  :  -173.6181796 Eh     change       -0.2765488E-05 Eh
 * total energy  :  -173.6181826 Eh     change       -0.2966210E-05 Eh
 * total energy  :  -173.6182123 Eh     change       -0.4095710E-06 Eh
 * total energy  :  -173.6182126 Eh     change       -0.3005446E-06 Eh
 * total energy  :  -173.6182128 Eh     change       -0.1970946E-06 Eh
 * total energy  :  -173.6182130 Eh     change       -0.2025120E-06 Eh
 * total energy  :  -173.6182132 Eh     change       -0.2602307E-06 Eh
 * total energy  :  -173.6182136 Eh     change       -0.3310836E-06 Eh
 * total energy  :  -173.6182139 Eh     change       -0.3129888E-06 Eh
 * total energy  :  -173.6182142 Eh     change       -0.2826300E-06 Eh
 * total energy  :  -173.6182142 Eh     change       -0.6440729E-08 Eh
   *** GEOMETRY OPTIMIZATION CONVERGED AFTER 44 ITERATIONS ***

 final structure:
================
112
 xtb: 6.7.1 (edcfbbe)
N          -12.68611772192688       -3.16182610460283       -0.13046572430266
C          -11.58294247580998       -2.84949038077915       -0.10040671663665
C          -10.22598567765350       -2.45992711128328       -0.06578098649956
C           -9.25523980398111       -3.23638857826807       -0.70394134405916
C           -7.93739182264686       -2.84106898695271       -0.67435164040929
C           -7.55550813790909       -1.66641401465168       -0.01675614583474
C           -6.14536250606006       -1.32726340240168       -0.02484506544706
N           -5.20631926670264       -2.24062946563175       -0.09927882075066
C           -4.02724373449935       -1.57383173064712       -0.06334928866259
C           -2.71437468582443       -2.12033130284721       -0.08154751033191
C           -2.49752937308211       -3.50131370551841       -0.13318747112124
C           -1.22401766358297       -4.00750401516346       -0.12708424837147
C           -0.12475724814069       -3.13938172334304       -0.07217670949077
C            1.24583500219992       -3.66560056721206       -0.06781775489660
C            1.58027752557845       -4.79493520434899        0.67760554866417
C            2.87228493665223       -5.27566032027784        0.70101677530569
C            3.87452176792816       -4.64851210821460       -0.04009813884906
N            5.18619852236559       -5.13058545511968       -0.01907493709351
C            5.42487864955553       -6.50820351777264        0.04811752361893
C            4.60260867006585       -7.40270575852551       -0.63673894230266
C            4.83950097898312       -8.76143948455462       -0.56370345391506
C            5.89961878765708       -9.25041697189249        0.18197563401730
C            6.72199752371704       -8.36597768705097        0.86056347779785
C            6.48817969035032       -7.00602298320421        0.80091179117554
C            6.26115047584900       -4.23596015187415       -0.06672924050129
C            6.18985931095405       -3.00728829196764        0.59001276069020
C            7.25026993751194       -2.12419133746800        0.53285349725140
C            8.39988900277375       -2.45166951952951       -0.16722725797500
C            8.47883028526224       -3.67321038595592       -0.81576399103386
C            7.41981277399749       -4.55885551401255       -0.77303960633971
C            3.54182287298642       -3.52832234021630       -0.80261909759529
C            2.25165462874616       -3.04374550543841       -0.80661934247704
C           -0.34215878770745       -1.77322977027321       -0.02194333509619
C           -1.62737722736802       -1.21945568556083       -0.02855826690763
C           -1.86470181030230        0.21507538171682       -0.00195204494273
C           -0.80583767149559        1.12756953644819        0.00235594790582
C           -0.99524430003477        2.49839584798451       -0.01616423907905
C            0.15802104091466        3.40465975450764       -0.00092857070690
C            1.26988366819402        3.12843079402114        0.79444308697549
C            2.36198049219118        3.96838691298374        0.80868710065417
C            2.38591575053310        5.11230996104220        0.00942920530281
N            3.50017441120370        5.95405261392935        0.00649018247011
C            3.33439509298173        7.33805322715966       -0.12219172255359
C            4.24125465337877        8.09264597089239       -0.86595064966136
C            4.07611792679279        9.45868267984047       -0.98591474200617
C            3.00545554681814       10.09283001420296       -0.37715208940143
C            2.09982401122447        9.34737392386303        0.35978412541707
C            2.26094075563268        7.98207449376619        0.49273110588087
C            4.78582986607664        5.41385775493081        0.13206929546167
C            5.10565760534299        4.19880229633925       -0.47356977179182
C            6.37323929739804        3.66662705853555       -0.34011249616534
C            7.34315118710852        4.33738745310160        0.38674736428888
C            7.03278998195518        5.54778214763131        0.98471312085569
C            5.76516143478140        6.08333207814814        0.86533136052208
C            1.27554291931646        5.39502977602908       -0.78736180221705
C            0.17995252074475        4.55832454241083       -0.78317466174896
C           -2.30340678978306        2.99347526603002       -0.06428401450890
C           -3.36963575867101        2.13171139210864       -0.05646836821731
C           -3.18557530924007        0.74216949360764       -0.00408977066323
C           -4.25285036863513       -0.19806017632097        0.01743530089251
N           -5.62025396191783       -0.05457054195296        0.05372792767852
C           -6.37048941689313        1.13726863137686        0.12227294069132
C           -7.16282920889383        1.51437022877792       -0.95535022925511
C           -7.92318867949546        2.66727884845631       -0.87465180976377
C           -7.89460509106752        3.44215215318606        0.27284514841150
C           -7.10301812712522        3.06498956719179        1.34617470311393
C           -6.34170714638700        1.91289784107650        1.27775434793815
C           -8.52783562793363       -0.91206157731418        0.64319393183200
C           -9.85035555205021       -1.30148912403516        0.61571053415865
H           -9.54817652550286       -4.14018246690237       -1.21746243778359
H           -7.17205183529349       -3.42847027165974       -1.15629833076240
H           -3.36119064607919       -4.14664361532735       -0.17575261009190
H           -1.05902689602442       -5.07325144221429       -0.18371327795296
H            0.82319125931113       -5.28236104246990        1.27422178837639
H            3.11811658562541       -6.13909441401727        1.30185663069927
H            3.78159846826953       -7.02329687463433       -1.22743720167796
H            4.19619024148896       -9.44301164845731       -1.10072051758765
H            6.08358388863361      -10.31276759477907        0.23384308838836
H            7.54787549134132       -8.73823190979467        1.44888568619469
H            7.12502693517937       -6.31916770207197        1.33911723650006
H            5.29940837628160       -2.75363867082314        1.14647588483776
H            7.18119061975558       -1.17654301964526        1.04692979870226
H            9.22824253192243       -1.76064605168091       -0.20666679517775
H            9.36930123425387       -3.93579450623871       -1.36792300233196
H            7.48047112734879       -5.50582356453700       -1.28921801025149
H            4.30421606872064       -3.04443520853305       -1.39564571323283
H            2.01082059482675       -2.18658914412141       -1.41852520513473
H            0.52410257289187       -1.13468862314804        0.04509646700616
H            0.20952973067539        0.76631530345838       -0.00712065300060
H            1.26396628873258        2.25850253249143        1.43487282504190
H            3.20694265011929        3.74736150177237        1.44433673841504
H            5.07162637826484        7.59910340543671       -1.34951136729701
H            4.78452490386998       10.03101988132747       -1.56664722213878
H            2.87805392797169       11.16010838807667       -0.47599358163417
H            1.26535723215284        9.83402954889923        0.84318678628165
H            1.55952566312403        7.40435852238158        1.07692927808686
H            4.35472866863808        3.67909087823484       -1.05055975468189
H            6.60730384267772        2.72511647565593       -0.81517474208183
H            8.33380150661442        3.92038549473891        0.48598421968944
H            7.78121569714121        6.07592479282530        1.55707374321953
H            5.52296718506378        7.02216999113643        1.34160295869425
H            1.28411577698371        6.27250084135334       -1.41735023201080
H           -0.65945388700696        4.78366691081690       -1.42459923057743
H           -2.47393917489923        4.05955230215661       -0.08781174930573
H           -4.36910296668268        2.53414160925294       -0.10220730986291
H           -7.17843608744658        0.90139036781474       -1.84436686480374
H           -8.53822606011486        2.96081377111612       -1.71168234895732
H           -8.48947638082257        4.34076096174807        0.33202085841649
H           -7.08049227782334        3.66744489766291        2.24170235121527
H           -5.72110970736381        1.60749623494821        2.10764008801199
H           -8.25391827772615       -0.02975705299030        1.19993376612605
H          -10.60092963137559       -0.71598992796593        1.12622641082722

          :  Hamiltonian                  GFN2-xTB          :
         :: gradient norm              0.000070895365 Eh/a0 ::
         :: HOMO-LUMO gap              1.709981023960 eV    ::
         :: SCC energy              -176.934669555972 Eh    ::
         :: -> dispersion             -0.160803905476 Eh    ::
         :: repulsion energy           3.316455396386 Eh    ::

    * Orbital Energies and Occupations

         #    Occupation            Energy/Eh            Energy/eV
      -------------------------------------------------------------
         1        2.0000           -0.6936963             -18.8764
       ...           ...                  ...                  ...
       150        2.0000           -0.4070422             -11.0762
       151        2.0000           -0.4066716             -11.0661
       152        2.0000           -0.4065674             -11.0633
       153        2.0000           -0.4061273             -11.0513
       154        2.0000           -0.4042810             -11.0010
       155        2.0000           -0.4033249             -10.9750
       156        2.0000           -0.4015972             -10.9280
       157        2.0000           -0.3935111             -10.7080
       158        2.0000           -0.3837014             -10.4410
       159        2.0000           -0.3820208             -10.3953
       160        2.0000           -0.3678630             -10.0101
       161        2.0000           -0.3500742              -9.5260
       162        2.0000           -0.3469203              -9.4402 (HOMO)
       163                         -0.2840797              -7.7302 (LUMO)
       164                         -0.2609563              -7.1010
       165                         -0.2508193              -6.8251
       166                         -0.2498694              -6.7993
       167                         -0.2491548              -6.7798
       168                         -0.2424680              -6.5979
       169                         -0.2408397              -6.5536
       170                         -0.2321539              -6.3172
       171                         -0.2298323              -6.2541
       172                         -0.2291094              -6.2344
       173                         -0.2265217              -6.1640
       ...                                ...                  ...
       319                          1.1724332              31.9035
      -------------------------------------------------------------
                  HL-Gap            0.0628406 Eh            1.7100 eV

     #   Z          covCN         q      C6AA      α(0)
     1   7 N        0.911    -0.235    26.153     7.396
     2   6 C        1.912     0.112    28.345     8.598
     3   6 C        2.973     0.018    27.596     8.617
     4   6 C        2.924    -0.019    28.481     8.752
     5   6 C        2.928    -0.026    28.643     8.777
     6   6 C        2.974     0.011    27.777     8.645
     7   6 C        3.191     0.124    24.831     8.127
     8   7 N        1.896    -0.288    28.327     7.891
     9   6 C        3.204     0.058    26.123     8.325
    10   6 C        2.985     0.000    28.019     8.683
    11   6 C        2.919    -0.032    28.797     8.800
    12   6 C        2.922    -0.035    28.867     8.811
    13   6 C        2.974     0.008    27.840     8.655
    14   6 C        2.977     0.001    27.997     8.679
    15   6 C        2.924    -0.034    28.850     8.808
    16   6 C        2.920    -0.049    29.213     8.863
    17   6 C        2.924     0.063    26.587     8.456
    18   7 N        2.752    -0.075    22.697     7.076
    19   6 C        2.924     0.065    26.541     8.448
    20   6 C        2.922    -0.047    29.177     8.858
    21   6 C        2.920    -0.029    28.731     8.790
    22   6 C        2.919    -0.038    28.954     8.824
    23   6 C        2.920    -0.029    28.732     8.790
    24   6 C        2.922    -0.048    29.180     8.859
    25   6 C        2.924     0.065    26.537     8.448
    26   6 C        2.922    -0.048    29.185     8.859
    27   6 C        2.919    -0.029    28.737     8.791
    28   6 C        2.919    -0.039    28.963     8.825
    29   6 C        2.920    -0.029    28.733     8.790
    30   6 C        2.922    -0.048    29.185     8.859
    31   6 C        2.920    -0.049    29.215     8.864
    32   6 C        2.924    -0.035    28.867     8.811
    33   6 C        2.929    -0.041    29.023     8.835
    34   6 C        2.978    -0.002    28.061     8.689
    35   6 C        2.979     0.002    27.973     8.676
    36   6 C        2.930    -0.041    29.007     8.833
    37   6 C        2.973     0.008    27.840     8.655
    38   6 C        2.977     0.000    28.017     8.682
    39   6 C        2.924    -0.035    28.862     8.810
    40   6 C        2.921    -0.049    29.213     8.863
    41   6 C        2.924     0.064    26.572     8.454
    42   7 N        2.752    -0.075    22.691     7.075
    43   6 C        2.924     0.065    26.541     8.449
    44   6 C        2.922    -0.047    29.175     8.858
    45   6 C        2.920    -0.029    28.728     8.789
    46   6 C        2.919    -0.038    28.951     8.823
    47   6 C        2.920    -0.029    28.733     8.790
    48   6 C        2.922    -0.047    29.179     8.858
    49   6 C        2.924     0.065    26.543     8.449
    50   6 C        2.922    -0.047    29.176     8.858
    51   6 C        2.919    -0.029    28.730     8.790
    52   6 C        2.919    -0.038    28.950     8.823
    53   6 C        2.920    -0.029    28.729     8.790
    54   6 C        2.922    -0.047    29.178     8.858
    55   6 C        2.920    -0.049    29.218     8.864
    56   6 C        2.924    -0.034    28.848     8.808
    57   6 C        2.921    -0.037    28.912     8.818
    58   6 C        2.917    -0.041    29.017     8.833
    59   6 C        2.978    -0.005    28.140     8.702
    60   6 C        3.075     0.022    27.426     8.586
    61   7 N        2.840    -0.044    22.096     6.981
    62   6 C        2.913     0.068    26.476     8.438
    63   6 C        2.921    -0.038    28.940     8.822
    64   6 C        2.920    -0.025    28.633     8.775
    65   6 C        2.920    -0.029    28.725     8.789
    66   6 C        2.920    -0.027    28.664     8.780
    67   6 C        2.921    -0.037    28.911     8.817
    68   6 C        2.920    -0.033    28.832     8.805
    69   6 C        2.925    -0.021    28.526     8.759
    70   1 H        0.926     0.047     2.364     2.404
    71   1 H        0.926     0.062     2.171     2.304
    72   1 H        0.926     0.050     2.319     2.382
    73   1 H        0.926     0.033     2.545     2.495
    74   1 H        0.926     0.034     2.530     2.487
    75   1 H        0.926     0.032     2.562     2.503
    76   1 H        0.926     0.032     2.560     2.502
    77   1 H        0.926     0.032     2.565     2.505
    78   1 H        0.926     0.030     2.586     2.515
    79   1 H        0.926     0.031     2.570     2.507
    80   1 H        0.926     0.031     2.567     2.506
    81   1 H        0.926     0.031     2.568     2.506
    82   1 H        0.926     0.031     2.576     2.510
    83   1 H        0.926     0.029     2.595     2.519
    84   1 H        0.926     0.031     2.572     2.508
    85   1 H        0.926     0.031     2.566     2.505
    86   1 H        0.926     0.031     2.570     2.507
    87   1 H        0.926     0.032     2.554     2.499
    88   1 H        0.926     0.034     2.535     2.490
    89   1 H        0.926     0.037     2.484     2.465
    90   1 H        0.926     0.033     2.540     2.492
    91   1 H        0.926     0.032     2.556     2.500
    92   1 H        0.926     0.032     2.560     2.502
    93   1 H        0.926     0.032     2.561     2.503
    94   1 H        0.926     0.030     2.581     2.512
    95   1 H        0.926     0.031     2.569     2.507
    96   1 H        0.926     0.031     2.567     2.506
    97   1 H        0.926     0.032     2.563     2.504
    98   1 H        0.926     0.032     2.559     2.502
    99   1 H        0.926     0.030     2.580     2.512
   100   1 H        0.926     0.032     2.563     2.504
   101   1 H        0.926     0.032     2.565     2.504
   102   1 H        0.926     0.032     2.562     2.503
   103   1 H        0.926     0.032     2.552     2.498
   104   1 H        0.926     0.029     2.594     2.519
   105   1 H        0.926     0.025     2.654     2.548
   106   1 H        0.926     0.040     2.451     2.448
   107   1 H        0.926     0.042     2.418     2.432
   108   1 H        0.926     0.042     2.427     2.436
   109   1 H        0.926     0.042     2.420     2.433
   110   1 H        0.926     0.044     2.400     2.423
   111   1 H        0.926     0.034     2.525     2.485
   112   1 H        0.926     0.041     2.430     2.438

molecular dipole:
                 x           y           z       tot (Debye)
 q only:        1.196       1.296       0.040
   full:        1.637       1.883       0.089       6.346

 projected vibrational frequencies (cm⁻¹)
eigval :       -0.00    -0.00     0.00     0.00     0.00     0.00
eigval :        6.62     7.80     9.37    11.14    13.24    16.92
eigval :       23.41    26.99    32.55    36.42    37.86    44.53
eigval :       47.01    47.89    51.95    57.49    59.88    62.19
eigval :       68.63    71.90    74.41    82.05    95.26    95.98
eigval :       99.79   107.51   113.35   115.22   134.04   136.95
eigval :      146.88   155.05   173.29   185.08   206.03   206.98
eigval :      213.89   221.25   231.13   233.91   241.03   248.63
eigval :      257.88   261.96   274.66   301.72   309.29   312.32
eigval :      321.08   328.33   346.10   356.56   364.30   367.05
eigval :      373.54   376.29   377.92   378.61   379.72   380.48
eigval :      381.73   389.41   389.70   401.11   404.21   410.24
eigval :      418.43   431.78   440.42   454.89   463.68   470.79
eigval :      475.09   485.44   491.08   491.28   503.66   509.91
eigval :      515.36   519.17   532.29   535.71   546.98   565.70
eigval :      579.18   583.93   584.98   586.25   587.74   589.06
eigval :      593.75   593.90   596.65   603.71   612.35   614.79
eigval :      614.81   634.51   638.88   643.59   651.70   659.73
eigval :      660.12   663.96   667.17   669.85   676.70   682.78
eigval :      686.37   689.12   696.38   700.35   703.47   719.79
eigval :      724.42   735.33   757.09   757.23   758.77   761.02
eigval :      769.97   775.82   806.77   809.09   811.16   819.52
eigval :      831.02   836.21   858.07   865.65   867.36   868.36
eigval :      872.21   874.62   874.91   875.67   876.19   876.97
eigval :      878.06   891.83   892.28   892.90   893.51   901.73
eigval :      910.23   910.31   913.56   915.23   916.48   917.37
eigval :      919.18   923.32   925.38   927.46   927.58   927.73
eigval :      927.83   928.40   928.97   929.06   929.46   929.79
eigval :      930.02   930.66   931.15   933.14   950.76   953.84
eigval :      983.47   985.40   992.82  1005.02  1005.11  1010.18
eigval :     1020.19  1024.07  1042.99  1071.80  1079.03  1083.28
eigval :     1083.31  1084.27  1084.34  1085.69  1105.77  1114.87
eigval :     1121.93  1122.02  1124.22  1124.40  1133.99  1135.77
eigval :     1142.97  1144.60  1158.98  1178.80  1180.20  1180.30
eigval :     1180.79  1180.80  1181.45  1186.86  1187.38  1187.73
eigval :     1188.87  1195.65  1196.07  1196.94  1198.24  1206.14
eigval :     1217.06  1217.27  1230.21  1235.47  1247.24  1265.16
eigval :     1270.21  1272.72  1274.75  1278.02  1278.89  1279.92
eigval :     1280.23  1283.78  1289.30  1299.33  1308.32  1312.03
eigval :     1313.81  1314.25  1319.97  1320.18  1321.04  1324.22
eigval :     1326.09  1326.92  1327.15  1328.06  1331.70  1333.69
eigval :     1338.31  1349.24  1373.48  1397.16  1402.11  1404.00
eigval :     1416.51  1418.28  1430.94  1433.17  1436.43  1436.64
eigval :     1437.59  1443.62  1443.88  1460.22  1471.92  1472.49
eigval :     1476.53  1477.14  1479.01  1490.49  1492.15  1498.31
eigval :     1516.09  1537.97  1542.81  1554.92  1557.02  1559.46
eigval :     1566.56  1577.18  1577.37  1581.10  1581.24  1582.14
eigval :     1583.63  1586.03  1590.39  1593.35  1594.92  1595.32
eigval :     1597.74  1599.51  1603.07  1605.25  2370.68  3074.55
eigval :     3075.40  3075.44  3075.65  3075.65  3076.18  3076.42
eigval :     3076.77  3076.86  3077.29  3078.04  3078.12  3083.19
eigval :     3083.63  3083.99  3085.40  3085.65  3085.85  3086.39
eigval :     3086.54  3087.33  3087.75  3088.32  3088.90  3089.42
eigval :     3089.54  3089.76  3090.23  3090.50  3090.54  3091.39
eigval :     3096.63  3096.66  3097.27  3097.52  3097.83  3098.01
eigval :     3103.79  3103.85  3108.70  3112.35  3113.03  3114.06

   temp. (K)  partition function   enthalpy   heat capacity  entropy
                                   cal/mol     cal/K/mol   cal/K/mol   J/K/mol
 298.15  VIB  0.271E+29            33359.913    204.398    212.727
         ROT  0.396E+09              888.752      2.981     42.320
         INT  0.107E+38            34248.665    207.379    255.047
         TR   0.253E+29             1481.254      4.968     46.186
         TOT                       35729.9193   212.3471   301.2339  1260.3628

       T/K    H(0)-H(T)+PV         H(T)/Eh          T*S/Eh         G(T)/Eh
   ------------------------------------------------------------------------
    298.15    0.569393E-01    0.917998E+00    0.143126E+00    0.774872E+00
   ------------------------------------------------------------------------

         :::::::::::::::::::::::::::::::::::::::::::::::::::::
         ::                  THERMODYNAMIC                  ::
         :::::::::::::::::::::::::::::::::::::::::::::::::::::
         :: total free energy        -172.843342150793 Eh   ::
         ::.................................................::
         :: total energy             -173.618214159584 Eh   ::
         :: zero point energy           0.861058724260 Eh   ::
         :: G(RRHO) w/o ZPVE           -0.086186715469 Eh   ::
         :: G(RRHO) contrib.            0.774872008791 Eh   ::
         :::::::::::::::::::::::::::::::::::::::::::::::::::::

           -------------------------------------------------
          | TOTAL ENERGY             -173.618214159584 Eh   |
          | TOTAL ENTHALPY           -172.700216184571 Eh   |
          | TOTAL FREE ENERGY        -172.843342150793 Eh   |
          | GRADIENT NORM               0.000071001647 Eh/α |
          | HOMO-LUMO GAP               1.709980335290 eV   |
           -------------------------------------------------

 * finished run on 2025/08/25 at 05:21:11.257
