   * xtb version 6.7.1 (edcfbbe) compiled by 'albert@albert-system' on 2024-07-22

   ID    Z sym.   atoms
    1    7 N      1, 8, 18, 42, 61
    2    6 C      2-7, 9-17, 19-41, 43-60, 62-69
    3    1 H      70-112

          program call               : xtb data2507/gas/3,6-TC/3,6-TC_gas_S0_finalOpt.xtbopt.xyz --gfn 2 --spinpol --tblite --uhf 2 --ohess vtight --parallel 40 --molden --ceasefiles --namespace data2507/gas/3,6-TC/3,6-TC_gas_T1_preOpt
 * total energy  :  -173.5348595 Eh     change        0.6203081E-07 Eh
 * total energy  :  -173.5391385 Eh     change       -0.4279051E-02 Eh
 * total energy  :  -173.5408275 Eh     change       -0.1688980E-02 Eh
 * total energy  :  -173.5410568 Eh     change       -0.2292807E-03 Eh
 * total energy  :  -173.5413579 Eh     change       -0.3010951E-03 Eh
 * total energy  :  -173.5415107 Eh     change       -0.1528523E-03 Eh
 * total energy  :  -173.5416540 Eh     change       -0.1432195E-03 Eh
 * total energy  :  -173.5417611 Eh     change       -0.1071547E-03 Eh
 * total energy  :  -173.5418531 Eh     change       -0.9195940E-04 Eh
 * total energy  :  -173.5419402 Eh     change       -0.8709977E-04 Eh
 * total energy  :  -173.5423827 Eh     change        0.7640322E-06 Eh
 * total energy  :  -173.5423843 Eh     change       -0.1579596E-05 Eh
 * total energy  :  -173.5423813 Eh     change        0.2977697E-05 Eh
 * total energy  :  -173.5423871 Eh     change       -0.5829938E-05 Eh
 * total energy  :  -173.5423873 Eh     change       -0.2228941E-06 Eh
 * total energy  :  -173.5423874 Eh     change       -0.1265056E-07 Eh
 * total energy  :  -173.5423876 Eh     change       -0.2716760E-06 Eh
 * total energy  :  -173.5423879 Eh     change       -0.2975921E-06 Eh
 * total energy  :  -173.5423880 Eh     change       -0.9760026E-07 Eh
   *** GEOMETRY OPTIMIZATION CONVERGED AFTER 75 ITERATIONS ***

 final structure:
================
112
 xtb: 6.7.1 (edcfbbe)
N          -12.59989292680219       -3.45298113567887        0.14624873942957
C          -11.51005723571633       -3.08046536523302        0.13208621459687
C          -10.18625810241846       -2.62507538705396        0.11240438785901
C           -9.13803173646955       -3.48270757269954       -0.27710764632610
C           -7.85157790441935       -3.02679528514745       -0.30338545354375
C           -7.53447159621501       -1.68663859193194        0.04092907351931
C           -6.17133742783612       -1.30893918177731       -0.02126873826697
N           -5.19338751584682       -2.21844601700860       -0.07904626653513
C           -4.04325952384417       -1.55814791900824       -0.04160510461197
C           -2.73074885035777       -2.09934593176521       -0.04719066364088
C           -2.52028457960187       -3.48239520333865       -0.06985597678307
C           -1.24724468254341       -3.99887747720531       -0.06212799153488
C           -0.14621882856762       -3.13733238858269       -0.04104169998787
C            1.21969270995693       -3.66050782575437       -0.04210372274603
C            1.55136698351959       -4.81452949883297        0.67121629846415
C            2.84116122548116       -5.29667156530828        0.68874347491858
C            3.85143165474583       -4.64677453170719       -0.02471550338754
N            5.15961561036070       -5.12795996938909       -0.00799597544636
C            5.40144326684365       -6.50644009101710        0.05099505915702
C            4.59028582004413       -7.39678858357941       -0.65213610214029
C            4.83279794406386       -8.75509145694277       -0.58920068284458
C            5.88630375800047       -9.24563466603748        0.16506468796213
C            6.69747826181631       -8.36457798920909        0.86161409736103
C            6.45905049775354       -7.00500692694076        0.81108592739255
C            6.23763176557493       -4.23596209282637       -0.05107541992903
C            6.17505316676512       -3.01654372502721        0.62368069085621
C            7.23960231238936       -2.13808235819312        0.57262023325720
C            8.38299514383902       -2.46165967875424       -0.13968326638768
C            8.45300054383717       -3.67450969417546       -0.80566330569826
C            7.39042184410739       -4.55611324761543       -0.76819620122554
C            3.52348801684251       -3.50210046035993       -0.75534933853919
C            2.23491378469292       -3.01786373174156       -0.75500352680325
C           -0.36190675261105       -1.75951775145904       -0.01925552902636
C           -1.63798129979711       -1.20136994469294       -0.01995142550108
C           -1.87135159005787        0.24045731800685       -0.01482445187883
C           -0.82463080713857        1.13823028311247        0.00388919712546
C           -0.99107757044582        2.53378718668687       -0.05488240013842
C            0.14848733063175        3.41501750324557       -0.02453525653325
C            1.34358367324593        3.04711171978658        0.62405384992355
C            2.43504602950132        3.87684643598410        0.64795261244247
C            2.39981406157730        5.12465522371711        0.01166045768995
N            3.51392807833271        5.95903875525404        0.01919395159910
C            3.35305869289733        7.34844503877881        0.06205659612701
C            4.20790490943870        8.18015274785341       -0.66224319067329
C            4.04688710063922        9.55082691285223       -0.61542097453270
C            3.03372373954344       10.11303338515340        0.14472547005343
C            2.18118433818282        9.29101200625674        0.86429608140576
C            2.33693889436386        7.91936931133166        0.82928021574606
C            4.80092113038059        5.41105573319329       -0.01219513871621
C            5.06720101614623        4.27317118680496       -0.77516772395764
C            6.33701315246565        3.73095056707430       -0.79401178800561
C            7.36023914545295        4.31415845773258       -0.06375269495214
C            7.10265800980421        5.44814666193905        0.68996969277854
C            5.83471609515535        5.99425106954827        0.72173413509699
C            1.21594612203539        5.50874215521061       -0.63215992796473
C            0.12263520667401        4.68015194516763       -0.64191688128714
C           -2.31409018997310        3.02405631724353       -0.16691941045183
C           -3.37719260020803        2.17786909835997       -0.15007216282785
C           -3.21635081819729        0.76651334246280       -0.04522316585311
C           -4.26652060040445       -0.14288115566926        0.00493441733371
N           -5.64017738185034       -0.00858928298204        0.02258816634124
C           -6.38169527280161        1.18420901646117        0.00147610749590
C           -7.17583467065398        1.48625439645657       -1.10206343927905
C           -7.91894820693491        2.65153622758954       -1.11394152164417
C           -7.87418060874138        3.51970125359247       -0.03467660297397
C           -7.08226401972282        3.22027536742221        1.06298673196624
C           -6.33687920139937        2.05666413992784        1.08733769913982
C           -8.59277434489513       -0.84740964583396        0.46382662923889
C           -9.88146452434461       -1.30672797264355        0.49692475712529
H           -9.36885795718136       -4.50098959920290       -0.55478113944728
H           -7.03950056637902       -3.67131552152949       -0.59937455438086
H           -3.38798059779171       -4.12283155409077       -0.09405887326056
H           -1.09325362502348       -5.06677840286561       -0.10024292750120
H            0.79208128116243       -5.31726518565287        1.25135209201448
H            3.08269174815383       -6.17571495901143        1.26810218300084
H            3.77608691804729       -7.01462852556192       -1.25028809798798
H            4.19961873879568       -9.43447071318526       -1.14032306457678
H            6.07416900534154      -10.30747403080509        0.20943305425982
H            7.51767068459476       -8.73900184180195        1.45605117888061
H            7.08595799934014       -6.31981219766095        1.36277580682217
H            5.29004820324893       -2.76823095513436        1.19098634084278
H            7.17889041150183       -1.19780680197191        1.10068827606575
H            9.21424649926561       -1.77409505989805       -0.17451726478588
H            9.33883723486649       -3.93319775234908       -1.36659997727758
H            7.44272156870145       -5.49611291958014       -1.29764002201313
H            4.28908835201749       -3.00364488084253       -1.33182918868100
H            2.00020405957590       -2.14691941911087       -1.34887818816447
H            0.50861967876637       -1.12488310594214        0.02281046105157
H            0.18718224151614        0.76814424390180        0.01862474693391
H            1.39217824959503        2.11097882433102        1.15911213505360
H            3.32868093733588        3.58018292098897        1.17793281014355
H            4.99054171641452        7.74235556419342       -1.26442034472923
H            4.71214242401333       10.18427532129413       -1.18314692977732
H            2.90973885850417       11.18460656807876        0.17645758309157
H            1.39360576961044        9.72167334049156        1.46461397211547
H            1.68078003959903        7.27975157315799        1.40103948118541
H            4.27381545630858        3.82629791342138       -1.35600509415759
H            6.53095285294613        2.85141318082409       -1.38999563051087
H            8.35188796969600        3.88867486453721       -0.08281050484145
H            7.89347217658168        5.90635431238502        1.26512351815525
H            5.63263810607236        6.87045508733751        1.32015021651581
H            1.17839216002083        6.45975472055930       -1.14351848474097
H           -0.76002453847518        4.99036483556775       -1.17965012775661
H           -2.48590199850545        4.08792314102721       -0.22847192900720
H           -4.37323507044317        2.58125744459513       -0.23207666082466
H           -7.20783546605697        0.80025727249171       -1.93547167422819
H           -8.53405476921608        2.88382244489413       -1.97023117459075
H           -8.45730933829901        4.42794107137759       -0.04738402017031
H           -7.04930043785228        3.89309844452680        1.90696714172236
H           -5.71923953699708        1.81186993087100        1.93924752200974
H           -8.38905168456225        0.15568097765238        0.80138591676353
H          -10.68076475384692       -0.65910379818980        0.82814603789479

 projected vibrational frequencies (cm⁻¹)
eigval :       -0.00    -0.00    -0.00     0.00     0.00     0.00
eigval :        5.78     7.53     9.27    10.11    12.44    17.57
eigval :       25.04    25.46    32.40    35.49    37.93    41.37
eigval :       47.19    47.74    51.96    57.32    60.10    61.68
eigval :       68.64    73.49    75.73    85.36    92.33    95.57
eigval :      100.05   105.87   112.28   116.52   134.54   136.59
eigval :      146.32   155.99   169.55   186.33   198.27   205.81
eigval :      215.98   223.76   231.03   233.99   239.89   241.90
eigval :      255.90   261.04   270.13   293.60   305.71   310.07
eigval :      316.87   325.10   336.16   354.20   359.42   365.88
eigval :      368.67   373.46   377.34   377.89   378.05   379.29
eigval :      379.82   388.95   390.45   397.49   401.32   403.74
eigval :      410.43   413.19   425.38   441.96   450.00   465.32
eigval :      468.52   474.10   481.51   491.99   501.95   506.01
eigval :      510.24   512.20   516.07   531.18   537.35   544.87
eigval :      576.82   581.45   583.71   584.50   585.66   588.02
eigval :      590.93   592.89   593.54   602.33   604.52   610.19
eigval :      611.30   612.55   624.07   641.18   645.56   657.02
eigval :      658.93   659.94   663.13   666.21   667.09   669.92
eigval :      676.04   679.58   682.66   691.99   696.94   713.47
eigval :      720.61   724.09   756.71   756.95   757.51   760.18
eigval :      762.45   769.00   793.04   798.91   803.67   809.92
eigval :      815.76   833.80   839.28   839.69   850.20   856.99
eigval :      861.34   868.83   873.17   873.30   874.18   874.35
eigval :      875.80   893.67   893.90   894.15   894.95   896.61
eigval :      905.33   907.57   909.24   910.04   910.91   912.70
eigval :      913.01   914.43   915.21   919.62   921.12   926.39
eigval :      927.22   927.65   927.98   928.53   929.03   929.12
eigval :      929.37   929.59   929.72   929.79   931.43   937.81
eigval :      977.87   982.20   983.86   993.51  1000.56  1003.62
eigval :     1004.93  1014.24  1027.81  1056.03  1067.59  1077.78
eigval :     1081.57  1082.81  1082.98  1083.89  1091.01  1104.60
eigval :     1116.05  1121.78  1121.92  1123.91  1124.07  1132.91
eigval :     1135.19  1140.38  1146.01  1148.98  1168.89  1179.28
eigval :     1179.62  1179.88  1180.01  1180.19  1180.54  1183.71
eigval :     1185.89  1193.22  1194.06  1194.52  1195.80  1198.54
eigval :     1213.20  1217.80  1219.38  1229.53  1239.30  1247.85
eigval :     1258.75  1267.68  1272.03  1272.86  1275.16  1277.30
eigval :     1277.82  1279.48  1280.45  1288.65  1298.40  1305.08
eigval :     1308.66  1311.09  1313.03  1313.78  1317.47  1318.26
eigval :     1321.29  1325.34  1325.91  1327.25  1328.01  1329.39
eigval :     1332.90  1344.34  1353.83  1365.64  1392.72  1408.15
eigval :     1412.27  1423.18  1428.99  1430.29  1432.60  1433.76
eigval :     1435.92  1437.20  1440.55  1441.87  1442.62  1457.06
eigval :     1464.84  1465.92  1468.22  1468.46  1470.48  1472.07
eigval :     1476.88  1491.74  1501.88  1512.62  1521.54  1528.98
eigval :     1546.64  1550.19  1559.50  1570.06  1571.08  1574.06
eigval :     1575.74  1575.84  1579.79  1583.52  1586.78  1588.16
eigval :     1591.41  1591.52  1593.52  1598.80  2312.14  3076.67
eigval :     3077.11  3078.33  3078.39  3078.48  3078.57  3078.89
eigval :     3079.23  3079.47  3079.55  3080.06  3080.14  3080.61
eigval :     3081.21  3081.97  3083.11  3085.62  3085.97  3087.47
eigval :     3088.26  3088.31  3089.13  3089.40  3090.03  3090.79
eigval :     3091.36  3091.40  3092.06  3092.29  3093.82  3093.87
eigval :     3097.05  3098.69  3098.96  3099.82  3100.14  3100.66
eigval :     3101.06  3107.15  3111.90  3114.00  3117.10  3121.18

   temp. (K)  partition function   enthalpy   heat capacity  entropy
                                   cal/mol     cal/K/mol   cal/K/mol   J/K/mol
 298.15  VIB  0.519E+29            33643.182    206.171    214.502
         ROT  0.396E+09              888.752      2.981     42.322
         INT  0.205E+38            34531.935    209.152    256.824
         TR   0.253E+29             1481.254      4.968     46.186
         TOT                       36013.1885   214.1198   303.0104  1267.7956

       T/K    H(0)-H(T)+PV         H(T)/Eh          T*S/Eh         G(T)/Eh
   ------------------------------------------------------------------------
    298.15    0.573907E-01    0.914257E+00    0.143970E+00    0.770287E+00
   ------------------------------------------------------------------------

         :::::::::::::::::::::::::::::::::::::::::::::::::::::
         ::                  THERMODYNAMIC                  ::
         :::::::::::::::::::::::::::::::::::::::::::::::::::::
         :: total free energy        -172.772100867562 Eh   ::
         ::.................................................::
         :: total energy             -173.542388029615 Eh   ::
         :: zero point energy           0.856866523496 Eh   ::
         :: G(RRHO) w/o ZPVE           -0.086579361443 Eh   ::
         :: G(RRHO) contrib.            0.770287162053 Eh   ::
         :::::::::::::::::::::::::::::::::::::::::::::::::::::

           -------------------------------------------------
          | TOTAL ENERGY             -173.542388029615 Eh   |
          | TOTAL ENTHALPY           -172.628130837168 Eh   |
          | TOTAL FREE ENERGY        -172.772100867562 Eh   |
          | GRADIENT NORM               0.000076491883 Eh/α |
           -------------------------------------------------

 * finished run on 2025/08/25 at 05:21:38.432
