   * xtb version 6.7.1 (edcfbbe) compiled by 'albert@albert-system' on 2024-07-22

   ID    Z sym.   atoms
    1    7 N      1, 8, 18, 42, 61
    2    6 C      2-7, 9-17, 19-41, 43-60, 62-69
    3    1 H      70-112

          program call               : xtb data2507/gas/3,6-TC/3,6-TC_gas_T1_crest.xyz --gfn 2 --spinpol --tblite --uhf 2 --ohess vtight --parallel 40 --molden --ceasefiles --namespace data2507/gas/3,6-TC/3,6-TC_gas_T1_finalOpt
 * total energy  :  -173.5423187 Eh     change       -0.1615479E-07 Eh
 * total energy  :  -173.5423252 Eh     change       -0.6495680E-05 Eh
 * total energy  :  -173.5423291 Eh     change       -0.3850305E-05 Eh
 * total energy  :  -173.5423306 Eh     change       -0.1484599E-05 Eh
 * total energy  :  -173.5423317 Eh     change       -0.1118371E-05 Eh
 * total energy  :  -173.5423334 Eh     change       -0.1721357E-05 Eh
 * total energy  :  -173.5423352 Eh     change       -0.1754020E-05 Eh
 * total energy  :  -173.5423379 Eh     change       -0.2696610E-05 Eh
 * total energy  :  -173.5423387 Eh     change       -0.8046218E-06 Eh
 * total energy  :  -173.5423399 Eh     change       -0.1225994E-05 Eh
 * total energy  :  -173.5423788 Eh     change       -0.2372756E-06 Eh
 * total energy  :  -173.5423791 Eh     change       -0.2919070E-06 Eh
 * total energy  :  -173.5423796 Eh     change       -0.4871442E-06 Eh
 * total energy  :  -173.5423801 Eh     change       -0.5643921E-06 Eh
 * total energy  :  -173.5423809 Eh     change       -0.7238399E-06 Eh
 * total energy  :  -173.5423814 Eh     change       -0.4950756E-06 Eh
 * total energy  :  -173.5423817 Eh     change       -0.3868594E-06 Eh
 * total energy  :  -173.5423817 Eh     change        0.3097071E-07 Eh
 * total energy  :  -173.5423817 Eh     change       -0.3387598E-07 Eh
   *** GEOMETRY OPTIMIZATION CONVERGED AFTER 45 ITERATIONS ***

 final structure:
================
112
 xtb: 6.7.1 (edcfbbe)
N          -12.60423086116288       -3.37662334101273        0.12191090627216
C          -11.51194110124485       -3.01151681899209        0.10864537350727
C          -10.18506252066798       -2.56470779837080        0.09035384564546
C           -9.14223204667099       -3.42851041860409       -0.29958365554762
C           -7.85275731278687       -2.98072462730268       -0.32453999123626
C           -7.52762471424493       -1.64313741932689        0.02125017731454
C           -6.16190149555904       -1.27331614059965       -0.03983063910213
N           -5.18891660684633       -2.18797074402026       -0.09313225343867
C           -4.03534894751411       -1.53317669953778       -0.05629057582655
C           -2.72569024148575       -2.08086455655502       -0.05595196654846
C           -2.52400556571423       -3.46532516948883       -0.06825398238835
C           -1.25440731333046       -3.98936272194783       -0.05086029830276
C           -0.14812009089823       -3.13446920746532       -0.03013237961739
C            1.21275612817284       -3.67053603833434       -0.02016166755290
C            1.52796014408481       -4.82158609508932        0.70550913083110
C            2.81027226040313       -5.32265480995490        0.72740488177691
C            3.82948757484339       -4.69632826758192        0.00544458623242
N            5.12828172617430       -5.20187771748453        0.02183892303244
C            5.34379699507896       -6.58413978935356        0.09744641047282
C            4.51463593352828       -7.46768526235507       -0.59310438963404
C            4.73120406486870       -8.82948324717101       -0.51307435968076
C            5.77635345745265       -9.33042120889785        0.24597334597928
C            6.60559616082949       -8.45622443563846        0.92975593583719
C            6.39317688535227       -7.09307776747044        0.86202991919940
C            6.22416761954024       -4.33296339281057       -0.03830469779216
C            6.19155205458136       -3.10460583671780        0.62208440504660
C            7.27455399088522       -2.25008450116389        0.55475530132949
C            8.40661409432012       -2.60662982369473       -0.15989507169289
C            8.44670609472925       -3.82843943366094       -0.81182749652989
C            7.36566674576486       -4.68638217544518       -0.75788943119777
C            3.51885774702032       -3.55225797724716       -0.73372941642218
C            2.23767394381437       -3.04833642270489       -0.73704948275229
C           -0.35489165517005       -1.75509209217993       -0.02065159039071
C           -1.62765406087989       -1.18907185351430       -0.03169468020385
C           -1.85354649635064        0.25428337928071       -0.03721455378008
C           -0.80251578850526        1.14720435313869       -0.02842058028523
C           -0.96253750990065        2.54389964016392       -0.09007111284081
C            0.17787842462714        3.42360421885882       -0.06311860602007
C            1.37985294217955        3.05145074163554        0.57074355098503
C            2.46720603733197        3.88642281453583        0.60119615906962
C            2.42045763338756        5.14554290792280       -0.01161810007578
N            3.52610562889602        5.99104660892339        0.01078232943028
C            3.34901737400875        7.37690491607125        0.09000001764487
C            4.19094857546552        8.23758103194492       -0.61532784338764
C            4.01372285334277        9.60452409887559       -0.53182248871736
C            2.99697043845319       10.13436398678047        0.24656930163401
C            2.15697857172420        9.28350840653364        0.94713153176194
C            2.32893974115268        7.91525859284150        0.87537934082314
C            4.81859566789111        5.45830281705125       -0.03856564231735
C            5.09307004601355        4.34026326321867       -0.82753919524686
C            6.36879414790059        3.81314440731038       -0.86541164900541
C            7.38966470529085        4.39180463823697       -0.12827158749077
C            7.12368155348081        5.50580647712693        0.65190159339324
C            5.84995325801679        6.03672007271337        0.70263969968291
C            1.23221081143718        5.53160841460571       -0.64611336678386
C            0.14414644129810        4.69672373534575       -0.66459102057295
C           -2.28444321260916        3.03933761114538       -0.19611440380063
C           -3.35105681378528        2.19815045194519       -0.17450780406002
C           -3.19632937575185        0.78639083390469       -0.06711420169248
C           -4.25142932171025       -0.11693593082741       -0.01461295749273
N           -5.62451584427327        0.02434304423471        0.00098649232761
C           -6.36148345109562        1.21982727855046       -0.02831007458681
C           -7.15215779312001        1.51828260615983       -1.13527307193541
C           -7.89184375098120        2.68562673225619       -1.15517994881320
C           -7.84709497851487        3.55942169220974       -0.08048055753713
C           -7.05861932229467        3.26359096325275        1.02061656068008
C           -6.31671521219251        2.09792696969379        1.05300413967974
C           -8.58050759480527       -0.79774567475391        0.44471237812637
C           -9.87220206157824       -1.24894069782928        0.47680325451511
H           -9.37936027425524       -4.44490468101551       -0.57885587119425
H           -7.04467590441940       -3.63008667942950       -0.62092531690955
H           -3.39568325227118       -4.10034549202276       -0.09166247752058
H           -1.10665762714233       -5.05840541011421       -0.08074825226655
H            0.76152855442588       -5.30718303358179        1.29082917071162
H            3.03887122040195       -6.19933544471869        1.31551149732245
H            3.70680741264820       -7.07769313699683       -1.19482345349832
H            4.08415137524367       -9.50363121200840       -1.05441962534670
H            5.94377289325466      -10.39502908626875        0.30390025226386
H            7.41955455661244       -8.83864663789159        1.52765805947740
H            7.03420385569935       -6.41296079868380        1.40368964660067
H            5.31535116782396       -2.83065945410840        1.19125267462793
H            7.23720886537435       -1.30257804670215        1.07192663444325
H            9.25225679185290       -1.93763250362530       -0.20743905045116
H            9.32355514026707       -4.11282548701730       -1.37444383940236
H            7.39472183131042       -5.63362499062581       -1.27610489633061
H            4.29146639240139       -3.07055111028140       -1.31507230326805
H            2.01595731355384       -2.17866363027354       -1.33778789554085
H            0.51957572749100       -1.12574770768570        0.02121376994099
H            0.20733909402114        0.77167671953706       -0.01813374657817
H            1.43748522460517        2.10726251177251        1.09041468222692
H            3.36587036952418        3.58577657913092        1.12035296526441
H            4.97638335643371        7.82525477033157       -1.23166790455663
H            4.66915002485359       10.26066298187335       -1.08502172655727
H            2.86048332526059       11.20317609720667        0.30714859652838
H            1.36664323351692        9.68871107549914        1.56139159029739
H            1.68255568222036        7.25300399610855        1.43229925144587
H            4.30133086527785        3.89735364255089       -1.41363808443823
H            6.56916281541940        2.94922267412695       -1.48173663517945
H            8.38592994159545        3.97821399533035       -0.16230209587599
H            7.91256779524037        5.96009268601464        1.23278879142573
H            5.64152485710881        6.89710536118204        1.32147798953214
H            1.18705320472412        6.49034479641562       -1.14225858473870
H           -0.74151148313535        5.01000513537697       -1.19542367575203
H           -2.45283200939666        4.10368287211779       -0.25741208643167
H           -4.34548297064571        2.60598754291342       -0.25361514091571
H           -7.18417567451845        0.82795976418434       -1.96510833225982
H           -8.50418436024317        2.91514188265647       -2.01419582159357
H           -8.42758655081703        4.46924482392251       -0.09940112756118
H           -7.02576171971371        3.94076596659086        1.86111904104275
H           -5.70208892794239        1.85576884530659        1.90785162406157
H           -8.37045144064154        0.20356021100972        0.78376229184728
H          -10.66745917299812       -0.59671698117543        0.80871921327344

 projected vibrational frequencies (cm⁻¹)
eigval :       -0.00    -0.00     0.00     0.00     0.00     0.00
eigval :        5.62     8.13     9.27    10.03    12.71    17.61
eigval :       25.05    25.79    32.41    35.62    37.90    41.13
eigval :       47.32    47.77    52.04    57.41    60.06    61.65
eigval :       68.91    73.47    75.66    85.42    92.28    95.96
eigval :       99.68   106.24   112.34   117.18   134.39   136.46
eigval :      146.23   155.74   169.57   186.03   197.97   205.83
eigval :      216.16   223.66   231.01   233.95   240.05   241.71
eigval :      256.00   260.83   270.23   293.97   305.40   309.98
eigval :      316.97   325.04   335.97   354.21   359.47   365.84
eigval :      368.84   373.58   377.41   377.84   378.07   379.46
eigval :      379.80   388.93   389.79   397.44   401.41   403.53
eigval :      410.54   413.22   425.49   441.87   449.97   465.33
eigval :      468.63   474.11   480.99   491.89   501.91   506.17
eigval :      510.54   512.03   516.52   531.02   537.32   544.67
eigval :      576.80   581.39   583.77   584.62   585.73   588.07
eigval :      590.98   592.92   593.64   602.44   604.57   610.33
eigval :      611.32   612.65   624.02   641.39   645.59   657.12
eigval :      658.86   659.98   663.14   666.18   667.09   669.99
eigval :      676.10   679.59   682.57   691.92   697.15   713.39
eigval :      720.65   724.10   756.74   756.85   757.52   760.18
eigval :      762.66   769.29   792.69   798.48   803.89   809.97
eigval :      815.23   833.74   839.19   839.66   848.94   856.80
eigval :      861.39   868.73   873.10   873.39   874.34   874.51
eigval :      875.83   893.55   893.89   894.13   894.99   896.58
eigval :      904.96   907.66   909.14   909.99   910.56   912.29
eigval :      912.39   914.62   915.23   919.71   920.53   926.43
eigval :      927.28   927.62   928.05   928.86   929.04   929.25
eigval :      929.35   929.60   929.74   929.79   931.52   937.90
eigval :      977.81   982.26   983.68   993.30  1000.10  1003.46
eigval :     1004.80  1013.97  1027.51  1055.84  1066.87  1077.61
eigval :     1081.62  1082.61  1082.75  1083.63  1090.83  1104.53
eigval :     1115.74  1121.56  1121.66  1123.74  1123.83  1132.73
eigval :     1135.24  1139.86  1145.95  1148.81  1169.65  1179.67
eigval :     1179.80  1179.86  1180.06  1180.17  1180.49  1183.49
eigval :     1185.67  1193.28  1194.12  1194.49  1195.66  1198.77
eigval :     1212.81  1217.39  1219.34  1230.95  1239.21  1248.07
eigval :     1258.73  1267.86  1272.14  1273.04  1275.14  1277.38
eigval :     1277.80  1279.54  1280.49  1288.96  1298.39  1305.64
eigval :     1308.45  1311.13  1312.99  1313.71  1317.33  1318.44
eigval :     1321.37  1325.29  1325.76  1327.22  1328.09  1329.40
eigval :     1333.00  1344.29  1353.12  1366.02  1392.67  1408.49
eigval :     1412.39  1423.03  1429.11  1430.35  1432.55  1433.71
eigval :     1435.95  1437.15  1440.57  1441.85  1442.57  1457.60
eigval :     1464.75  1465.96  1468.11  1468.47  1470.44  1472.10
eigval :     1476.98  1491.47  1501.13  1513.60  1521.73  1528.60
eigval :     1546.57  1550.52  1559.48  1569.97  1570.85  1574.23
eigval :     1575.62  1575.75  1579.66  1583.59  1586.59  1588.09
eigval :     1591.34  1591.39  1593.62  1598.81  2312.71  3076.68
eigval :     3077.30  3078.41  3078.42  3078.66  3078.72  3079.03
eigval :     3079.34  3079.56  3079.64  3080.12  3080.24  3080.68
eigval :     3081.34  3082.24  3083.13  3086.00  3086.21  3087.54
eigval :     3088.28  3088.34  3089.17  3089.36  3090.04  3090.93
eigval :     3091.55  3091.62  3092.32  3092.93  3093.84  3093.93
eigval :     3098.06  3098.34  3098.81  3099.82  3100.04  3100.60
eigval :     3100.99  3107.23  3112.11  3113.88  3117.01  3121.66

   temp. (K)  partition function   enthalpy   heat capacity  entropy
                                   cal/mol     cal/K/mol   cal/K/mol   J/K/mol
 298.15  VIB  0.478E+29            33641.978    206.188    214.426
         ROT  0.399E+09              888.752      2.981     42.335
         INT  0.190E+38            34530.730    209.169    256.761
         TR   0.253E+29             1481.254      4.968     46.186
         TOT                       36011.9839   214.1369   302.9477  1267.5334

       T/K    H(0)-H(T)+PV         H(T)/Eh          T*S/Eh         G(T)/Eh
   ------------------------------------------------------------------------
    298.15    0.573887E-01    0.914257E+00    0.143940E+00    0.770317E+00
   ------------------------------------------------------------------------

         :::::::::::::::::::::::::::::::::::::::::::::::::::::
         ::                  THERMODYNAMIC                  ::
         :::::::::::::::::::::::::::::::::::::::::::::::::::::
         :: total free energy        -172.772065056842 Eh   ::
         ::.................................................::
         :: total energy             -173.542381643655 Eh   ::
         :: zero point energy           0.856868087870 Eh   ::
         :: G(RRHO) w/o ZPVE           -0.086551501057 Eh   ::
         :: G(RRHO) contrib.            0.770316586813 Eh   ::
         :::::::::::::::::::::::::::::::::::::::::::::::::::::

           -------------------------------------------------
          | TOTAL ENERGY             -173.542381643655 Eh   |
          | TOTAL ENTHALPY           -172.628124806455 Eh   |
          | TOTAL FREE ENERGY        -172.772065056842 Eh   |
          | GRADIENT NORM               0.000161933319 Eh/α |
           -------------------------------------------------

 * finished run on 2025/08/25 at 05:41:16.820
