   * xtb version 6.7.1 (edcfbbe) compiled by 'albert@albert-system' on 2024-07-22

   ID    Z sym.   atoms
    1    7 N      1, 8, 18, 42, 61
    2    6 C      2-7, 9-17, 19-41, 43-60, 62-69
    3    1 H      70-112

          program call               : xtb data2507/gas/3,6-TC/3,6-TC.xyz --gfn 2 --ohess vtight --parallel 40 --molden --ceasefiles --namespace data2507/gas/3,6-TC/3,6-TC_gas_S0_preOpt
          :  Hamiltonian                  GFN2-xTB          :
 * total energy  :  -173.5770990 Eh     change       -0.2180428E-08 Eh
 * total energy  :  -173.5964159 Eh     change       -0.1931690E-01 Eh
 * total energy  :  -173.6039070 Eh     change       -0.7491084E-02 Eh
 * total energy  :  -173.6068691 Eh     change       -0.2962123E-02 Eh
 * total energy  :  -173.6086633 Eh     change       -0.1794227E-02 Eh
 * total energy  :  -173.6094756 Eh     change       -0.8122619E-03 Eh
 * total energy  :  -173.6098950 Eh     change       -0.4193574E-03 Eh
 * total energy  :  -173.6102317 Eh     change       -0.3367798E-03 Eh
 * total energy  :  -173.6106221 Eh     change       -0.3903400E-03 Eh
 * total energy  :  -173.6110625 Eh     change       -0.4403851E-03 Eh
 * total energy  :  -173.6175905 Eh     change       -0.2387239E-06 Eh
 * total energy  :  -173.6175907 Eh     change       -0.1875243E-06 Eh
 * total energy  :  -173.6175909 Eh     change       -0.1520341E-06 Eh
 * total energy  :  -173.6175910 Eh     change       -0.1367410E-06 Eh
 * total energy  :  -173.6175912 Eh     change       -0.1723014E-06 Eh
 * total energy  :  -173.6175914 Eh     change       -0.2103111E-06 Eh
 * total energy  :  -173.6175916 Eh     change       -0.1875883E-06 Eh
 * total energy  :  -173.6175917 Eh     change       -0.1422423E-06 Eh
 * total energy  :  -173.6175918 Eh     change       -0.9990447E-07 Eh
   *** GEOMETRY OPTIMIZATION CONVERGED AFTER 172 ITERATIONS ***

 final structure:
================
112
 xtb: 6.7.1 (edcfbbe)
N          -12.38968861803327       -5.28029798983160        0.23707542167612
C          -11.34836891876033       -4.80135449440700        0.19619210377572
C          -10.06803362114816       -4.20735632048760        0.14803647581706
C           -9.87587151526420       -3.02149161553705       -0.56214471389316
C           -8.62966336341518       -2.43258714314361       -0.60247322494645
C           -7.55302265982960       -3.01119162461278        0.07275165417217
C           -6.21285982686348       -2.45625626228264        0.06918197999332
N           -5.14239329687866       -3.21035600487769        0.15070260094632
C           -4.08235941335059       -2.36747878967880        0.09991051987325
C           -2.70001642772900       -2.70087855991544        0.10710071782648
C           -2.27073751634049       -4.03085899354238        0.16325205446246
C           -0.93481790554828       -4.33306102534488        0.13037989709970
C            0.01556611914975       -3.30638428933318        0.03678934335685
C            1.44848102247128       -3.62446399616441       -0.01374855529175
C            2.38266966269312       -2.85068317784427        0.67331547441981
C            3.72810096253372       -3.14810579555271        0.62607004387030
C            4.18594167991843       -4.23849392650197       -0.11410929912808
N            5.54890879658278       -4.54489923529104       -0.16396090852047
C            6.35007092619704       -4.36499791625213        0.96928131886230
C            5.84783502268183       -4.63595319943984        2.24203977555641
C            6.64247129309526       -4.45409977515329        3.35699532339133
C            7.94778583466653       -4.00954892431191        3.22444375178220
C            8.45286526638693       -3.74282963434130        1.96237511154101
C            7.66353722648174       -3.91323946081725        0.84184683133020
C            6.11278475322550       -5.03721932258813       -1.34661977400095
C            5.69074206502956       -4.55529659093247       -2.58563243704975
C            6.24764618797995       -5.04694682469529       -3.74999228109668
C            7.23612492801871       -6.01620286991700       -3.70109029000986
C            7.66200110934139       -6.49514389134880       -2.47296239882490
C            7.10526131895487       -6.01615576811475       -1.30322305611989
C            3.25607093828794       -5.01764033778711       -0.80330379439563
C            1.91274350692124       -4.71249510892289       -0.75153431600325
C           -0.41186137124712       -1.99042152275469       -0.00946467092195
C           -1.76716249054512       -1.64233114936008        0.03198154156713
C           -2.22640347635828       -0.26218244579308        0.02082477903652
C           -1.32432327772814        0.80601409889157        0.04044574453906
C           -1.72859899927860        2.12923417801329        0.07092568899642
C           -0.74128951293387        3.21388219636574        0.09304961394501
C            0.42834814359839        3.10596095945083        0.84453997515699
C            1.35415837760193        4.12638348148499        0.87216832026784
C            1.14733656027522        5.29080912542759        0.13103480897819
N            2.08761813041216        6.32289863222520        0.14840706668986
C            1.66669845055544        7.65693459681941        0.09220514281369
C            2.39857399494076        8.59877278867655       -0.63050308730925
C            1.98322632640526        9.91517233934469       -0.67836152562585
C            0.83253741555761       10.31292367245745       -0.01748079513718
C            0.09984214800411        9.38055682765963        0.69861785310120
C            0.51154100140228        8.06354727524159        0.75962019492292
C            3.45396198332224        6.02679808240710        0.22486744862359
C            3.97799096937411        4.92278385434768       -0.44718297353758
C            5.32589597675955        4.63284726356557       -0.36402909906892
C            6.17309377176422        5.43920870837326        0.37823115063317
C            5.65866669334312        6.54029509442890        1.04297333688815
C            4.31059713346332        6.83317550186342        0.97379798442486
C           -0.01896339978454        5.40249213353234       -0.62736305288211
C           -0.94760469719826        4.38407100336994       -0.63640512267676
C           -3.09950184241467        2.41134458955948        0.09612801348441
C           -4.01612472402184        1.39259609313169        0.07615454842441
C           -3.61391706023388        0.05009912400453        0.02097722383174
C           -4.52085478816706       -1.04551572811254        0.00366067896444
N           -5.89394848215675       -1.11814663976187       -0.02833039936670
C           -6.82139363786138       -0.06019242064497       -0.11753488486210
C           -6.90199468415404        0.69773819493662       -1.28227395030329
C           -7.83417657002839        1.71480537023337       -1.37229702666881
C           -8.68736879207402        1.97422566791569       -0.31134442514090
C           -8.60664595344369        1.21695456614053        0.84540433857059
C           -7.67534968438809        0.19911490555790        0.94778597849040
C           -7.74852499192954       -4.21486879596887        0.75880954550254
C           -8.98931901273845       -4.80870327524494        0.80161831063446
H          -10.70765826420963       -2.57196834416058       -1.08448900950734
H           -8.49476031187853       -1.53208018535133       -1.18081700470846
H           -3.02273729398732       -4.80182626615117        0.22849613417874
H           -0.60597133113418       -5.35980924606716        0.19160479158153
H            2.04823565597436       -2.01212348691859        1.26657391827969
H            4.43753493606903       -2.53563459194656        1.16342833806617
H            4.83375297023125       -4.99288291797335        2.34777023987835
H            6.24160598916067       -4.67022400484644        4.33650013645711
H            8.56684595552546       -3.87231701262651        4.09800077980980
H            9.46783260677303       -3.39084701750497        1.84930994759089
H            8.05700938787453       -3.69549530101497       -0.14039981782677
H            4.92704094961953       -3.79237705940317       -2.62633139201149
H            5.91284183189878       -4.66348050909682       -4.70273544030377
H            7.67126193503858       -6.39555836097855       -4.61316782707768
H            8.42826247540060       -7.25493943263937       -2.42497053278488
H            7.43219769321148       -6.39865572550638       -0.34730333707801
H            3.59683181677505       -5.86646272397117       -1.37806892964531
H            1.21120113487501       -5.32010836144002       -1.30396875538427
H            0.34146177424415       -1.22515064129220       -0.10821635484094
H           -0.26483313237241        0.60909340088148        0.02024378813231
H            0.59781657897874        2.22307312678876        1.44337237995910
H            2.24507791202625        4.03290211162699        1.47582664309550
H            3.29116716862774        8.28912110946309       -1.15426792237771
H            2.55833176265066       10.63405754084464       -1.24327040386983
H            0.50949603662136       11.34197603363892       -0.05977983044769
H           -0.79533687171324        9.68272082436270        1.22225257207867
H           -0.05545614371227        7.34061906969536        1.32786433150576
H            3.32162047150792        4.29869097439880       -1.03595343505411
H            5.71876988097244        3.77527765619785       -0.89030227848947
H            7.22645536600843        5.21128741240798        0.43799803653181
H            6.31063162870138        7.17217988960849        1.62805418840393
H            3.91038449903324        7.68658232263753        1.50147640444676
H           -0.18644731107440        6.29328717235615       -1.21502752953950
H           -1.83410293242957        4.48256013119756       -1.24576171802517
H           -3.43524681491463        3.43571545929393        0.16027440771725
H           -5.06673471166964        1.63112237983144        0.12499841381115
H           -6.23170135558732        0.48475845618609       -2.10231270735318
H           -7.89668896952121        2.30347320717827       -2.27508021410719
H           -9.41548514631601        2.76728285575594       -0.38732895071159
H           -9.26962460710941        1.41908390697366        1.67283585780352
H           -7.60437018086819       -0.39883368529192        1.84430068396133
H           -6.90187211857340       -4.66502882130441        1.25238347421191
H           -9.13918108610138       -5.73436782456819        1.33738229806019

          :  Hamiltonian                  GFN2-xTB          :
         :: gradient norm              0.000021037021 Eh/a0 ::
         :: HOMO-LUMO gap              1.705177477541 eV    ::
         :: SCC energy              -176.933936769394 Eh    ::
         :: -> dispersion             -0.160327654155 Eh    ::
         :: repulsion energy           3.316344939129 Eh    ::

    * Orbital Energies and Occupations

         #    Occupation            Energy/Eh            Energy/eV
      -------------------------------------------------------------
         1        2.0000           -0.6937906             -18.8790
       ...           ...                  ...                  ...
       150        2.0000           -0.4072648             -11.0822
       151        2.0000           -0.4065563             -11.0630
       152        2.0000           -0.4064251             -11.0594
       153        2.0000           -0.4060408             -11.0489
       154        2.0000           -0.4038397             -10.9890
       155        2.0000           -0.4029724             -10.9654
       156        2.0000           -0.4011199             -10.9150
       157        2.0000           -0.3932291             -10.7003
       158        2.0000           -0.3835899             -10.4380
       159        2.0000           -0.3820903             -10.3972
       160        2.0000           -0.3676932             -10.0054
       161        2.0000           -0.3499596              -9.5229
       162        2.0000           -0.3467805              -9.4364 (HOMO)
       163                         -0.2841163              -7.7312 (LUMO)
       164                         -0.2611562              -7.1064
       165                         -0.2507786              -6.8240
       166                         -0.2497629              -6.7964
       167                         -0.2490923              -6.7781
       168                         -0.2425688              -6.6006
       169                         -0.2409260              -6.5559
       170                         -0.2320506              -6.3144
       171                         -0.2295532              -6.2465
       172                         -0.2290068              -6.2316
       173                         -0.2262714              -6.1572
       ...                                ...                  ...
       319                          1.1723665              31.9017
      -------------------------------------------------------------
                  HL-Gap            0.0626642 Eh            1.7052 eV

     #   Z          covCN         q      C6AA      α(0)
     1   7 N        0.911    -0.235    26.151     7.396
     2   6 C        1.912     0.112    28.344     8.598
     3   6 C        2.973     0.018    27.595     8.617
     4   6 C        2.925    -0.021    28.525     8.759
     5   6 C        2.920    -0.033    28.828     8.805
     6   6 C        2.974     0.011    27.775     8.645
     7   6 C        3.192     0.124    24.826     8.126
     8   7 N        1.896    -0.288    28.327     7.891
     9   6 C        3.205     0.058    26.120     8.324
    10   6 C        2.986     0.000    28.018     8.683
    11   6 C        2.919    -0.032    28.797     8.800
    12   6 C        2.922    -0.035    28.869     8.811
    13   6 C        2.974     0.008    27.839     8.655
    14   6 C        2.976     0.001    27.994     8.679
    15   6 C        2.924    -0.035    28.862     8.810
    16   6 C        2.920    -0.049    29.217     8.864
    17   6 C        2.924     0.063    26.584     8.455
    18   7 N        2.752    -0.076    22.707     7.077
    19   6 C        2.924     0.065    26.539     8.448
    20   6 C        2.922    -0.048    29.182     8.859
    21   6 C        2.920    -0.029    28.733     8.790
    22   6 C        2.919    -0.039    28.960     8.825
    23   6 C        2.920    -0.029    28.734     8.790
    24   6 C        2.922    -0.048    29.186     8.859
    25   6 C        2.924     0.065    26.539     8.448
    26   6 C        2.922    -0.048    29.181     8.859
    27   6 C        2.920    -0.029    28.733     8.790
    28   6 C        2.919    -0.038    28.957     8.824
    29   6 C        2.920    -0.029    28.732     8.790
    30   6 C        2.922    -0.048    29.182     8.859
    31   6 C        2.920    -0.049    29.210     8.863
    32   6 C        2.924    -0.034    28.851     8.809
    33   6 C        2.928    -0.041    29.019     8.834
    34   6 C        2.978    -0.002    28.061     8.689
    35   6 C        2.978     0.002    27.973     8.676
    36   6 C        2.929    -0.040    29.003     8.832
    37   6 C        2.973     0.008    27.839     8.655
    38   6 C        2.976     0.000    28.017     8.682
    39   6 C        2.924    -0.034    28.857     8.809
    40   6 C        2.920    -0.049    29.214     8.863
    41   6 C        2.924     0.064    26.572     8.453
    42   7 N        2.752    -0.075    22.691     7.075
    43   6 C        2.924     0.065    26.541     8.449
    44   6 C        2.922    -0.047    29.174     8.858
    45   6 C        2.920    -0.029    28.728     8.789
    46   6 C        2.919    -0.038    28.951     8.823
    47   6 C        2.920    -0.029    28.733     8.790
    48   6 C        2.922    -0.047    29.177     8.858
    49   6 C        2.924     0.065    26.544     8.449
    50   6 C        2.922    -0.047    29.177     8.858
    51   6 C        2.920    -0.029    28.729     8.790
    52   6 C        2.919    -0.038    28.948     8.823
    53   6 C        2.920    -0.029    28.728     8.789
    54   6 C        2.922    -0.047    29.178     8.858
    55   6 C        2.920    -0.049    29.219     8.864
    56   6 C        2.924    -0.034    28.850     8.808
    57   6 C        2.922    -0.037    28.913     8.818
    58   6 C        2.917    -0.041    29.016     8.833
    59   6 C        2.978    -0.005    28.140     8.702
    60   6 C        3.075     0.022    27.426     8.586
    61   7 N        2.840    -0.044    22.094     6.981
    62   6 C        2.913     0.068    26.477     8.438
    63   6 C        2.921    -0.037    28.912     8.818
    64   6 C        2.920    -0.027    28.664     8.780
    65   6 C        2.920    -0.029    28.726     8.789
    66   6 C        2.920    -0.025    28.633     8.775
    67   6 C        2.921    -0.038    28.941     8.822
    68   6 C        2.928    -0.026    28.642     8.777
    69   6 C        2.924    -0.019    28.480     8.752
    70   1 H        0.926     0.042     2.429     2.437
    71   1 H        0.926     0.034     2.525     2.485
    72   1 H        0.926     0.050     2.318     2.381
    73   1 H        0.926     0.033     2.542     2.493
    74   1 H        0.926     0.032     2.561     2.502
    75   1 H        0.926     0.031     2.570     2.507
    76   1 H        0.926     0.032     2.562     2.503
    77   1 H        0.926     0.031     2.570     2.507
    78   1 H        0.926     0.030     2.591     2.517
    79   1 H        0.926     0.031     2.573     2.509
    80   1 H        0.926     0.031     2.570     2.507
    81   1 H        0.926     0.031     2.567     2.505
    82   1 H        0.926     0.031     2.571     2.507
    83   1 H        0.926     0.030     2.588     2.516
    84   1 H        0.926     0.031     2.570     2.507
    85   1 H        0.926     0.031     2.566     2.505
    86   1 H        0.926     0.032     2.562     2.503
    87   1 H        0.926     0.034     2.528     2.486
    88   1 H        0.926     0.034     2.534     2.490
    89   1 H        0.926     0.037     2.484     2.465
    90   1 H        0.926     0.033     2.544     2.494
    91   1 H        0.926     0.032     2.555     2.500
    92   1 H        0.926     0.032     2.560     2.502
    93   1 H        0.926     0.032     2.561     2.503
    94   1 H        0.926     0.030     2.581     2.512
    95   1 H        0.926     0.031     2.568     2.506
    96   1 H        0.926     0.031     2.566     2.505
    97   1 H        0.926     0.032     2.563     2.503
    98   1 H        0.926     0.032     2.561     2.503
    99   1 H        0.926     0.031     2.578     2.511
   100   1 H        0.926     0.032     2.562     2.503
   101   1 H        0.926     0.032     2.564     2.504
   102   1 H        0.926     0.032     2.563     2.504
   103   1 H        0.926     0.032     2.554     2.499
   104   1 H        0.926     0.029     2.595     2.519
   105   1 H        0.926     0.025     2.655     2.548
   106   1 H        0.926     0.044     2.401     2.423
   107   1 H        0.926     0.042     2.421     2.433
   108   1 H        0.926     0.042     2.428     2.437
   109   1 H        0.926     0.042     2.418     2.432
   110   1 H        0.926     0.040     2.452     2.449
   111   1 H        0.926     0.062     2.174     2.306
   112   1 H        0.926     0.047     2.363     2.404

molecular dipole:
                 x           y           z       tot (Debye)
 q only:        0.968       1.485      -0.068
   full:        1.310       2.129      -0.128       6.362

 projected vibrational frequencies (cm⁻¹)
eigval :       -0.00    -0.00    -0.00     0.00     0.00     0.00
eigval :        6.23     8.74     9.24    11.26    12.58    18.35
eigval :       22.33    26.65    29.82    36.51    41.62    42.72
eigval :       48.69    50.91    51.40    56.42    59.94    64.60
eigval :       67.68    71.81    73.71    79.95    95.04    97.12
eigval :      101.04   107.92   113.31   118.81   134.99   136.36
eigval :      145.77   151.10   172.54   185.83   200.14   205.49
eigval :      216.39   220.91   232.24   234.71   243.81   249.74
eigval :      255.95   265.34   271.68   304.32   309.22   310.79
eigval :      317.53   331.50   345.05   356.63   365.75   367.20
eigval :      373.47   376.21   377.89   378.33   379.31   380.00
eigval :      382.42   387.63   389.68   393.47   404.21   408.43
eigval :      420.68   435.03   442.47   451.05   464.29   471.98
eigval :      474.48   484.55   491.00   492.00   505.56   510.04
eigval :      516.28   517.84   532.45   536.03   546.76   564.36
eigval :      579.12   583.16   585.50   586.28   587.69   589.11
eigval :      592.80   594.07   597.68   606.45   612.47   614.17
eigval :      614.91   631.67   639.00   644.23   652.48   659.64
eigval :      660.04   663.91   667.24   669.65   677.25   681.93
eigval :      684.83   691.27   696.02   699.83   703.72   719.77
eigval :      724.42   735.37   756.91   757.18   758.73   760.81
eigval :      769.84   775.78   806.62   809.51   810.37   819.62
eigval :      830.55   837.96   859.09   864.38   867.46   868.98
eigval :      871.80   874.54   874.81   875.61   876.15   876.58
eigval :      878.70   891.80   892.36   892.76   893.45   901.59
eigval :      909.96   910.20   913.86   914.97   916.60   916.99
eigval :      919.67   923.36   925.38   926.34   927.38   927.47
eigval :      927.74   928.89   928.92   929.03   929.20   929.62
eigval :      929.81   930.41   931.68   933.08   950.80   953.93
eigval :      983.45   985.40   992.82  1004.98  1005.11  1010.17
eigval :     1020.28  1024.16  1042.94  1071.78  1079.07  1083.09
eigval :     1083.28  1084.24  1084.27  1084.88  1105.21  1114.90
eigval :     1121.92  1121.98  1124.18  1124.29  1133.98  1135.99
eigval :     1142.98  1145.05  1159.50  1179.30  1180.40  1180.70
eigval :     1180.75  1180.82  1180.84  1186.82  1187.46  1187.83
eigval :     1188.93  1195.72  1195.78  1196.72  1198.34  1206.24
eigval :     1217.07  1217.58  1230.11  1235.42  1247.33  1265.10
eigval :     1269.65  1272.72  1274.82  1277.60  1278.92  1279.81
eigval :     1280.20  1283.21  1288.86  1298.07  1308.31  1312.22
eigval :     1313.85  1314.23  1319.87  1320.06  1320.84  1323.99
eigval :     1326.02  1327.00  1327.10  1328.18  1331.36  1333.66
eigval :     1338.36  1349.19  1373.69  1396.98  1401.90  1403.92
eigval :     1416.39  1418.29  1431.02  1433.22  1436.48  1436.61
eigval :     1437.42  1443.60  1443.83  1460.38  1471.95  1472.69
eigval :     1476.71  1476.90  1479.08  1490.58  1492.19  1498.00
eigval :     1516.50  1537.76  1542.72  1555.02  1557.05  1559.73
eigval :     1566.89  1577.18  1577.43  1581.09  1581.31  1582.20
eigval :     1583.87  1586.07  1590.98  1593.41  1595.08  1595.24
eigval :     1597.90  1599.56  1603.27  1605.46  2370.82  3075.11
eigval :     3075.44  3075.50  3075.67  3076.02  3076.17  3076.51
eigval :     3076.79  3076.86  3077.32  3078.15  3078.56  3083.53
eigval :     3083.76  3083.92  3085.48  3085.59  3085.85  3086.43
eigval :     3086.55  3087.35  3087.75  3088.34  3088.91  3089.40
eigval :     3089.56  3089.73  3090.25  3090.49  3090.97  3091.38
eigval :     3096.64  3096.93  3097.17  3097.41  3097.47  3097.97
eigval :     3103.77  3103.93  3107.79  3112.13  3112.21  3113.46

   temp. (K)  partition function   enthalpy   heat capacity  entropy
                                   cal/mol     cal/K/mol   cal/K/mol   J/K/mol
 298.15  VIB  0.258E+29            33361.286    204.486    212.747
         ROT  0.404E+09              888.752      2.981     42.361
         INT  0.104E+38            34250.039    207.467    255.108
         TR   0.253E+29             1481.254      4.968     46.186
         TOT                       35731.2925   212.4349   301.2946  1260.6165

       T/K    H(0)-H(T)+PV         H(T)/Eh          T*S/Eh         G(T)/Eh
   ------------------------------------------------------------------------
    298.15    0.569414E-01    0.917984E+00    0.143155E+00    0.774829E+00
   ------------------------------------------------------------------------

         :::::::::::::::::::::::::::::::::::::::::::::::::::::
         ::                  THERMODYNAMIC                  ::
         :::::::::::::::::::::::::::::::::::::::::::::::::::::
         :: total free energy        -172.842762650867 Eh   ::
         ::.................................................::
         :: total energy             -173.617591830268 Eh   ::
         :: zero point energy           0.861042518458 Eh   ::
         :: G(RRHO) w/o ZPVE           -0.086213339057 Eh   ::
         :: G(RRHO) contrib.            0.774829179401 Eh   ::
         :::::::::::::::::::::::::::::::::::::::::::::::::::::

           -------------------------------------------------
          | TOTAL ENERGY             -173.617591830268 Eh   |
          | TOTAL ENTHALPY           -172.699607872677 Eh   |
          | TOTAL FREE ENERGY        -172.842762650867 Eh   |
          | GRADIENT NORM               0.000021038995 Eh/α |
          | HOMO-LUMO GAP               1.705179615036 eV   |
           -------------------------------------------------

 * finished run on 2025/08/25 at 05:04:10.670
