   * xtb version 6.7.1 (edcfbbe) compiled by 'albert@albert-system' on 2024-07-22

   ID    Z sym.   atoms
    1    6 C      1-5, 7-15, 17-36, 38-43, 45, 46, 48-56
    2    7 N      6, 16, 37
    3    8 O      44, 47
    4    1 H      57-93

          program call               : xtb data2507/toluene/DDBP/DDBP_toluene_S0_crest.xyz --gfn 2 --gbsa toluene --ohess vtight --parallel 40 --molden --ceasefiles --namespace data2507/toluene/DDBP/DDBP_toluene_S0_finalOpt
      * Solvation model:               GBSA
        Solvent                        toluene
        Solvent mass                       9.2140E+01 g/mol
          :  Hamiltonian                  GFN2-xTB          :
 * total energy  :  -145.0837402 Eh     change       -0.3235385E-08 Eh
 * total energy  :  -145.0838152 Eh     change       -0.7501222E-04 Eh
 * total energy  :  -145.0838705 Eh     change       -0.5523886E-04 Eh
 * total energy  :  -145.0838998 Eh     change       -0.2932686E-04 Eh
 * total energy  :  -145.0839260 Eh     change       -0.2617370E-04 Eh
 * total energy  :  -145.0839601 Eh     change       -0.3410208E-04 Eh
 * total energy  :  -145.0839719 Eh     change       -0.1183440E-04 Eh
 * total energy  :  -145.0839914 Eh     change       -0.1951467E-04 Eh
 * total energy  :  -145.0840006 Eh     change       -0.9172723E-05 Eh
 * total energy  :  -145.0840106 Eh     change       -0.1004529E-04 Eh
 * total energy  :  -145.0841341 Eh     change       -0.1951743E-06 Eh
 * total energy  :  -145.0841343 Eh     change       -0.1739940E-06 Eh
 * total energy  :  -145.0841344 Eh     change       -0.1610379E-06 Eh
 * total energy  :  -145.0841346 Eh     change       -0.1440611E-06 Eh
 * total energy  :  -145.0841347 Eh     change       -0.1553690E-06 Eh
 * total energy  :  -145.0841349 Eh     change       -0.1718174E-06 Eh
 * total energy  :  -145.0841351 Eh     change       -0.1669367E-06 Eh
 * total energy  :  -145.0841352 Eh     change       -0.1270545E-06 Eh
 * total energy  :  -145.0841353 Eh     change       -0.8406036E-07 Eh
   *** GEOMETRY OPTIMIZATION CONVERGED AFTER 61 ITERATIONS ***

 final structure:
================
93
 xtb: 6.7.1 (edcfbbe)
C           -7.91246609459346       -4.99955259709150       -0.38851891771965
C           -8.04323698284712       -3.94876411364377        0.50523023842094
C           -7.05776622047404       -2.98371484602605        0.59836421682496
C           -5.92625171646122       -3.05349586281482       -0.21281802850089
C           -4.86570819173478       -2.05863239499452       -0.14020068959437
N           -3.57369934842030       -2.40014735140232       -0.42533824939320
C           -2.84828499283695       -1.32846269581776       -0.24178273944762
C           -1.39884337824276       -1.25759463478937       -0.39897168540239
C           -0.61557857521229       -2.16636484293468        0.27447031777405
C            0.77592191883389       -2.05570533009860        0.26324304668602
C            1.40545040883291       -1.02995427202726       -0.40535728835100
C            2.86481226271720       -0.88428536307989       -0.28421528155566
C            3.43583730871477        0.31468272986212        0.14075334871833
C            4.80129376103199        0.43518876349608        0.29259950589409
C            5.64386174589248       -0.64128329567339        0.00966704761589
N            7.02875199013417       -0.51836488324606        0.15295829672093
C            7.66373919993275        0.68698355924751       -0.17233710887031
C            8.73217177194646        1.15323365032449        0.59388492032599
C            9.36082028245733        2.33873443312651        0.26467890315157
C            8.93220060163521        3.08248517927815       -0.82310755473044
C            7.86766638762018        2.62701389506668       -1.58425080447444
C            7.23856656167693        1.43818262202756       -1.26832525912195
C            7.78316717521577       -1.59881599735330        0.62833308085520
C            9.05043596771457       -1.86044164886011        0.10748751739131
C            9.79415643834080       -2.92223734795145        0.58553223712282
C            9.28691241859195       -3.74444491928477        1.57892145854068
C            8.02623630805810       -3.49236330024955        2.09591163130888
C            7.27903815114417       -2.42714113772075        1.63120482579906
C            5.07550961634429       -1.84348809594457       -0.41453570931428
C            3.70767680492299       -1.96215675874004       -0.54707298650474
C            0.63025249421954       -0.13708446009035       -1.19710971577551
C            1.22507009458618        0.84025936417334       -2.02361430394337
C            0.46597079851646        1.65468536866381       -2.81694636169823
C           -0.92752428375542        1.50980993403052       -2.84747613329318
C           -1.53523901816860        0.56501599650203       -2.06913825476926
C           -0.78513436613423       -0.26491648388599       -1.20996895539152
N           -3.61860330682656       -0.27032669374223        0.16877025016825
C           -3.16301619655284        1.02958576813975        0.45392034635138
C           -2.07893849814450        1.21496551061969        1.30594518982944
C           -1.60406914374243        2.48807275421070        1.54475985633207
C           -2.21141793440905        3.59193532348982        0.95926816590865
C           -3.33365188614066        3.40829357940083        0.14290324346619
C           -3.79091844525538        2.12558300371942       -0.12022533025156
O           -4.00389024439183        4.45952253772769       -0.42127653910449
C           -3.66997071740817        5.71211265709355        0.14783123287570
C           -2.15596961326000        5.82788395613346        0.31090809115556
O           -1.68448948087089        4.83294417263943        1.20011679502738
C           -4.91921873320309       -0.72565084821734        0.22830221515618
C           -6.03794176486579        0.12331666181994        0.61881109351626
C           -5.96967843818349        0.91264818838827        1.76588496627728
C           -7.03377152547616        1.72087921868956        2.12108804819102
C           -8.17700280659445        1.75358761148885        1.33974240895204
C           -8.25535846655493        0.96676223783259        0.20146996650114
C           -7.19467980720490        0.15775751135613       -0.15941412347363
C           -5.79436610559051       -4.12423166061759       -1.09663979175524
C           -6.78164881213557       -5.08679663567830       -1.18488810086160
H           -8.68602461634539       -5.75048223859942       -0.45926437895555
H           -8.91668720090981       -3.88326829299286        1.13847766441897
H           -7.15887748600496       -2.17714220117475        1.30960119153175
H           -1.09133082379907       -2.94803712302079        0.84830548939228
H            1.36452890870071       -2.75834637163856        0.83512098424055
H            2.79588908837428        1.15096023054574        0.38286783742018
H            5.22675538815027        1.36618432150307        0.63797219384427
H            9.06293791763755        0.58034730589950        1.44807027884820
H           10.18579015728993        2.68855000209449        0.86833051647351
H            9.42423129927353        4.00977600277013       -1.07577970160366
H            7.52970023953609        3.19707010029761       -2.43759767919288
H            6.41606416468066        1.08049410461091       -1.87063467800716
H            9.44473016239747       -1.22698505727502       -0.67392176692511
H           10.77385076968165       -3.11418147528068        0.17242549441091
H            9.87016311016738       -4.57493335691837        1.94750880329103
H            7.62436452383703       -4.12445127379218        2.87462499729944
H            6.30080667666883       -2.22633656509247        2.04348373653914
H            5.71608156843603       -2.68287506799238       -0.64239188637318
H            3.28296790790709       -2.89580612598919       -0.88637743879479
H            2.30130350476882        0.92137403373436       -2.04076042740168
H            0.93862496767890        2.39568352520540       -3.44517326852442
H           -1.51733840190092        2.13405995879614       -3.50297033411977
H           -2.60347378461432        0.42157835679245       -2.13366615039250
H           -1.60513670772886        0.36389857483003        1.76907556324850
H           -0.75343014345245        2.65209835394561        2.18638322729505
H           -4.64062842353117        2.00670553310519       -0.77339823610944
H           -4.05694425593732        6.47054722548983       -0.53322149697436
H           -4.15151943120762        5.81186387792284        1.12961190298982
H           -1.67412877011700        5.70649656390422       -0.66840925755744
H           -1.87455026042959        6.78690208765742        0.74684263421554
H           -5.08413021953115        0.88207838907168        2.38479170101981
H           -6.97020868118897        2.32565888258865        3.01416527975512
H           -9.00563707386965        2.38773196557070        1.61825870698280
H           -9.14535945567187        0.98659948112911       -0.41046791929906
H           -7.25135040449124       -0.45440181874033       -1.04807492848696
H           -4.90577459907152       -4.18226929748922       -1.70709774691862
H           -6.67034666050612       -5.90882304131200       -1.87768217873462

          :  Hamiltonian                  GFN2-xTB          :
         :: gradient norm              0.000027621367 Eh/a0 ::
         :: HOMO-LUMO gap              2.143410134692 eV    ::
         :: SCC energy              -147.653465539511 Eh    ::
         :: -> dispersion             -0.133935109684 Eh    ::
         :: -> Gsolv                  -0.059293492350 Eh    ::
         :: repulsion energy           2.569330270784 Eh    ::

    * Orbital Energies and Occupations

         #    Occupation            Energy/Eh            Energy/eV
      -------------------------------------------------------------
         1        2.0000           -0.7396670             -20.1274
       ...           ...                  ...                  ...
       122        2.0000           -0.4075203             -11.0892
       123        2.0000           -0.4072258             -11.0812
       124        2.0000           -0.4052549             -11.0275
       125        2.0000           -0.4050609             -11.0223
       126        2.0000           -0.4042365             -10.9998
       127        2.0000           -0.4030274             -10.9669
       128        2.0000           -0.4009500             -10.9104
       129        2.0000           -0.3991845             -10.8624
       130        2.0000           -0.3885083             -10.5718
       131        2.0000           -0.3810754             -10.3696
       132        2.0000           -0.3768792             -10.2554
       133        2.0000           -0.3624516              -9.8628
       134        2.0000           -0.3485613              -9.4848 (HOMO)
       135                         -0.2697924              -7.3414 (LUMO)
       136                         -0.2500667              -6.8047
       137                         -0.2405260              -6.5450
       138                         -0.2347309              -6.3874
       139                         -0.2319606              -6.3120
       140                         -0.2303627              -6.2685
       141                         -0.2302771              -6.2662
       142                         -0.2274879              -6.1903
       143                         -0.2273489              -6.1865
       144                         -0.2222704              -6.0483
       145                         -0.2220835              -6.0432
       ...                                ...                  ...
       261                          0.7054369              19.1959
      -------------------------------------------------------------
                  HL-Gap            0.0787689 Eh            2.1434 eV

     #   Z          covCN         q      C6AA      α(0)
     1   6 C        2.919    -0.034    28.840     8.806
     2   6 C        2.919    -0.031    28.785     8.798
     3   6 C        2.923    -0.039    28.969     8.826
     4   6 C        2.973     0.006    27.874     8.660
     5   6 C        3.169     0.053    26.456     8.404
     6   7 N        1.909    -0.317    29.058     7.992
     7   6 C        3.162     0.134    24.776     8.136
     8   6 C        2.971    -0.010    28.265     8.721
     9   6 C        2.922    -0.032    28.797     8.800
    10   6 C        2.922    -0.037    28.925     8.820
    11   6 C        2.974     0.006    27.885     8.662
    12   6 C        2.977     0.003    27.950     8.672
    13   6 C        2.923    -0.033    28.825     8.804
    14   6 C        2.920    -0.049    29.220     8.864
    15   6 C        2.923     0.064    26.556     8.451
    16   7 N        2.752    -0.078    22.760     7.086
    17   6 C        2.923     0.065    26.536     8.448
    18   6 C        2.922    -0.048    29.189     8.860
    19   6 C        2.919    -0.030    28.754     8.793
    20   6 C        2.919    -0.039    28.978     8.827
    21   6 C        2.919    -0.030    28.756     8.794
    22   6 C        2.922    -0.048    29.192     8.860
    23   6 C        2.923     0.065    26.538     8.448
    24   6 C        2.922    -0.048    29.187     8.860
    25   6 C        2.919    -0.030    28.754     8.793
    26   6 C        2.919    -0.039    28.974     8.827
    27   6 C        2.919    -0.030    28.753     8.793
    28   6 C        2.922    -0.048    29.192     8.860
    29   6 C        2.920    -0.048    29.202     8.862
    30   6 C        2.924    -0.034    28.851     8.808
    31   6 C        2.986     0.008    27.829     8.653
    32   6 C        2.919    -0.035    28.859     8.809
    33   6 C        2.916    -0.032    28.794     8.799
    34   6 C        2.916    -0.032    28.787     8.798
    35   6 C        2.919    -0.037    28.912     8.817
    36   6 C        2.987     0.005    27.892     8.663
    37   7 N        2.851    -0.041    22.033     6.971
    38   6 C        2.912     0.058    26.691     8.472
    39   6 C        2.921    -0.052    29.289     8.875
    40   6 C        2.919    -0.056    29.380     8.889
    41   6 C        2.883     0.113    25.513     8.281
    42   6 C        2.884     0.117    25.434     8.268
    43   6 C        2.922    -0.066    29.648     8.929
    44   8 O        1.704    -0.282    18.687     5.836
    45   6 C        3.713     0.070    19.540     6.316
    46   6 C        3.713     0.069    19.544     6.317
    47   8 O        1.704    -0.281    18.671     5.834
    48   6 C        3.066     0.014    27.631     8.619
    49   6 C        2.971     0.006    27.879     8.661
    50   6 C        2.924    -0.035    28.867     8.811
    51   6 C        2.918    -0.030    28.741     8.791
    52   6 C        2.920    -0.031    28.775     8.797
    53   6 C        2.918    -0.028    28.711     8.787
    54   6 C        2.925    -0.033    28.828     8.805
    55   6 C        2.927    -0.032    28.787     8.799
    56   6 C        2.918    -0.031    28.779     8.797
    57   1 H        0.926     0.031     2.568     2.506
    58   1 H        0.926     0.030     2.587     2.515
    59   1 H        0.926     0.024     2.672     2.556
    60   1 H        0.926     0.038     2.472     2.458
    61   1 H        0.926     0.040     2.453     2.449
    62   1 H        0.926     0.036     2.499     2.472
    63   1 H        0.926     0.034     2.531     2.488
    64   1 H        0.926     0.031     2.567     2.505
    65   1 H        0.926     0.033     2.543     2.494
    66   1 H        0.926     0.032     2.562     2.503
    67   1 H        0.926     0.033     2.539     2.492
    68   1 H        0.926     0.031     2.565     2.505
    69   1 H        0.926     0.032     2.565     2.504
    70   1 H        0.926     0.033     2.542     2.493
    71   1 H        0.926     0.032     2.561     2.503
    72   1 H        0.926     0.033     2.539     2.492
    73   1 H        0.926     0.032     2.560     2.502
    74   1 H        0.926     0.034     2.531     2.488
    75   1 H        0.926     0.036     2.505     2.475
    76   1 H        0.926     0.042     2.427     2.436
    77   1 H        0.926     0.036     2.507     2.476
    78   1 H        0.926     0.032     2.558     2.501
    79   1 H        0.926     0.022     2.697     2.568
    80   1 H        0.926     0.051     2.309     2.376
    81   1 H        0.926     0.065     2.146     2.291
    82   1 H        0.926     0.058     2.225     2.333
    83   1 H        0.924     0.071     2.075     2.253
    84   1 H        0.923     0.051     2.310     2.377
    85   1 H        0.923     0.051     2.313     2.379
    86   1 H        0.924     0.071     2.071     2.251
    87   1 H        0.926     0.025     2.663     2.552
    88   1 H        0.926     0.034     2.535     2.490
    89   1 H        0.926     0.036     2.499     2.472
    90   1 H        0.926     0.036     2.498     2.471
    91   1 H        0.926     0.030     2.586     2.515
    92   1 H        0.926     0.042     2.425     2.435
    93   1 H        0.926     0.032     2.561     2.503

molecular dipole:
                 x           y           z       tot (Debye)
 q only:        0.808       1.851       0.198
   full:        0.662       2.293       0.305       6.115

 projected vibrational frequencies (cm⁻¹)
eigval :       -0.00     0.00     0.00     0.00     0.00     0.00
eigval :        7.30     8.58    11.59    21.56    23.63    28.38
eigval :       34.80    37.12    40.69    47.49    49.87    52.29
eigval :       58.41    64.05    69.72    73.31    74.47    91.82
eigval :      101.59   106.30   113.06   122.86   130.35   147.41
eigval :      157.50   165.53   180.42   188.68   208.04   214.64
eigval :      224.37   230.83   239.31   244.14   251.09   270.56
eigval :      302.62   303.37   309.61   320.10   340.30   352.48
eigval :      365.86   371.93   375.92   376.52   377.17   382.55
eigval :      385.97   387.18   395.20   415.71   418.21   427.67
eigval :      438.57   448.14   459.54   469.15   474.30   478.26
eigval :      481.43   492.37   505.79   510.29   529.12   536.35
eigval :      548.14   562.96   584.05   585.62   586.72   588.33
eigval :      591.27   594.11   598.73   602.48   621.00   629.95
eigval :      642.67   653.26   656.89   659.00   659.31   666.19
eigval :      670.73   675.87   678.83   687.38   692.44   696.27
eigval :      729.41   731.43   735.99   754.69   759.60   762.63
eigval :      766.18   771.67   780.40   780.91   810.57   827.75
eigval :      842.85   853.98   864.24   868.23   873.51   874.62
eigval :      877.09   880.85   881.53   888.09   889.59   899.87
eigval :      900.62   902.25   902.44   908.65   909.67   914.60
eigval :      918.01   921.55   924.76   925.40   926.42   926.74
eigval :      928.89   930.25   931.15   932.17   933.08   933.84
eigval :      935.45   946.48   948.14   954.08   979.84   986.83
eigval :     1003.79  1019.99  1023.19  1032.24  1060.40  1069.02
eigval :     1081.19  1081.25  1082.40  1082.89  1087.44  1096.37
eigval :     1113.33  1118.63  1119.75  1119.93  1121.23  1122.06
eigval :     1123.88  1137.22  1159.91  1172.65  1177.84  1178.68
eigval :     1178.92  1180.01  1180.11  1183.09  1184.06  1190.47
eigval :     1193.02  1195.46  1196.60  1199.40  1203.17  1210.58
eigval :     1213.11  1218.21  1230.74  1244.15  1256.84  1266.22
eigval :     1270.47  1273.82  1276.64  1281.73  1282.73  1284.39
eigval :     1295.71  1304.02  1310.34  1313.56  1314.36  1315.29
eigval :     1319.42  1320.25  1322.82  1325.04  1334.79  1344.08
eigval :     1364.25  1366.67  1380.62  1401.97  1403.74  1412.39
eigval :     1426.90  1430.59  1434.11  1436.12  1440.51  1443.55
eigval :     1446.66  1449.45  1455.13  1469.86  1472.70  1483.81
eigval :     1487.84  1489.23  1507.05  1542.13  1552.14  1559.85
eigval :     1560.95  1572.72  1574.82  1575.94  1577.52  1579.42
eigval :     1580.13  1590.82  1591.41  1595.41  1596.28  1598.63
eigval :     1599.25  1608.24  2901.54  2917.04  3003.31  3006.97
eigval :     3065.90  3069.02  3069.43  3070.41  3070.92  3071.30
eigval :     3072.05  3072.19  3073.40  3073.65  3075.56  3077.36
eigval :     3077.63  3078.05  3080.23  3081.32  3082.10  3082.56
eigval :     3084.13  3085.12  3085.82  3087.88  3088.32  3088.93
eigval :     3089.72  3091.61  3093.21  3093.97  3095.81  3096.00
eigval :     3102.66  3112.70  3115.19

   temp. (K)  partition function   enthalpy   heat capacity  entropy
                                   cal/mol     cal/K/mol   cal/K/mol   J/K/mol
 298.15  VIB  0.110E+23            26792.573    166.309    169.385
         ROT  0.154E+09              888.752      2.981     40.448
         INT  0.170E+31            27681.325    169.290    209.833
         TR   0.188E+29             1481.254      4.968     45.598
         TOT                       29162.5793   174.2579   255.4308  1068.7226

       T/K    H(0)-H(T)+PV         H(T)/Eh          T*S/Eh         G(T)/Eh
   ------------------------------------------------------------------------
    298.15    0.464735E-01    0.766200E+00    0.121363E+00    0.644836E+00
   ------------------------------------------------------------------------

         :::::::::::::::::::::::::::::::::::::::::::::::::::::
         ::                  THERMODYNAMIC                  ::
         :::::::::::::::::::::::::::::::::::::::::::::::::::::
         :: total free energy        -144.439298945782 Eh   ::
         ::.................................................::
         :: total energy             -145.084135270344 Eh   ::
         :: zero point energy           0.719726232105 Eh   ::
         :: G(RRHO) w/o ZPVE           -0.074889907544 Eh   ::
         :: G(RRHO) contrib.            0.644836324562 Eh   ::
         :::::::::::::::::::::::::::::::::::::::::::::::::::::

           -------------------------------------------------
          | TOTAL ENERGY             -145.084135270344 Eh   |
          | TOTAL ENTHALPY           -144.317935509955 Eh   |
          | TOTAL FREE ENERGY        -144.439298945782 Eh   |
          | GRADIENT NORM               0.000027622581 Eh/α |
          | HOMO-LUMO GAP               2.143411167448 eV   |
           -------------------------------------------------

 * finished run on 2025/09/12 at 19:27:35.886
