   * xtb version 6.7.1 (edcfbbe) compiled by 'albert@albert-system' on 2024-07-22

   ID    Z sym.   atoms
    1    6 C      1-5, 7-15, 17-36, 38-43, 45, 46, 48-56
    2    7 N      6, 16, 37
    3    8 O      44, 47
    4    1 H      57-93

          program call               : xtb data2507/toluene/DDBP/DDBP_toluene_S0_finalOpt.xtbopt.xyz --gfn 2 --uhf 2 --gbsa toluene --ohess vtight --parallel 40 --molden --ceasefiles --namespace data2507/toluene/DDBP/DDBP_toluene_T1_preOpt
      * Solvation model:               GBSA
        Solvent                        toluene
        Solvent mass                       9.2140E+01 g/mol
          :  Hamiltonian                  GFN2-xTB          :
 * total energy  :  -144.9927670 Eh     change       -0.6336933E-08 Eh
 * total energy  :  -144.9991637 Eh     change       -0.6396704E-02 Eh
 * total energy  :  -145.0018807 Eh     change       -0.2717012E-02 Eh
 * total energy  :  -145.0027379 Eh     change       -0.8571661E-03 Eh
 * total energy  :  -145.0038748 Eh     change       -0.1136939E-02 Eh
 * total energy  :  -145.0046173 Eh     change       -0.7424271E-03 Eh
 * total energy  :  -145.0051248 Eh     change       -0.5075208E-03 Eh
 * total energy  :  -145.0054386 Eh     change       -0.3138152E-03 Eh
 * total energy  :  -145.0056727 Eh     change       -0.2340890E-03 Eh
 * total energy  :  -145.0058843 Eh     change       -0.2116141E-03 Eh
 * total energy  :  -145.0075415 Eh     change       -0.3790364E-06 Eh
 * total energy  :  -145.0075418 Eh     change       -0.3522249E-06 Eh
 * total energy  :  -145.0075422 Eh     change       -0.3557905E-06 Eh
 * total energy  :  -145.0075426 Eh     change       -0.3768066E-06 Eh
 * total energy  :  -145.0075430 Eh     change       -0.4004378E-06 Eh
 * total energy  :  -145.0075434 Eh     change       -0.4098169E-06 Eh
 * total energy  :  -145.0075438 Eh     change       -0.4190428E-06 Eh
 * total energy  :  -145.0075442 Eh     change       -0.4369625E-06 Eh
 * total energy  :  -145.0075442 Eh     change       -0.2562189E-08 Eh
   *** GEOMETRY OPTIMIZATION CONVERGED AFTER 94 ITERATIONS ***

 final structure:
================
93
 xtb: 6.7.1 (edcfbbe)
C           -7.67918009444485       -5.07273459104798        0.12235535234582
C           -7.72853366059851       -3.99138229990866        0.98754607946330
C           -6.77566293383430       -2.99252136533935        0.91404668615233
C           -5.75831847572623       -3.06047445212616       -0.03731515913168
C           -4.72885534033370       -2.03702540116856       -0.14696622699513
N           -3.49306798403369       -2.35039465680928       -0.57644100037289
C           -2.77230148414085       -1.22857257485445       -0.57206799011173
C           -1.42192781620283       -1.17274556377162       -0.97559366655981
C           -0.63646141717360       -2.35678076758487       -0.81955755116105
C            0.71787134539751       -2.30401423162643       -0.86331384414176
C            1.41195374630534       -1.07051072120606       -1.07089211933327
C            2.79728810208474       -0.96109559615051       -0.75550938182925
C            3.34975816418499        0.25042989823590       -0.26969631388237
C            4.67336470956197        0.36090524618130        0.05780106123292
C            5.54307299403782       -0.73443762109882       -0.07839516357890
N            6.89034997118341       -0.61800100088317        0.23917558706233
C            7.56667421463060        0.58385369573290       -0.00169571778620
C            8.52953253155529        1.04613160998552        0.89721124951924
C            9.19679277506757        2.23030788395965        0.65145878657353
C            8.91395000151262        2.97308942494970       -0.48445817849585
C            7.95678349844558        2.51941772620462       -1.37884655658362
C            7.28751811234757        1.33391406588550       -1.14560840060389
C            7.57839425522873       -1.69993204006686        0.80117311926295
C            8.90131173972692       -1.96063188679270        0.43958655512879
C            9.57722336526955       -3.02620467635988        1.00124392914114
C            8.94860728523126       -3.84970728641307        1.92242880699739
C            7.63398519597373       -3.59654240997022        2.28251544032952
C            6.95061070344679       -2.53009466612289        1.73156310632272
C            5.00993194878020       -1.95070439088581       -0.53464288748153
C            3.68280411599954       -2.06244394604073       -0.85109508075588
C            0.64092074982125        0.03056497874327       -1.59065752254697
C            1.24658341361239        1.10683808755069       -2.24903090636174
C            0.49707808963186        2.11763994304656       -2.83077316126919
C           -0.88306072812116        2.04247009680356       -2.82607416573569
C           -1.50922347134140        0.96582589013484       -2.21774933029966
C           -0.77824686906164       -0.02666231034097       -1.56111704542824
N           -3.54133132366205       -0.17013255763725       -0.09199157951956
C           -3.08533321172229        1.11955315306955        0.22008268229080
C           -1.91167444931368        1.28161750890570        0.95220237269852
C           -1.44738059655689        2.54808341868081        1.23628199255809
C           -2.14888629425067        3.67080946529447        0.81346673102986
C           -3.35260204799680        3.50889418541420        0.11879342182340
C           -3.80579634987474        2.23465344073175       -0.18785069767319
O           -4.11050701767358        4.57596243401997       -0.28491589853083
C           -3.74306761147100        5.79531394836287        0.33305800100466
C           -2.22345614417859        5.94787654573072        0.33358988437465
O           -1.63036724530730        4.90961325520245        1.08969772082584
C           -4.79553035077869       -0.67412586884324        0.16901637747813
C           -5.89998689446645        0.11813083966050        0.67841230187224
C           -5.74238059176854        0.95567380711034        1.78524074555483
C           -6.80861174104366        1.69761321102984        2.25615603911936
C           -8.04471866668774        1.62108072361234        1.63415950694565
C           -8.21241368635865        0.78789256449905        0.53837540081680
C           -7.15258889611435        0.04091520782272        0.06339989435943
C           -5.70562395735861       -4.16264557132504       -0.89170693417784
C           -6.65988741730900       -5.15826161717718       -0.81308054175053
H           -8.42773051371341       -5.84930860932142        0.18252764812718
H           -8.51233528086613       -3.92740922291825        1.72873748738596
H           -6.81090101013156       -2.16414384801214        1.60579599375287
H           -1.15922619853822       -3.26844042184297       -0.57525428993547
H            1.28814187637486       -3.19193393742270       -0.63862766957225
H            2.69035259164624        1.08744356023614       -0.09492766656158
H            5.05663234467952        1.28974472540058        0.45550919222697
H            8.74254660962234        0.47429533292335        1.78849884259916
H            9.93730888721438        2.57978182027946        1.35586122874166
H            9.43638783583701        3.89896365879763       -0.67194464111371
H            7.73544601157565        3.08881101088112       -2.26968565657201
H            6.55244261144219        0.97352754095392       -1.85024476278448
H            9.38862226685228       -1.32728564659525       -0.28711614461286
H           10.59945971092610       -3.21996953791801        0.71137751732122
H            9.48016220331658       -4.68235353365715        2.35764028858703
H            7.13886145536745       -4.22945162690378        3.00422805399159
H            5.93116833552588       -2.32457050636280        2.02352427959077
H            5.66826498152981       -2.79824398080442       -0.66101874636573
H            3.31886897979052       -2.99914655736005       -1.24396323205787
H            2.32178569777077        1.13169224480515       -2.34193466717150
H            0.99713581454914        2.94346517685765       -3.31635027926425
H           -1.47743805305591        2.80334383232990       -3.31127243647443
H           -2.58305965504436        0.87631547824728       -2.28338017968373
H           -1.36387711041355        0.41433296103450        1.28624970266677
H           -0.53203317450950        2.69384809912041        1.78685483487292
H           -4.72138165211635        2.13607374387164       -0.74903468452523
H           -4.22293325378012        6.58695171202808       -0.24319532830147
H           -4.11119176769527        5.81125654891738        1.36753525013165
H           -1.85366181851284        5.91075199108964       -0.69986743718763
H           -1.91760891261822        6.88291901193006        0.80398029833852
H           -4.78580007907966        1.00616006575780        2.28526457142842
H           -6.67458854352277        2.33627799512316        3.11727890305061
H           -8.87430777363599        2.20573421436732        2.00289028354489
H           -9.17364642205454        0.72283644448594        0.04976601786340
H           -7.27942750350964       -0.60463230784284       -0.79375612321715
H           -4.90386183711290       -4.21593567408535       -1.61264613030444
H           -6.61082816882458       -6.00402575507938       -1.48388338829675

          :  Hamiltonian                  GFN2-xTB          :
         :: gradient norm              0.000032785114 Eh/a0 ::
         :: HOMO-LUMO gap              0.722406636011 eV    ::
         :: SCC energy              -147.558904299279 Eh    ::
         :: -> dispersion             -0.134933304121 Eh    ::
         :: -> Gsolv                  -0.060040734847 Eh    ::
         :: repulsion energy           2.551360078604 Eh    ::

    * Orbital Energies and Occupations

         #    Occupation            Energy/Eh            Energy/eV
      -------------------------------------------------------------
         1        2.0000           -0.7376429             -20.0723
       ...           ...                  ...                  ...
       123        2.0000           -0.4071875             -11.0801
       124        2.0000           -0.4056293             -11.0377
       125        2.0000           -0.4045336             -11.0079
       126        2.0000           -0.4022421             -10.9456
       127        2.0000           -0.3990543             -10.8588
       128        2.0000           -0.3987269             -10.8499
       129        2.0000           -0.3947966             -10.7430
       130        2.0000           -0.3850946             -10.4790
       131        2.0000           -0.3777070             -10.2779
       132        2.0000           -0.3729511             -10.1485
       133        2.0000           -0.3606336              -9.8133
       134        1.0000           -0.3411559              -9.2833
       135        1.0000           -0.2768303              -7.5329 (HOMO)
       136        0.0000           -0.2502825              -6.8105 (LUMO)
       137                         -0.2379630              -6.4753
       138                         -0.2366599              -6.4398
       139                         -0.2329696              -6.3394
       140                         -0.2316129              -6.3025
       141                         -0.2310792              -6.2880
       142                         -0.2272532              -6.1839
       143                         -0.2270703              -6.1789
       144                         -0.2231830              -6.0731
       145                         -0.2198886              -5.9835
       146                         -0.2196646              -5.9774
       ...                                ...                  ...
       261                          0.7186177              19.5546
      -------------------------------------------------------------
                  HL-Gap            0.0265478 Eh            0.7224 eV

     #   Z          covCN         q      C6AA      α(0)
     1   6 C        2.919    -0.031    28.782     8.798
     2   6 C        2.918    -0.031    28.763     8.795
     3   6 C        2.923    -0.037    28.913     8.818
     4   6 C        2.973     0.006    27.884     8.662
     5   6 C        3.144     0.067    26.250     8.383
     6   7 N        1.901    -0.322    29.209     8.013
     7   6 C        3.127     0.132    24.929     8.175
     8   6 C        2.970    -0.025    28.632     8.777
     9   6 C        2.917    -0.040    29.004     8.831
    10   6 C        2.912    -0.042    29.036     8.836
    11   6 C        2.971    -0.014    28.366     8.736
    12   6 C        2.969     0.008    27.835     8.654
    13   6 C        2.921    -0.037    28.921     8.819
    14   6 C        2.915    -0.046    29.148     8.853
    15   6 C        2.924     0.055    26.770     8.485
    16   7 N        2.752    -0.048    22.162     6.992
    17   6 C        2.926     0.064    26.576     8.454
    18   6 C        2.921    -0.044    29.099     8.846
    19   6 C        2.919    -0.028    28.701     8.785
    20   6 C        2.919    -0.035    28.864     8.810
    21   6 C        2.919    -0.028    28.701     8.785
    22   6 C        2.921    -0.043    29.074     8.842
    23   6 C        2.925     0.063    26.578     8.454
    24   6 C        2.921    -0.044    29.098     8.846
    25   6 C        2.919    -0.028    28.700     8.785
    26   6 C        2.919    -0.035    28.861     8.810
    27   6 C        2.919    -0.028    28.700     8.785
    28   6 C        2.921    -0.043    29.078     8.843
    29   6 C        2.915    -0.045    29.129     8.850
    30   6 C        2.920    -0.038    28.955     8.824
    31   6 C        2.980     0.006    27.889     8.663
    32   6 C        2.921    -0.044    29.096     8.846
    33   6 C        2.915    -0.037    28.919     8.818
    34   6 C        2.915    -0.039    28.965     8.825
    35   6 C        2.922    -0.045    29.115     8.849
    36   6 C        2.980     0.003    27.951     8.672
    37   7 N        2.834    -0.051    22.219     7.001
    38   6 C        2.911     0.061    26.630     8.462
    39   6 C        2.922    -0.051    29.257     8.870
    40   6 C        2.919    -0.056    29.384     8.889
    41   6 C        2.884     0.111    25.549     8.287
    42   6 C        2.883     0.116    25.445     8.270
    43   6 C        2.921    -0.067    29.674     8.933
    44   8 O        1.704    -0.285    18.729     5.843
    45   6 C        3.712     0.070    19.531     6.315
    46   6 C        3.713     0.070    19.528     6.314
    47   8 O        1.704    -0.284    18.712     5.840
    48   6 C        3.046     0.023    27.443     8.592
    49   6 C        2.970     0.004    27.926     8.668
    50   6 C        2.923    -0.034    28.853     8.809
    51   6 C        2.918    -0.029    28.729     8.790
    52   6 C        2.919    -0.031    28.782     8.798
    53   6 C        2.918    -0.028    28.711     8.787
    54   6 C        2.925    -0.033    28.817     8.803
    55   6 C        2.927    -0.029    28.736     8.791
    56   6 C        2.918    -0.030    28.751     8.793
    57   1 H        0.926     0.035     2.519     2.482
    58   1 H        0.926     0.033     2.543     2.494
    59   1 H        0.926     0.027     2.635     2.538
    60   1 H        0.926     0.039     2.466     2.456
    61   1 H        0.926     0.033     2.548     2.496
    62   1 H        0.926     0.037     2.489     2.467
    63   1 H        0.926     0.034     2.534     2.489
    64   1 H        0.926     0.038     2.481     2.463
    65   1 H        0.926     0.039     2.461     2.453
    66   1 H        0.926     0.037     2.482     2.464
    67   1 H        0.926     0.039     2.468     2.457
    68   1 H        0.926     0.038     2.480     2.463
    69   1 H        0.926     0.038     2.481     2.463
    70   1 H        0.926     0.039     2.461     2.453
    71   1 H        0.926     0.038     2.481     2.463
    72   1 H        0.926     0.039     2.465     2.455
    73   1 H        0.926     0.038     2.473     2.459
    74   1 H        0.926     0.034     2.524     2.484
    75   1 H        0.926     0.036     2.502     2.473
    76   1 H        0.926     0.033     2.545     2.495
    77   1 H        0.926     0.026     2.646     2.544
    78   1 H        0.926     0.020     2.736     2.587
    79   1 H        0.926     0.013     2.840     2.635
    80   1 H        0.926     0.049     2.330     2.387
    81   1 H        0.926     0.062     2.171     2.304
    82   1 H        0.926     0.055     2.259     2.350
    83   1 H        0.924     0.070     2.087     2.259
    84   1 H        0.923     0.050     2.319     2.382
    85   1 H        0.923     0.049     2.333     2.389
    86   1 H        0.924     0.070     2.082     2.256
    87   1 H        0.926     0.024     2.675     2.558
    88   1 H        0.926     0.034     2.530     2.487
    89   1 H        0.926     0.037     2.489     2.467
    90   1 H        0.926     0.037     2.488     2.467
    91   1 H        0.926     0.030     2.589     2.516
    92   1 H        0.926     0.044     2.398     2.421
    93   1 H        0.926     0.035     2.518     2.481

molecular dipole:
                 x           y           z       tot (Debye)
 q only:        2.200       1.318       0.775
   full:        2.010       1.802       0.866       7.205

 projected vibrational frequencies (cm⁻¹)
eigval :       -0.00     0.00     0.00     0.00     0.00     0.00
eigval :        8.99    10.17    12.84    20.91    23.12    27.18
eigval :       32.11    38.14    42.36    48.13    54.07    57.14
eigval :       59.45    63.45    70.97    80.19    81.91    96.67
eigval :      107.63   111.73   116.41   127.79   136.57   148.02
eigval :      162.53   169.34   188.97   198.28   213.38   214.67
eigval :      219.50   231.34   239.30   250.13   253.54   259.14
eigval :      292.88   300.59   309.33   315.51   321.09   347.67
eigval :      359.69   361.40   369.08   376.41   378.00   379.83
eigval :      383.20   391.24   395.22   410.80   412.14   424.90
eigval :      439.13   454.33   458.33   466.70   468.57   473.11
eigval :      479.63   496.78   505.45   506.19   519.78   527.32
eigval :      539.04   548.60   575.31   579.44   583.81   585.34
eigval :      587.85   588.05   592.66   599.41   610.30   616.25
eigval :      637.66   643.56   651.60   655.00   659.10   660.70
eigval :      665.85   669.76   674.08   678.08   679.81   689.74
eigval :      709.14   722.73   731.47   755.99   758.47   758.98
eigval :      760.94   769.24   771.72   774.16   788.49   813.25
eigval :      826.23   840.46   847.45   867.78   872.39   872.82
eigval :      874.18   874.38   875.75   890.22   893.15   895.12
eigval :      896.72   898.26   900.38   901.74   902.62   908.32
eigval :      911.12   914.36   918.69   925.27   926.39   926.96
eigval :      927.28   927.72   928.65   929.59   929.85   930.30
eigval :      937.51   939.21   945.38   947.36   978.06   981.23
eigval :     1001.94  1006.94  1010.06  1031.15  1047.10  1068.37
eigval :     1079.37  1079.88  1081.32  1081.35  1090.60  1095.95
eigval :     1097.58  1115.46  1116.23  1119.06  1119.91  1121.62
eigval :     1122.95  1138.30  1147.12  1152.52  1170.68  1174.65
eigval :     1176.89  1178.34  1179.37  1179.52  1180.34  1183.28
eigval :     1187.65  1191.32  1193.47  1195.98  1198.72  1202.14
eigval :     1212.78  1217.49  1229.33  1243.26  1251.42  1264.29
eigval :     1268.67  1274.71  1275.63  1278.51  1280.82  1282.91
eigval :     1294.18  1296.80  1302.33  1309.82  1311.80  1314.75
eigval :     1315.76  1316.30  1320.61  1324.43  1325.22  1332.60
eigval :     1337.93  1345.25  1360.45  1386.80  1393.51  1413.50
eigval :     1423.54  1427.38  1429.23  1430.29  1434.43  1437.72
eigval :     1438.77  1442.87  1445.81  1447.64  1453.27  1461.92
eigval :     1462.40  1473.04  1479.11  1481.88  1487.76  1517.49
eigval :     1531.26  1537.37  1560.67  1563.94  1565.14  1568.07
eigval :     1571.99  1573.45  1576.76  1582.00  1585.98  1589.56
eigval :     1592.47  1594.37  2899.36  2914.95  3002.38  3005.75
eigval :     3062.87  3068.03  3070.18  3071.25  3071.95  3072.73
eigval :     3072.95  3074.84  3076.37  3076.98  3077.21  3078.24
eigval :     3080.11  3082.45  3083.36  3084.32  3085.45  3086.01
eigval :     3086.37  3087.81  3088.57  3089.38  3090.49  3090.70
eigval :     3092.68  3094.76  3096.63  3096.84  3097.09  3099.72
eigval :     3100.86  3111.59  3114.14

   temp. (K)  partition function   enthalpy   heat capacity  entropy
                                   cal/mol     cal/K/mol   cal/K/mol   J/K/mol
 298.15  VIB  0.477E+22            26872.765    167.845    168.806
         ROT  0.154E+09              888.752      2.981     40.446
         INT  0.734E+30            27761.518    170.826    209.252
         TR   0.188E+29             1481.254      4.968     45.598
         TOT                       29242.7718   175.7942   254.8493  1066.2896

       T/K    H(0)-H(T)+PV         H(T)/Eh          T*S/Eh         G(T)/Eh
   ------------------------------------------------------------------------
    298.15    0.466013E-01    0.763429E+00    0.121087E+00    0.642342E+00
   ------------------------------------------------------------------------

         :::::::::::::::::::::::::::::::::::::::::::::::::::::
         ::                  THERMODYNAMIC                  ::
         :::::::::::::::::::::::::::::::::::::::::::::::::::::
         :: total free energy        -144.365202695055 Eh   ::
         ::.................................................::
         :: total energy             -145.007544216381 Eh   ::
         :: zero point energy           0.716827342702 Eh   ::
         :: G(RRHO) w/o ZPVE           -0.074485821377 Eh   ::
         :: G(RRHO) contrib.            0.642341521326 Eh   ::
         :::::::::::::::::::::::::::::::::::::::::::::::::::::

           -------------------------------------------------
          | TOTAL ENERGY             -145.007544216381 Eh   |
          | TOTAL ENTHALPY           -144.244115550591 Eh   |
          | TOTAL FREE ENERGY        -144.365202695055 Eh   |
          | GRADIENT NORM               0.000032841662 Eh/α |
          | HOMO-LUMO GAP               0.722402705607 eV   |
           -------------------------------------------------

 * finished run on 2025/09/12 at 19:27:49.913
