   * xtb version 6.7.1 (edcfbbe) compiled by 'albert@albert-system' on 2024-07-22

   ID    Z sym.   atoms
    1    6 C      1-5, 7-15, 17-36, 38-43, 45, 46, 48-56
    2    7 N      6, 16, 37
    3    8 O      44, 47
    4    1 H      57-93

          program call               : xtb data2507/toluene/DDBP/DDBP_toluene_T1_crest.xyz --gfn 2 --uhf 2 --gbsa toluene --ohess vtight --parallel 40 --molden --ceasefiles --namespace data2507/toluene/DDBP/DDBP_toluene_T1_finalOpt
      * Solvation model:               GBSA
        Solvent                        toluene
        Solvent mass                       9.2140E+01 g/mol
          :  Hamiltonian                  GFN2-xTB          :
 * total energy  :  -145.0070191 Eh     change       -0.4454648E-08 Eh
 * total energy  :  -145.0071176 Eh     change       -0.9849219E-04 Eh
 * total energy  :  -145.0072022 Eh     change       -0.8454078E-04 Eh
 * total energy  :  -145.0072480 Eh     change       -0.4583828E-04 Eh
 * total energy  :  -145.0072947 Eh     change       -0.4663864E-04 Eh
 * total energy  :  -145.0073459 Eh     change       -0.5124784E-04 Eh
 * total energy  :  -145.0073692 Eh     change       -0.2334426E-04 Eh
 * total energy  :  -145.0073859 Eh     change       -0.1660695E-04 Eh
 * total energy  :  -145.0074056 Eh     change       -0.1979232E-04 Eh
 * total energy  :  -145.0074171 Eh     change       -0.1150349E-04 Eh
 * total energy  :  -145.0075144 Eh     change       -0.3933892E-06 Eh
 * total energy  :  -145.0075148 Eh     change       -0.3753063E-06 Eh
 * total energy  :  -145.0075151 Eh     change       -0.3302855E-06 Eh
 * total energy  :  -145.0075154 Eh     change       -0.2993291E-06 Eh
 * total energy  :  -145.0075158 Eh     change       -0.3040323E-06 Eh
 * total energy  :  -145.0075161 Eh     change       -0.3691938E-06 Eh
 * total energy  :  -145.0075166 Eh     change       -0.5015826E-06 Eh
 * total energy  :  -145.0075173 Eh     change       -0.7149804E-06 Eh
 * total energy  :  -145.0075173 Eh     change       -0.1979345E-08 Eh
   *** GEOMETRY OPTIMIZATION CONVERGED AFTER 68 ITERATIONS ***

 final structure:
================
93
 xtb: 6.7.1 (edcfbbe)
C           -7.62573058127390       -5.14963829700766        0.06920340851647
C           -6.65123994525736       -5.18406650720727       -0.91591429772887
C           -5.70635566370253       -4.17922308224250       -0.99216236418710
C           -5.72527222385328       -3.11845817539785       -0.08595494916015
C           -4.70559524969861       -2.08445968293586       -0.18952597065762
N           -3.47955928687651       -2.37372124799572       -0.66044900062591
C           -2.76432569390519       -1.24821116399081       -0.62945287472000
C           -1.42302993447162       -1.16808810686292       -1.05572176840631
C           -0.62622246234684       -2.35178356022236       -0.96551166042590
C            0.72718311093459       -2.28264042597522       -1.01359846052423
C            1.40646785912491       -1.03158420330490       -1.15714293145001
C            2.78723821394690       -0.91799898137985       -0.82488507355626
C            3.31468210970582        0.27605085047746       -0.27282926475461
C            4.63105489918089        0.38798388524443        0.08201352383564
C            5.51851760135668       -0.68735818029657       -0.09361422894958
N            6.85762518671314       -0.57039421176609        0.25555022706538
C            7.55114495903010       -1.67343646406216        0.76845084835448
C            6.92087606663926       -2.55979275737810        1.64354280635460
C            7.60950613675036       -3.64712770983855        2.14492271687419
C            8.93140222447109       -3.86589369899562        1.78906595476430
C            9.56248990976542       -2.98641347758896        0.92294998648347
C            8.88168657009252       -1.89878096060241        0.41161580551838
C            7.52076024216114        0.65277091494158        0.10095866600521
C            7.25498045068859        1.46586172233380       -1.00231745738682
C            7.91101650338727        2.67231906387326       -1.14965749279602
C            8.84168733509395        3.08495458858805       -0.20866154548129
C            9.11121362952604        2.27965702454070        0.88714092104911
C            8.45712211427150        1.07360802117888        1.04695606588198
C            5.01092741049658       -1.88559835807762       -0.62124162789929
C            3.69042505860692       -2.00008767757687       -0.96340759314388
C            0.62299762358480        0.08355049816950       -1.62585972543660
C            1.21514729688627        1.19540196052185       -2.23562621455778
C            0.45199250690871        2.21908400148477       -2.77530136882342
C           -0.92723801941903        2.12574327111010       -2.77464366043714
C           -1.53962544404061        1.01772453653472       -2.21030974644097
C           -0.79486848232780        0.00847242276733       -1.59672861323387
N           -3.52770194463612       -0.21337986216435       -0.09177595091230
C           -3.07280604739114        1.06776914505529        0.25534740202528
C           -1.88669459640580        1.21288976926990        0.97082532004732
C           -1.42413194209083        2.47220846942208        1.28758214573043
C           -2.13948298707401        3.60382986224269        0.91476854654494
C           -3.35528988028292        3.45739450808678        0.23794762949555
C           -3.80740072692130        2.19109160995136       -0.10143505614623
O           -4.12674763231686        4.53256216945528       -0.11552767098670
C           -3.75403312965643        5.73328166880121        0.53491941323742
C           -2.23553107805370        5.89506981911746        0.51167469662254
O           -1.62222356401702        4.83597556475021        1.22128218322324
C           -4.77229699418445       -0.73495356028049        0.18001759001176
C           -5.86905824388286        0.02631150794174        0.74843861355379
C           -5.68771606618340        0.83011894049926        1.87661744437567
C           -6.74857016148930        1.54037574712525        2.40493437282715
C           -8.00292871192846        1.46550561250000        1.82033043968554
C           -8.19422958935561        0.66508626863143        0.70414596969805
C           -7.13991942384151       -0.05015409080469        0.17169941742611
C           -6.69722819280161       -3.10178532972843        0.91378751777454
C           -7.64049993880908       -4.10979108813001        0.98510871392075
H           -8.36631198814300       -5.93391679799785        0.12797488786903
H           -6.62914684830406       -5.99769161926983       -1.62670503501142
H           -4.93872225997862       -4.19381966892974       -1.75112595021161
H           -1.13880729531398       -3.27955419983873       -0.76434917557260
H            1.30830177520347       -3.17457985837842       -0.83809709029686
H            2.64061331880564        1.09466195804824       -0.06908459945415
H            4.99419928409512        1.30089559321888        0.53202685794992
H            5.89525346206400       -2.38164361086392        1.93189756132483
H            7.11283886829237       -4.32355338789763        2.82487688752791
H            9.46657502917730       -4.71569279514244        2.18497241637386
H           10.59045996314240       -3.15319534550379        0.63658349514981
H            9.37069579099298       -1.22097924765881       -0.27262900210300
H            6.54057777195553        1.13816977419777       -1.74322225171138
H            7.70042507373275        3.29044960469228       -2.01005620277336
H            9.35376757058723        4.02763855275616       -0.32885204283100
H            9.83088160667500        2.59681177377957        1.62745474279357
H            8.65938140061947        0.45278308172181        1.90744336124841
H            5.68387274744433       -2.71592186564302       -0.78034371024433
H            3.34599884836508       -2.92080967966959       -1.40832204773028
H            2.29016788243378        1.23892242290009       -2.32465060681631
H            0.94075107687403        3.07121591275369       -3.22569376732686
H           -1.53112201591084        2.89819947497495       -3.22880939130121
H           -2.61264566428202        0.91751775982747       -2.27663122308882
H           -1.32795450663479        0.33874413285030        1.26653943779256
H           -0.49938658370530        2.60550183241325        1.82546564841536
H           -4.73331066419242        2.10491057705687       -0.64756245059050
H           -4.24919696875580        6.54031270308993       -0.00592630432584
H           -4.10219828359997        5.71329166956975        1.57622681363968
H           -1.88548395704332        5.89484413465342       -0.52927500527148
H           -1.92602995535492        6.81579593840814        1.00722259477324
H           -4.71679553495753        0.87838594655369        2.34834693848848
H           -6.59579353895132        2.15296424098750        3.28174579397143
H           -8.82835592153505        2.02528190449674        2.23425003326752
H           -9.16969912896718        0.60091838777865        0.24451851987411
H           -7.28544143310864       -0.67006343851777       -0.70126253290769
H           -6.70292919871549       -2.30627421968284        1.64403279753806
H           -8.38862158635592       -4.08627039909237        1.76455191019872

          :  Hamiltonian                  GFN2-xTB          :
         :: gradient norm              0.000034757378 Eh/a0 ::
         :: HOMO-LUMO gap              0.730380527294 eV    ::
         :: SCC energy              -147.559177158583 Eh    ::
         :: -> dispersion             -0.135052825970 Eh    ::
         :: -> Gsolv                  -0.059959355046 Eh    ::
         :: repulsion energy           2.551659819797 Eh    ::

    * Orbital Energies and Occupations

         #    Occupation            Energy/Eh            Energy/eV
      -------------------------------------------------------------
         1        2.0000           -0.7376519             -20.0725
       ...           ...                  ...                  ...
       123        2.0000           -0.4072355             -11.0814
       124        2.0000           -0.4056371             -11.0379
       125        2.0000           -0.4045967             -11.0096
       126        2.0000           -0.4023219             -10.9477
       127        2.0000           -0.3990837             -10.8596
       128        2.0000           -0.3987663             -10.8510
       129        2.0000           -0.3947937             -10.7429
       130        2.0000           -0.3850494             -10.4777
       131        2.0000           -0.3778523             -10.2819
       132        2.0000           -0.3729863             -10.1495
       133        2.0000           -0.3606381              -9.8135
       134        1.0000           -0.3409601              -9.2780
       135        1.0000           -0.2770278              -7.5383 (HOMO)
       136        0.0000           -0.2501869              -6.8079 (LUMO)
       137                         -0.2379285              -6.4744
       138                         -0.2366430              -6.4394
       139                         -0.2329886              -6.3399
       140                         -0.2316165              -6.3026
       141                         -0.2310905              -6.2883
       142                         -0.2272120              -6.1828
       143                         -0.2270942              -6.1795
       144                         -0.2230718              -6.0701
       145                         -0.2198813              -5.9833
       146                         -0.2197476              -5.9796
       ...                                ...                  ...
       261                          0.7185301              19.5522
      -------------------------------------------------------------
                  HL-Gap            0.0268408 Eh            0.7304 eV

     #   Z          covCN         q      C6AA      α(0)
     1   6 C        2.919    -0.031    28.782     8.798
     2   6 C        2.918    -0.030    28.750     8.793
     3   6 C        2.927    -0.029    28.734     8.791
     4   6 C        2.973     0.006    27.882     8.661
     5   6 C        3.144     0.068    26.243     8.382
     6   7 N        1.901    -0.322    29.208     8.013
     7   6 C        3.127     0.132    24.931     8.176
     8   6 C        2.970    -0.025    28.630     8.777
     9   6 C        2.916    -0.040    29.004     8.831
    10   6 C        2.913    -0.042    29.035     8.836
    11   6 C        2.971    -0.014    28.365     8.736
    12   6 C        2.969     0.008    27.835     8.654
    13   6 C        2.921    -0.037    28.920     8.819
    14   6 C        2.915    -0.046    29.151     8.854
    15   6 C        2.924     0.055    26.767     8.484
    16   7 N        2.752    -0.048    22.166     6.992
    17   6 C        2.926     0.063    26.578     8.455
    18   6 C        2.921    -0.043    29.076     8.843
    19   6 C        2.919    -0.028    28.700     8.785
    20   6 C        2.919    -0.035    28.860     8.810
    21   6 C        2.919    -0.028    28.700     8.785
    22   6 C        2.921    -0.044    29.096     8.846
    23   6 C        2.926     0.064    26.577     8.454
    24   6 C        2.921    -0.043    29.075     8.842
    25   6 C        2.919    -0.028    28.702     8.785
    26   6 C        2.919    -0.035    28.865     8.810
    27   6 C        2.919    -0.028    28.701     8.785
    28   6 C        2.921    -0.044    29.099     8.846
    29   6 C        2.915    -0.046    29.131     8.851
    30   6 C        2.920    -0.038    28.954     8.824
    31   6 C        2.980     0.006    27.891     8.663
    32   6 C        2.921    -0.044    29.091     8.845
    33   6 C        2.915    -0.037    28.918     8.818
    34   6 C        2.915    -0.039    28.966     8.825
    35   6 C        2.922    -0.045    29.109     8.848
    36   6 C        2.981     0.003    27.952     8.672
    37   7 N        2.834    -0.051    22.222     7.001
    38   6 C        2.911     0.061    26.630     8.462
    39   6 C        2.922    -0.051    29.256     8.870
    40   6 C        2.919    -0.056    29.383     8.889
    41   6 C        2.884     0.111    25.548     8.287
    42   6 C        2.883     0.116    25.445     8.270
    43   6 C        2.921    -0.067    29.673     8.933
    44   8 O        1.704    -0.285    18.729     5.843
    45   6 C        3.712     0.070    19.531     6.315
    46   6 C        3.713     0.070    19.528     6.314
    47   8 O        1.704    -0.284    18.710     5.840
    48   6 C        3.046     0.023    27.443     8.592
    49   6 C        2.970     0.004    27.928     8.668
    50   6 C        2.923    -0.034    28.856     8.809
    51   6 C        2.918    -0.029    28.730     8.790
    52   6 C        2.919    -0.031    28.784     8.798
    53   6 C        2.918    -0.028    28.711     8.787
    54   6 C        2.925    -0.033    28.820     8.804
    55   6 C        2.923    -0.036    28.907     8.817
    56   6 C        2.918    -0.031    28.762     8.794
    57   1 H        0.926     0.035     2.518     2.481
    58   1 H        0.926     0.035     2.516     2.481
    59   1 H        0.926     0.043     2.404     2.425
    60   1 H        0.926     0.039     2.463     2.454
    61   1 H        0.926     0.033     2.546     2.495
    62   1 H        0.926     0.037     2.491     2.468
    63   1 H        0.926     0.034     2.534     2.489
    64   1 H        0.926     0.038     2.474     2.459
    65   1 H        0.926     0.039     2.465     2.455
    66   1 H        0.926     0.038     2.480     2.463
    67   1 H        0.926     0.039     2.460     2.453
    68   1 H        0.926     0.038     2.481     2.463
    69   1 H        0.926     0.038     2.479     2.462
    70   1 H        0.926     0.039     2.468     2.457
    71   1 H        0.926     0.037     2.483     2.464
    72   1 H        0.926     0.039     2.462     2.454
    73   1 H        0.926     0.037     2.483     2.464
    74   1 H        0.926     0.034     2.524     2.484
    75   1 H        0.926     0.036     2.503     2.474
    76   1 H        0.926     0.033     2.547     2.496
    77   1 H        0.926     0.026     2.645     2.543
    78   1 H        0.926     0.020     2.735     2.586
    79   1 H        0.926     0.013     2.840     2.636
    80   1 H        0.926     0.049     2.330     2.387
    81   1 H        0.926     0.062     2.172     2.305
    82   1 H        0.926     0.055     2.259     2.350
    83   1 H        0.924     0.070     2.087     2.259
    84   1 H        0.923     0.050     2.319     2.382
    85   1 H        0.923     0.049     2.332     2.388
    86   1 H        0.924     0.070     2.082     2.256
    87   1 H        0.926     0.024     2.676     2.558
    88   1 H        0.926     0.034     2.531     2.488
    89   1 H        0.926     0.037     2.490     2.468
    90   1 H        0.926     0.037     2.489     2.467
    91   1 H        0.926     0.030     2.591     2.517
    92   1 H        0.926     0.026     2.638     2.540
    93   1 H        0.926     0.033     2.542     2.493

molecular dipole:
                 x           y           z       tot (Debye)
 q only:        2.189       1.304       0.849
   full:        2.000       1.782       0.962       7.235

 projected vibrational frequencies (cm⁻¹)
eigval :       -0.00    -0.00    -0.00    -0.00     0.00     0.00
eigval :        4.65     9.12    11.56    20.66    22.30    25.23
eigval :       31.01    36.87    39.88    49.41    52.51    58.31
eigval :       60.15    62.39    72.01    78.72    81.55    95.00
eigval :      107.14   110.19   115.20   125.72   136.92   146.65
eigval :      162.03   167.49   186.92   197.33   213.06   214.13
eigval :      218.39   231.05   239.00   250.63   253.30   259.67
eigval :      293.22   300.63   309.09   315.22   320.77   346.89
eigval :      358.50   360.34   370.84   377.73   378.30   379.69
eigval :      382.83   390.00   394.33   410.38   411.80   424.59
eigval :      438.84   453.83   458.38   466.09   468.02   473.38
eigval :      479.56   496.66   503.71   505.64   519.64   527.16
eigval :      537.97   548.37   574.65   579.37   583.81   585.24
eigval :      587.56   588.30   592.53   599.33   610.22   616.31
eigval :      637.13   641.98   651.55   654.60   659.00   660.15
eigval :      665.10   669.74   672.88   677.79   679.19   689.73
eigval :      708.79   722.74   732.17   756.20   759.69   760.34
eigval :      762.15   767.36   770.25   774.15   783.44   812.49
eigval :      827.64   840.42   847.42   869.98   870.36   872.67
eigval :      875.25   875.60   877.66   889.03   890.44   893.82
eigval :      898.48   898.93   899.53   900.34   903.38   908.16
eigval :      910.96   912.55   918.34   925.10   925.87   926.70
eigval :      928.39   929.51   931.01   931.05   931.63   931.72
eigval :      937.69   939.72   945.71   947.58   978.03   981.39
eigval :     1002.01  1007.74  1010.16  1031.06  1047.03  1068.83
eigval :     1079.57  1079.82  1081.36  1081.67  1090.21  1095.84
eigval :     1097.28  1114.80  1117.38  1120.42  1120.65  1121.63
eigval :     1122.96  1140.13  1146.99  1152.59  1170.81  1174.60
eigval :     1177.60  1179.05  1179.43  1179.70  1180.94  1183.31
eigval :     1187.74  1191.99  1195.06  1196.65  1199.81  1202.60
eigval :     1213.91  1218.57  1229.93  1242.43  1251.26  1266.34
eigval :     1270.07  1274.70  1275.45  1278.79  1281.12  1283.13
eigval :     1295.31  1296.90  1302.38  1310.71  1311.98  1315.30
eigval :     1316.13  1316.35  1320.20  1324.36  1325.35  1332.69
eigval :     1337.70  1345.27  1360.44  1386.55  1393.81  1413.59
eigval :     1424.32  1427.85  1429.46  1430.27  1434.75  1438.11
eigval :     1438.71  1442.66  1446.18  1447.55  1454.27  1462.03
eigval :     1462.67  1473.86  1479.98  1481.91  1488.33  1517.83
eigval :     1531.29  1537.70  1561.30  1564.34  1565.40  1568.19
eigval :     1572.04  1573.53  1576.71  1582.09  1585.71  1589.60
eigval :     1592.61  1594.61  2899.25  2914.83  3002.24  3005.55
eigval :     3062.68  3067.85  3070.44  3071.47  3071.60  3072.63
eigval :     3072.67  3075.37  3075.65  3076.82  3077.34  3078.33
eigval :     3080.61  3082.08  3083.43  3084.18  3084.82  3085.61
eigval :     3086.59  3087.71  3088.42  3089.38  3089.69  3089.90
eigval :     3092.72  3094.03  3096.11  3096.64  3097.31  3099.01
eigval :     3099.77  3111.41  3113.80

   temp. (K)  partition function   enthalpy   heat capacity  entropy
                                   cal/mol     cal/K/mol   cal/K/mol   J/K/mol
 298.15  VIB  0.153E+23            26915.578    167.756    170.006
         ROT  0.153E+09              888.752      2.981     40.437
         INT  0.235E+31            27804.330    170.737    210.442
         TR   0.188E+29             1481.254      4.968     45.598
         TOT                       29285.5839   175.7047   256.0399  1071.2710

       T/K    H(0)-H(T)+PV         H(T)/Eh          T*S/Eh         G(T)/Eh
   ------------------------------------------------------------------------
    298.15    0.466695E-01    0.763450E+00    0.121653E+00    0.641798E+00
   ------------------------------------------------------------------------

         :::::::::::::::::::::::::::::::::::::::::::::::::::::
         ::                  THERMODYNAMIC                  ::
         :::::::::::::::::::::::::::::::::::::::::::::::::::::
         :: total free energy        -144.365719692432 Eh   ::
         ::.................................................::
         :: total energy             -145.007517335944 Eh   ::
         :: zero point energy           0.716780924306 Eh   ::
         :: G(RRHO) w/o ZPVE           -0.074983280794 Eh   ::
         :: G(RRHO) contrib.            0.641797643512 Eh   ::
         :::::::::::::::::::::::::::::::::::::::::::::::::::::

           -------------------------------------------------
          | TOTAL ENERGY             -145.007517335944 Eh   |
          | TOTAL ENTHALPY           -144.244066862995 Eh   |
          | TOTAL FREE ENERGY        -144.365719692432 Eh   |
          | GRADIENT NORM               0.000034837612 Eh/α |
          | HOMO-LUMO GAP               0.730376321582 eV   |
           -------------------------------------------------

 * finished run on 2025/09/12 at 19:37:40.276
