   * xtb version 6.7.1 (edcfbbe) compiled by 'albert@albert-system' on 2024-07-22

   ID    Z sym.   atoms
    1    6 C      1-5, 7-15, 17-36, 38-43, 45, 46, 48-56
    2    7 N      6, 16, 37
    3    8 O      44, 47
    4    1 H      57-93

          program call               : xtb data2507/toluene/DDBP/DDBP.xyz --gfn 2 --gbsa toluene --ohess vtight --parallel 40 --molden --ceasefiles --namespace data2507/toluene/DDBP/DDBP_toluene_S0_preOpt
      * Solvation model:               GBSA
        Solvent                        toluene
        Solvent mass                       9.2140E+01 g/mol
          :  Hamiltonian                  GFN2-xTB          :
 * total energy  :  -145.0536506 Eh     change       -0.2688381E-08 Eh
 * total energy  :  -145.0684584 Eh     change       -0.1480775E-01 Eh
 * total energy  :  -145.0730074 Eh     change       -0.4549056E-02 Eh
 * total energy  :  -145.0741987 Eh     change       -0.1191282E-02 Eh
 * total energy  :  -145.0749596 Eh     change       -0.7608675E-03 Eh
 * total energy  :  -145.0753473 Eh     change       -0.3877403E-03 Eh
 * total energy  :  -145.0756533 Eh     change       -0.3060061E-03 Eh
 * total energy  :  -145.0759340 Eh     change       -0.2807047E-03 Eh
 * total energy  :  -145.0762036 Eh     change       -0.2695597E-03 Eh
 * total energy  :  -145.0764752 Eh     change       -0.2716688E-03 Eh
 * total energy  :  -145.0840955 Eh     change       -0.4839376E-06 Eh
 * total energy  :  -145.0840960 Eh     change       -0.4899373E-06 Eh
 * total energy  :  -145.0840966 Eh     change       -0.5832227E-06 Eh
 * total energy  :  -145.0840973 Eh     change       -0.7407862E-06 Eh
 * total energy  :  -145.0840982 Eh     change       -0.8342922E-06 Eh
 * total energy  :  -145.0840990 Eh     change       -0.7692072E-06 Eh
 * total energy  :  -145.0840996 Eh     change       -0.6552489E-06 Eh
 * total energy  :  -145.0841001 Eh     change       -0.5388162E-06 Eh
 * total energy  :  -145.0841002 Eh     change       -0.3743168E-08 Eh
   *** GEOMETRY OPTIMIZATION CONVERGED AFTER 152 ITERATIONS ***

 final structure:
================
93
 xtb: 6.7.1 (edcfbbe)
C           -8.16210226399022       -4.63131496993575       -0.18408677135179
C           -8.47106228882788       -3.31255029861249       -0.47629851756768
C           -7.50023146090267       -2.33180087538279       -0.39320930542590
C           -6.20175185849078       -2.65885104371329       -0.00542105749293
C           -5.14849317869204       -1.65844161404127        0.08980721540707
N           -3.84343777415516       -2.01370053517009       -0.08474562342034
C           -3.12774729510070       -0.92089254202448        0.00852217692128
C           -1.67374801663821       -0.85249489286501       -0.05007608119832
C           -0.99321213354114       -0.06655907284318        0.85468488346578
C            0.39956197974259        0.00887476368192        0.83991988674097
C            1.14467382625911       -0.70233521772268       -0.07182908468390
C            2.61477889160477       -0.63041248795861       -0.00743493665912
C            3.26510841918213        0.59936080404577       -0.07356958861161
C            4.63961802363952        0.68186465923268        0.01492873929023
C            5.40785120607802       -0.47122524515171        0.18002268393446
N            6.80175703776653       -0.39270528997872        0.26694515500437
C            7.50200729556390        0.52734309689616       -0.52289857433487
C            8.62590557458437        1.18263738943554       -0.01916498823320
C            9.31834066530953        2.08333242443771       -0.80550750362994
C            8.89957971530946        2.35456905122765       -2.09826217134570
C            7.78051538772477        1.71098970404818       -2.60181221062421
C            7.08738913756533        0.80128904100979       -1.82664816196872
C            7.49686460393043       -1.23885699443049        1.14051459053188
C            8.73150102951655       -1.77530009380815        0.77462839577914
C            9.41626773294472       -2.60351103842966        1.64305670659957
C            8.88152729211125       -2.91853517904849        2.88197765575660
C            7.65279512984374       -2.39307029415473        3.24827248990823
C            6.96474747579759       -1.55656311833152        2.39044758070715
C            4.75882500245970       -1.70425228338041        0.25982490822718
C            3.38441670797795       -1.77905206527283        0.16838601210246
C            0.47819618642090       -1.50498922375327       -1.03792948845505
C            1.18616193901759       -2.19174761090836       -2.04851547034547
C            0.53531902268719       -2.96459790206637       -2.96879188085128
C           -0.86081399061220       -3.08197939345950       -2.92705515008565
C           -1.58028331205109       -2.40614197002044       -1.98122614963152
C           -0.94092752663622       -1.59730716512211       -1.01819071211861
N           -3.92864566899420        0.16847285732481        0.24581293709323
C           -3.52143352204957        1.50878083675990        0.37970507765044
C           -3.91541111755814        2.25710568555692        1.48484343414831
C           -3.48776496732086        3.56257841911001        1.61541942717214
C           -2.66851102361718        4.13963900932332        0.65283983313610
C           -2.30427960710183        3.39795914552204       -0.47793255830095
C           -2.72954130269186        2.08339817460933       -0.60453996776929
O           -1.54237533596363        3.92937642937501       -1.48263582527100
C           -1.43713438346546        5.34048508095596       -1.42795107613128
C           -1.16174579132631        5.79313338294532        0.00423627108765
O           -2.23713364688056        5.42491251843200        0.84727362279575
C           -5.22601062551050       -0.29335108951500        0.30754463566967
C           -6.36653964770613        0.57677335286510        0.56754942141948
C           -7.28656428050770        0.23767114510446        1.55938742580513
C           -8.37039610819148        1.05568538835560        1.81568333313752
C           -8.55033515168695        2.22262871675482        1.08968328867544
C           -7.64173757649419        2.56571540952175        0.10220316910708
C           -6.55580864792063        1.75054592875843       -0.15966683300528
C           -5.89521010412228       -3.99172783848643        0.26933935457429
C           -6.86861608501975       -4.96820957880933        0.18208057852246
H           -8.92459892420764       -5.39394209303868       -0.24948640582213
H           -9.47462813817036       -3.04624889195259       -0.77647738795743
H           -7.74580076309956       -1.30954489492283       -0.64022831326244
H           -1.53582123079417        0.48154073727074        1.61126200997054
H            0.90086870969446        0.61558695030536        1.58050752679147
H            2.68234877806268        1.49980085601662       -0.20474090335920
H            5.12971442021451        1.64307498335054       -0.04036532068539
H            8.95002429078700        0.98101326154425        0.99158806814077
H           10.18702216008317        2.58325422511263       -0.40193530393912
H            9.44141306308102        3.06145088079983       -2.70864861859989
H            7.44905371207005        1.91102763012752       -3.61057574532136
H            6.22129920269218        0.29408290902200       -2.22643267590714
H            9.14710721458493       -1.53975494658643       -0.19443078207308
H           10.37080836791173       -3.01292003448509        1.34557088846994
H            9.41795064724122       -3.56894937786723        3.55651213557262
H            7.22971750017334       -2.62864700521354        4.21413518660645
H            6.01098813880125       -1.14183906199283        2.68310588510043
H            5.34134262066231       -2.60424629982621        0.39273208033444
H            2.89522815096769       -2.73961444174437        0.24263278388316
H            2.25996392315028       -2.08831868047889       -2.09151017861856
H            1.09257771587959       -3.48302110148477       -3.73563250424439
H           -1.36727118740688       -3.69976041499712       -3.65439593352390
H           -2.65481876303925       -2.49237234536341       -1.94760491195374
H           -4.54037340525406        1.81206786221398        2.24288984274947
H           -3.76887322356356        4.15633814890013        2.47019232524314
H           -2.43191495734263        1.52357821217868       -1.47730397438464
H           -0.61901465645692        5.61165856747031       -2.09571061380518
H           -2.37255378390592        5.79500647626754       -1.78033203849475
H           -0.23424415486201        5.32632692803526        0.36167493324992
H           -1.07928866628923        6.87843250405785        0.06918412489295
H           -7.14118454540199       -0.67201739002039        2.12416276723264
H           -9.07571226180381        0.78301893830288        2.58707201714204
H           -9.39730868130813        2.86132256781424        1.29222743186341
H           -7.78021238688413        3.47135598196140       -0.47027849608282
H           -5.85664806203549        2.01547157162297       -0.93999436524694
H           -4.88251758364700       -4.24010494307135        0.54924057504444
H           -6.61934782983977       -5.99675476025926        0.40125368914730

          :  Hamiltonian                  GFN2-xTB          :
         :: gradient norm              0.000050678425 Eh/a0 ::
         :: HOMO-LUMO gap              2.164301661746 eV    ::
         :: SCC energy              -147.651803813091 Eh    ::
         :: -> dispersion             -0.131482025138 Eh    ::
         :: -> Gsolv                  -0.059424327838 Eh    ::
         :: repulsion energy           2.567703662894 Eh    ::

    * Orbital Energies and Occupations

         #    Occupation            Energy/Eh            Energy/eV
      -------------------------------------------------------------
         1        2.0000           -0.7406075             -20.1530
       ...           ...                  ...                  ...
       122        2.0000           -0.4081963             -11.1076
       123        2.0000           -0.4072349             -11.0814
       124        2.0000           -0.4054628             -11.0332
       125        2.0000           -0.4043394             -11.0026
       126        2.0000           -0.4031946             -10.9715
       127        2.0000           -0.4024904             -10.9523
       128        2.0000           -0.4012833             -10.9195
       129        2.0000           -0.3995420             -10.8721
       130        2.0000           -0.3879135             -10.5557
       131        2.0000           -0.3802932             -10.3483
       132        2.0000           -0.3763829             -10.2419
       133        2.0000           -0.3610687              -9.8252
       134        2.0000           -0.3486362              -9.4869 (HOMO)
       135                         -0.2690996              -7.3226 (LUMO)
       136                         -0.2493426              -6.7850
       137                         -0.2410904              -6.5604
       138                         -0.2351619              -6.3991
       139                         -0.2303296              -6.2676
       140                         -0.2301923              -6.2639
       141                         -0.2289332              -6.2296
       142                         -0.2277821              -6.1983
       143                         -0.2273538              -6.1866
       144                         -0.2228105              -6.0630
       145                         -0.2221963              -6.0463
       ...                                ...                  ...
       261                          0.7057723              19.2050
      -------------------------------------------------------------
                  HL-Gap            0.0795366 Eh            2.1643 eV

     #   Z          covCN         q      C6AA      α(0)
     1   6 C        2.919    -0.034    28.837     8.806
     2   6 C        2.919    -0.031    28.785     8.798
     3   6 C        2.923    -0.039    28.977     8.828
     4   6 C        2.973     0.006    27.881     8.661
     5   6 C        3.162     0.053    26.493     8.413
     6   7 N        1.912    -0.314    28.977     7.981
     7   6 C        3.150     0.132    24.861     8.156
     8   6 C        2.969    -0.010    28.269     8.721
     9   6 C        2.921    -0.039    28.965     8.826
    10   6 C        2.921    -0.039    28.961     8.825
    11   6 C        2.974     0.005    27.904     8.665
    12   6 C        2.977     0.004    27.940     8.670
    13   6 C        2.924    -0.034    28.854     8.809
    14   6 C        2.920    -0.048    29.204     8.862
    15   6 C        2.923     0.064    26.558     8.451
    16   7 N        2.752    -0.079    22.776     7.088
    17   6 C        2.923     0.065    26.534     8.447
    18   6 C        2.922    -0.048    29.198     8.861
    19   6 C        2.919    -0.030    28.758     8.794
    20   6 C        2.919    -0.040    28.984     8.828
    21   6 C        2.919    -0.030    28.758     8.794
    22   6 C        2.922    -0.048    29.200     8.862
    23   6 C        2.923     0.065    26.535     8.447
    24   6 C        2.922    -0.048    29.191     8.860
    25   6 C        2.919    -0.030    28.755     8.794
    26   6 C        2.919    -0.039    28.977     8.827
    27   6 C        2.919    -0.030    28.755     8.793
    28   6 C        2.922    -0.048    29.195     8.861
    29   6 C        2.920    -0.049    29.210     8.863
    30   6 C        2.923    -0.033    28.812     8.802
    31   6 C        2.986     0.008    27.835     8.654
    32   6 C        2.919    -0.036    28.891     8.814
    33   6 C        2.915    -0.031    28.765     8.795
    34   6 C        2.916    -0.030    28.744     8.792
    35   6 C        2.918    -0.036    28.896     8.815
    36   6 C        2.986     0.011    27.770     8.644
    37   7 N        2.852    -0.041    22.039     6.972
    38   6 C        2.912     0.058    26.699     8.473
    39   6 C        2.920    -0.050    29.243     8.868
    40   6 C        2.919    -0.055    29.375     8.888
    41   6 C        2.883     0.113    25.507     8.280
    42   6 C        2.883     0.117    25.419     8.265
    43   6 C        2.922    -0.068    29.689     8.935
    44   8 O        1.704    -0.283    18.696     5.838
    45   6 C        3.712     0.070    19.540     6.316
    46   6 C        3.713     0.069    19.542     6.317
    47   8 O        1.704    -0.281    18.671     5.834
    48   6 C        3.065     0.015    27.603     8.615
    49   6 C        2.971     0.006    27.880     8.661
    50   6 C        2.925    -0.033    28.820     8.804
    51   6 C        2.918    -0.028    28.710     8.787
    52   6 C        2.920    -0.031    28.769     8.796
    53   6 C        2.918    -0.029    28.736     8.791
    54   6 C        2.924    -0.035    28.859     8.810
    55   6 C        2.927    -0.032    28.789     8.799
    56   6 C        2.918    -0.031    28.777     8.797
    57   1 H        0.926     0.031     2.571     2.507
    58   1 H        0.926     0.030     2.589     2.516
    59   1 H        0.926     0.025     2.666     2.553
    60   1 H        0.926     0.024     2.674     2.557
    61   1 H        0.926     0.033     2.541     2.493
    62   1 H        0.926     0.033     2.539     2.492
    63   1 H        0.926     0.034     2.533     2.489
    64   1 H        0.926     0.031     2.569     2.507
    65   1 H        0.926     0.033     2.545     2.495
    66   1 H        0.926     0.032     2.565     2.504
    67   1 H        0.926     0.033     2.543     2.494
    68   1 H        0.926     0.031     2.569     2.506
    69   1 H        0.926     0.032     2.564     2.504
    70   1 H        0.926     0.033     2.541     2.493
    71   1 H        0.926     0.032     2.562     2.503
    72   1 H        0.926     0.033     2.544     2.494
    73   1 H        0.926     0.031     2.570     2.507
    74   1 H        0.926     0.034     2.532     2.488
    75   1 H        0.926     0.036     2.500     2.473
    76   1 H        0.926     0.038     2.472     2.459
    77   1 H        0.926     0.034     2.523     2.484
    78   1 H        0.926     0.034     2.535     2.490
    79   1 H        0.926     0.046     2.364     2.405
    80   1 H        0.926     0.053     2.279     2.361
    81   1 H        0.926     0.065     2.138     2.287
    82   1 H        0.926     0.056     2.251     2.346
    83   1 H        0.924     0.071     2.076     2.253
    84   1 H        0.923     0.051     2.309     2.376
    85   1 H        0.923     0.050     2.316     2.380
    86   1 H        0.924     0.071     2.073     2.251
    87   1 H        0.926     0.031     2.572     2.508
    88   1 H        0.926     0.037     2.490     2.468
    89   1 H        0.926     0.037     2.491     2.468
    90   1 H        0.926     0.034     2.524     2.484
    91   1 H        0.926     0.024     2.670     2.555
    92   1 H        0.926     0.043     2.410     2.428
    93   1 H        0.926     0.032     2.563     2.503

molecular dipole:
                 x           y           z       tot (Debye)
 q only:        0.798       1.600      -0.046
   full:        0.735       2.086      -0.004       5.622

 projected vibrational frequencies (cm⁻¹)
eigval :       -0.00    -0.00     0.00     0.00     0.00     0.00
eigval :        8.31     9.11    14.97    16.96    21.76    28.07
eigval :       33.19    35.98    38.80    43.15    51.42    52.32
eigval :       56.47    68.22    70.30    71.82    77.42    95.52
eigval :      100.50   108.91   113.07   119.53   129.74   147.68
eigval :      156.93   170.98   181.48   190.91   201.44   208.62
eigval :      224.98   232.09   236.05   239.75   257.99   262.60
eigval :      301.49   307.78   314.16   325.56   329.26   350.07
eigval :      365.17   372.41   377.71   378.63   379.22   382.49
eigval :      388.17   396.10   404.13   410.45   421.53   431.17
eigval :      436.85   441.58   464.04   465.98   475.59   479.03
eigval :      486.42   494.11   504.31   508.64   527.99   538.04
eigval :      551.07   570.76   581.30   585.96   586.93   587.46
eigval :      590.43   593.68   598.64   602.79   620.41   627.69
eigval :      644.90   653.05   658.40   659.60   660.58   666.33
eigval :      671.80   674.02   680.62   687.98   690.67   694.61
eigval :      729.67   730.45   736.01   756.04   760.00   760.73
eigval :      765.69   772.28   779.36   781.79   815.23   829.73
eigval :      843.93   856.51   870.08   870.38   873.56   875.17
eigval :      877.50   879.03   880.18   890.67   891.26   899.85
eigval :      900.59   901.28   904.33   909.34   911.77   916.26
eigval :      919.47   920.34   927.31   927.64   928.04   928.48
eigval :      929.19   930.06   930.32   931.12   931.44   934.90
eigval :      935.76   946.03   948.45   953.69   980.29   987.01
eigval :     1003.74  1020.72  1024.37  1031.25  1057.01  1069.17
eigval :     1081.27  1082.13  1083.12  1083.51  1088.74  1096.28
eigval :     1112.75  1117.32  1120.82  1121.12  1123.13  1124.18
eigval :     1131.85  1138.49  1162.82  1174.25  1179.46  1179.50
eigval :     1180.01  1180.44  1181.50  1184.58  1184.63  1191.77
eigval :     1194.92  1195.44  1196.15  1200.95  1202.99  1211.85
eigval :     1213.65  1222.07  1232.24  1247.34  1259.14  1267.83
eigval :     1271.84  1275.30  1277.30  1282.26  1283.52  1285.61
eigval :     1295.50  1306.77  1309.89  1312.55  1313.85  1314.61
eigval :     1317.70  1320.34  1322.56  1324.90  1332.78  1333.51
eigval :     1366.24  1372.41  1380.97  1394.97  1404.86  1412.66
eigval :     1426.19  1431.35  1434.21  1437.86  1440.80  1444.56
eigval :     1447.53  1449.87  1454.30  1470.22  1472.97  1483.83
eigval :     1487.26  1487.67  1507.65  1526.03  1553.81  1559.41
eigval :     1560.82  1570.41  1575.29  1577.47  1577.63  1579.35
eigval :     1580.81  1591.52  1592.65  1594.00  1595.97  1598.24
eigval :     1600.05  1607.14  2900.81  2916.16  3004.30  3007.81
eigval :     3066.03  3069.45  3070.30  3070.82  3071.01  3071.38
eigval :     3071.73  3072.20  3072.83  3072.91  3073.02  3075.83
eigval :     3079.02  3080.14  3080.48  3081.67  3082.50  3083.53
eigval :     3083.59  3083.98  3085.05  3085.54  3088.55  3089.02
eigval :     3092.12  3092.67  3093.29  3094.07  3096.06  3103.60
eigval :     3107.94  3108.37  3115.55

   temp. (K)  partition function   enthalpy   heat capacity  entropy
                                   cal/mol     cal/K/mol   cal/K/mol   J/K/mol
 298.15  VIB  0.108E+23            26781.493    166.044    169.044
         ROT  0.156E+09              888.752      2.981     40.478
         INT  0.169E+31            27670.245    169.025    209.522
         TR   0.188E+29             1481.254      4.968     45.598
         TOT                       29151.4992   173.9934   255.1194  1067.4196

       T/K    H(0)-H(T)+PV         H(T)/Eh          T*S/Eh         G(T)/Eh
   ------------------------------------------------------------------------
    298.15    0.464559E-01    0.766381E+00    0.121215E+00    0.645165E+00
   ------------------------------------------------------------------------

         :::::::::::::::::::::::::::::::::::::::::::::::::::::
         ::                  THERMODYNAMIC                  ::
         :::::::::::::::::::::::::::::::::::::::::::::::::::::
         :: total free energy        -144.438934654874 Eh   ::
         ::.................................................::
         :: total energy             -145.084100152508 Eh   ::
         :: zero point energy           0.719925087850 Eh   ::
         :: G(RRHO) w/o ZPVE           -0.074759590216 Eh   ::
         :: G(RRHO) contrib.            0.645165497633 Eh   ::
         :::::::::::::::::::::::::::::::::::::::::::::::::::::

           -------------------------------------------------
          | TOTAL ENERGY             -145.084100152508 Eh   |
          | TOTAL ENTHALPY           -144.317719193672 Eh   |
          | TOTAL FREE ENERGY        -144.438934654874 Eh   |
          | GRADIENT NORM               0.000050678484 Eh/α |
          | HOMO-LUMO GAP               2.164301839346 eV   |
           -------------------------------------------------

 * finished run on 2025/09/12 at 19:19:00.078
