   * xtb version 6.7.1 (edcfbbe) compiled by 'albert@albert-system' on 2024-07-22

   ID    Z sym.   atoms
    1    6 C      1-4, 6-19, 21, 22, 24-32
    2    7 N      5, 20, 23
    3    1 H      33-51

          program call               : xtb data2507/toluene/SAIP/SAIP.xyz --gfn 2 --gbsa toluene --ohess vtight --parallel 40 --molden --ceasefiles --namespace data2507/toluene/SAIP/SAIP_toluene_S0_preOpt
      * Solvation model:               GBSA
        Solvent                        toluene
        Solvent mass                       9.2140E+01 g/mol
          :  Hamiltonian                  GFN2-xTB          :
 * total energy  :   -80.5926102 Eh     change       -0.2053227E-08 Eh
 * total energy  :   -80.6068382 Eh     change       -0.1422796E-01 Eh
 * total energy  :   -80.6108131 Eh     change       -0.3974883E-02 Eh
 * total energy  :   -80.6112345 Eh     change       -0.4213961E-03 Eh
 * total energy  :   -80.6114166 Eh     change       -0.1821206E-03 Eh
 * total energy  :   -80.6114465 Eh     change       -0.2988810E-04 Eh
 * total energy  :   -80.6114582 Eh     change       -0.1174518E-04 Eh
 * total energy  :   -80.6114618 Eh     change       -0.3582725E-05 Eh
 * total energy  :   -80.6114649 Eh     change       -0.3112702E-05 Eh
 * total energy  :   -80.6114680 Eh     change       -0.3099855E-05 Eh
 * total energy  :   -80.6115072 Eh     change       -0.6686859E-06 Eh
 * total energy  :   -80.6115079 Eh     change       -0.7032741E-06 Eh
 * total energy  :   -80.6115087 Eh     change       -0.7969299E-06 Eh
 * total energy  :   -80.6115096 Eh     change       -0.9590629E-06 Eh
 * total energy  :   -80.6115107 Eh     change       -0.1123119E-05 Eh
 * total energy  :   -80.6115120 Eh     change       -0.1210817E-05 Eh
 * total energy  :   -80.6115132 Eh     change       -0.1195812E-05 Eh
 * total energy  :   -80.6115142 Eh     change       -0.1012257E-05 Eh
 * total energy  :   -80.6115142 Eh     change       -0.5091394E-08 Eh
   *** GEOMETRY OPTIMIZATION CONVERGED AFTER 44 ITERATIONS ***

 final structure:
================
51
 xtb: 6.7.1 (edcfbbe)
C            5.90609428476953        0.00008015649759        0.01467052982171
C            5.20897207793673        0.00002552026966       -1.18250857123701
C            3.82475931172895        0.00000008079762       -1.18011412231151
C            3.13709588700366        0.00003439617580        0.02706140597250
N            1.70962716819842        0.00001429370500        0.03276204530374
C            1.03821046144870        1.20960261921954        0.03366805093081
C            1.75038178439887        2.41287843926481        0.01208467637163
C            1.09313302605526        3.62605116783704        0.00480344030090
C           -0.29085203297116        3.67140320026069        0.01530062079302
C           -1.00296471998650        2.48600147526917        0.03596342025264
C           -0.35871737670495        1.25793230724831        0.04571172146205
C           -1.19445446381304       -0.00003161984541        0.08680958615514
C           -2.23977334309322        0.00000678059129       -1.01359058504695
C           -2.03928519403286        0.00010303455778       -2.37745612076183
C           -3.14973508504250        0.00015202569782       -3.21135650020334
C           -4.43674892518634        0.00009702967912       -2.69066600854758
C           -4.64860876977912       -0.00000376042090       -1.32181587408765
C           -3.54141376142622       -0.00004242463729       -0.48733495357625
C           -3.43944227449907       -0.00011046795040        0.95864314140620
N           -4.40414933309976       -0.00015766276826        1.86563403015303
C           -3.98974058446022       -0.00018746450455        3.13063584293025
C           -2.64730582344007       -0.00017071663219        3.47892357869833
N           -1.67103745408594       -0.00012917675998        2.56844523010422
C           -2.07379918546665       -0.00009889875204        1.31688563100324
C           -0.35868021419168       -1.25796713421385        0.04560264211375
C           -1.00288853781888       -2.48605610429361        0.03575255427816
C           -0.29073867635106       -3.67143437834716        0.01501839415048
C            1.09324531709418       -3.62603908754732        0.00456217582560
C            1.75045541925383       -2.41284597737599        0.01193181176485
C            1.03824613887139       -1.20959380501944        0.03357536506022
C            3.83477717171515        0.00008973540014        1.22810738365173
C            5.21911763753868        0.00011150299966        1.21779314156158
H            6.98587756673353        0.00008199527423        0.00997812113263
H            5.74297883593593       -0.00002076562534       -2.12106946754470
H            3.27090793162736       -0.00005082066483       -2.10746847901245
H            2.82903522724585        2.39049933089138        0.00344329874816
H            1.66667270935336        4.54096830492566       -0.00928605962000
H           -0.81153350747748        4.61669385022112        0.00942682669503
H           -2.08449532084232        2.50894742265726        0.04439793619638
H           -1.04008544344100        0.00015607818890       -2.78712599496433
H           -3.00908564324621        0.00023204168411       -4.28207388362611
H           -5.28253591624447        0.00012479321748       -3.36206231743082
H           -5.64346506395559       -0.00004998599971       -0.90366619923449
H           -4.76885473872816       -0.00022854054154        3.88063920307736
H           -2.32788092879205       -0.00019664552362        4.51169424965153
H           -2.08441845286255       -2.50903764245108        0.04418565601437
H           -0.81139015026417       -4.61674131781980        0.00907001053429
H            1.66681415256007       -4.54093703074172       -0.00959189857602
H            2.82910831802737       -2.39043278246999        0.00330952984592
H            3.28715339019097        0.00012421404835        2.15912823985374
H            5.76141610361514        0.00015541432681        2.15156854396361

          :  Hamiltonian                  GFN2-xTB          :
         :: gradient norm              0.000057890754 Eh/a0 ::
         :: HOMO-LUMO gap              1.719154800208 eV    ::
         :: SCC energy               -82.083850767359 Eh    ::
         :: -> dispersion             -0.075090163263 Eh    ::
         :: -> Gsolv                  -0.034515921427 Eh    ::
         :: repulsion energy           1.472336595960 Eh    ::

    * Orbital Energies and Occupations

         #    Occupation            Energy/Eh            Energy/eV
      -------------------------------------------------------------
         1        2.0000           -0.6863093             -18.6754
       ...           ...                  ...                  ...
        63        2.0000           -0.4313087             -11.7365
        64        2.0000           -0.4283760             -11.6567
        65        2.0000           -0.4274179             -11.6306
        66        2.0000           -0.4179818             -11.3739
        67        2.0000           -0.4162123             -11.3257
        68        2.0000           -0.4144891             -11.2788
        69        2.0000           -0.4104398             -11.1686
        70        2.0000           -0.4097727             -11.1505
        71        2.0000           -0.4060848             -11.0501
        72        2.0000           -0.3998480             -10.8804
        73        2.0000           -0.3975214             -10.8171
        74        2.0000           -0.3646381              -9.9223
        75        2.0000           -0.3504770              -9.5370 (HOMO)
        76                         -0.2872993              -7.8178 (LUMO)
        77                         -0.2638430              -7.1795
        78                         -0.2369368              -6.4474
        79                         -0.2359064              -6.4193
        80                         -0.2343084              -6.3759
        81                         -0.2283131              -6.2127
        82                         -0.2274552              -6.1894
        83                         -0.2243508              -6.1049
        84                         -0.2119950              -5.7687
        85                         -0.1956882              -5.3249
        86                         -0.1387487              -3.7755
       ...                                ...                  ...
       147                          0.6988032              19.0154
      -------------------------------------------------------------
                  HL-Gap            0.0631778 Eh            1.7192 eV

     #   Z          covCN         q      C6AA      α(0)
     1   6 C        2.919    -0.029    28.726     8.789
     2   6 C        2.920    -0.027    28.675     8.781
     3   6 C        2.921    -0.037    28.930     8.820
     4   6 C        2.927     0.066    26.524     8.446
     5   7 N        2.753    -0.068    22.553     7.053
     6   6 C        2.925     0.063    26.588     8.456
     7   6 C        2.924    -0.057    29.422     8.895
     8   6 C        2.919    -0.032    28.799     8.800
     9   6 C        2.917    -0.044    29.093     8.845
    10   6 C        2.925    -0.037    28.921     8.819
    11   6 C        2.983    -0.010    28.250     8.719
    12   6 C        3.947     0.011    20.319     6.405
    13   6 C        3.064    -0.002    28.005     8.678
    14   6 C        2.914    -0.030    28.758     8.794
    15   6 C        2.922    -0.026    28.640     8.776
    16   6 C        2.921    -0.029    28.737     8.791
    17   6 C        2.913    -0.027    28.669     8.780
    18   6 C        3.031    -0.012    28.274     8.722
    19   6 C        3.042     0.084    26.101     8.379
    20   7 N        1.836    -0.244    27.219     7.731
    21   6 C        2.923     0.048    26.930     8.510
    22   6 C        2.927     0.047    26.948     8.513
    23   7 N        1.836    -0.246    27.263     7.738
    24   6 C        3.065     0.097    25.796     8.328
    25   6 C        2.983    -0.010    28.250     8.719
    26   6 C        2.925    -0.037    28.921     8.819
    27   6 C        2.917    -0.044    29.093     8.845
    28   6 C        2.919    -0.032    28.799     8.800
    29   6 C        2.924    -0.057    29.422     8.895
    30   6 C        2.925     0.063    26.588     8.456
    31   6 C        2.921    -0.037    28.917     8.818
    32   6 C        2.920    -0.027    28.667     8.780
    33   1 H        0.926     0.045     2.389     2.417
    34   1 H        0.926     0.045     2.381     2.413
    35   1 H        0.926     0.043     2.411     2.428
    36   1 H        0.926     0.036     2.502     2.473
    37   1 H        0.926     0.037     2.487     2.466
    38   1 H        0.926     0.031     2.569     2.506
    39   1 H        0.925     0.015     2.807     2.620
    40   1 H        0.926     0.038     2.475     2.460
    41   1 H        0.926     0.047     2.358     2.401
    42   1 H        0.926     0.046     2.367     2.406
    43   1 H        0.926     0.049     2.338     2.391
    44   1 H        0.925     0.041     2.432     2.439
    45   1 H        0.926     0.041     2.436     2.441
    46   1 H        0.925     0.015     2.807     2.620
    47   1 H        0.926     0.031     2.569     2.506
    48   1 H        0.926     0.037     2.487     2.466
    49   1 H        0.926     0.036     2.502     2.473
    50   1 H        0.926     0.043     2.405     2.425
    51   1 H        0.926     0.045     2.386     2.416

molecular dipole:
                 x           y           z       tot (Debye)
 q only:        1.453       0.000      -0.851
   full:        1.287       0.000      -0.702       3.725

 projected vibrational frequencies (cm⁻¹)
eigval :       -0.00    -0.00     0.00     0.00     0.00     0.00
eigval :        8.00    12.67    39.74    43.81    44.49    66.37
eigval :       69.49    82.40   109.24   132.81   146.99   169.36
eigval :      198.27   225.90   243.23   248.05   251.48   263.49
eigval :      299.50   370.77   379.21   383.80   386.51   399.23
eigval :      408.47   420.99   423.03   440.32   450.08   462.84
eigval :      496.87   501.71   506.71   511.02   542.48   591.52
eigval :      591.98   596.19   601.30   607.31   615.31   634.92
eigval :      671.13   674.31   676.05   690.09   704.88   724.93
eigval :      759.20   765.48   770.82   779.41   780.44   782.14
eigval :      830.35   866.54   866.74   877.71   883.26   895.25
eigval :      897.84   901.58   906.50   910.25   911.28   913.37
eigval :      915.53   920.95   921.20   927.77   930.85   931.34
eigval :      935.05   948.00   995.20  1023.68  1068.51  1077.69
eigval :     1098.38  1105.93  1106.32  1107.01  1113.30  1125.36
eigval :     1140.05  1159.39  1170.27  1177.63  1181.66  1182.14
eigval :     1183.52  1189.76  1196.61  1211.13  1231.91  1238.53
eigval :     1245.54  1254.37  1265.57  1272.61  1272.78  1288.26
eigval :     1307.00  1317.20  1319.82  1325.10  1334.50  1339.72
eigval :     1367.49  1415.57  1430.38  1436.15  1436.35  1442.46
eigval :     1459.79  1468.30  1479.11  1494.54  1532.55  1570.68
eigval :     1577.78  1582.19  1585.27  1587.48  1589.35  1591.72
eigval :     1598.37  1602.17  3058.93  3064.41  3064.68  3068.84
eigval :     3077.61  3078.48  3078.81  3078.84  3079.33  3084.02
eigval :     3085.75  3090.03  3092.12  3092.67  3092.90  3097.45
eigval :     3099.32  3102.21  3102.98

   temp. (K)  partition function   enthalpy   heat capacity  entropy
                                   cal/mol     cal/K/mol   cal/K/mol   J/K/mol
 298.15  VIB  0.164E+11            13385.155     88.417     82.546
         ROT  0.161E+08              888.752      2.981     35.952
         INT  0.263E+18            14273.907     91.398    118.498
         TR   0.802E+28             1481.254      4.968     43.900
         TOT                       15755.1610    96.3658   162.3982   679.4743

       T/K    H(0)-H(T)+PV         H(T)/Eh          T*S/Eh         G(T)/Eh
   ------------------------------------------------------------------------
    298.15    0.251074E-01    0.413106E+00    0.771606E-01    0.335945E+00
   ------------------------------------------------------------------------

         :::::::::::::::::::::::::::::::::::::::::::::::::::::
         ::                  THERMODYNAMIC                  ::
         :::::::::::::::::::::::::::::::::::::::::::::::::::::
         :: total free energy         -80.275568967952 Eh   ::
         ::.................................................::
         :: total energy              -80.611514171045 Eh   ::
         :: zero point energy           0.387998402576 Eh   ::
         :: G(RRHO) w/o ZPVE           -0.052053199482 Eh   ::
         :: G(RRHO) contrib.            0.335945203094 Eh   ::
         :::::::::::::::::::::::::::::::::::::::::::::::::::::

           -------------------------------------------------
          | TOTAL ENERGY              -80.611514171045 Eh   |
          | TOTAL ENTHALPY            -80.198408321237 Eh   |
          | TOTAL FREE ENERGY         -80.275568967952 Eh   |
          | GRADIENT NORM               0.000057892735 Eh/α |
          | HOMO-LUMO GAP               1.719155276065 eV   |
           -------------------------------------------------

 * finished run on 2025/09/04 at 12:47:57.986
