   * xtb version 6.7.1 (edcfbbe) compiled by 'albert@albert-system' on 2024-07-22

   ID    Z sym.   atoms
    1    6 C      1-4, 6-19, 21, 22, 24-32
    2    7 N      5, 20, 23
    3    1 H      33-51

          program call               : xtb data2507/toluene/SAIP/SAIP_toluene_S0_finalOpt.xtbopt.xyz --gfn 2 --uhf 2 --gbsa toluene --ohess vtight --parallel 40 --molden --ceasefiles --namespace data2507/toluene/SAIP/SAIP_toluene_T1_preOpt
      * Solvation model:               GBSA
        Solvent                        toluene
        Solvent mass                       9.2140E+01 g/mol
          :  Hamiltonian                  GFN2-xTB          :
 * total energy  :   -80.5343843 Eh     change       -0.1733436E-07 Eh
 * total energy  :   -80.5376542 Eh     change       -0.3269953E-02 Eh
 * total energy  :   -80.5384459 Eh     change       -0.7916644E-03 Eh
 * total energy  :   -80.5386330 Eh     change       -0.1871169E-03 Eh
 * total energy  :   -80.5387272 Eh     change       -0.9417469E-04 Eh
 * total energy  :   -80.5387504 Eh     change       -0.2322474E-04 Eh
 * total energy  :   -80.5387667 Eh     change       -0.1632429E-04 Eh
 * total energy  :   -80.5387851 Eh     change       -0.1842317E-04 Eh
 * total energy  :   -80.5387951 Eh     change       -0.9914603E-05 Eh
 * total energy  :   -80.5388089 Eh     change       -0.1383362E-04 Eh
 * total energy  :   -80.5388333 Eh     change       -0.1543910E-05 Eh
 * total energy  :   -80.5388352 Eh     change       -0.1897793E-05 Eh
 * total energy  :   -80.5388381 Eh     change       -0.2897609E-05 Eh
 * total energy  :   -80.5388414 Eh     change       -0.3235116E-05 Eh
 * total energy  :   -80.5388429 Eh     change       -0.1562953E-05 Eh
 * total energy  :   -80.5388433 Eh     change       -0.4210566E-06 Eh
 * total energy  :   -80.5388437 Eh     change       -0.3203638E-06 Eh
 * total energy  :   -80.5388440 Eh     change       -0.3800262E-06 Eh
 * total energy  :   -80.5388441 Eh     change       -0.2038443E-07 Eh
   *** GEOMETRY OPTIMIZATION CONVERGED AFTER 22 ITERATIONS ***

 final structure:
================
51
 xtb: 6.7.1 (edcfbbe)
C            6.01506616168922       -0.01083462897456        0.19859639950495
C            5.20910408713351        0.02854641765202        1.32468999751000
C            3.83063470221217        0.02789747188266        1.19399691882128
C            3.26262504185413       -0.01206601005853       -0.07208516324632
N            1.84018826989193       -0.01300659877868       -0.20249961972046
C            1.18298894099745        1.18947186889271       -0.35930902524711
C            1.90645627547714        2.38376033908167       -0.47334938232439
C            1.25640644779684        3.58213328876275       -0.66868707192147
C           -0.12907747164657        3.62233113299964       -0.75826520222055
C           -0.85279456252872        2.45296931164638       -0.63187483048144
C           -0.21761173843694        1.23368397483726       -0.43183834528124
C           -1.03217153892963       -0.00444650645606       -0.20716533636986
C           -2.31152390014021       -0.03735838464423       -1.01313745753920
C           -2.45817994245588       -0.10339667805047       -2.37467726132176
C           -3.74727970131087       -0.12262612623090       -2.90877403124616
C           -4.85769955130571       -0.07451544699049       -2.07266932333432
C           -4.72527646574932       -0.00726187267576       -0.70002394375329
C           -3.43605601906261        0.01142349161550       -0.15508968103963
C           -2.98787795632205        0.07294993028037        1.18948628992773
N           -3.66281345076803        0.13412622926256        2.36643126506555
C           -2.95009786893719        0.18136197156748        3.48318165479342
C           -1.57719842188592        0.17065769612406        3.49754029409044
N           -0.88406272700975        0.11002110035874        2.31811422688272
C           -1.57821747802830        0.06467069422507        1.22659472032272
C           -0.22541271574960       -1.26290571456335       -0.31432248449768
C           -0.86847941934543       -2.49166896487483       -0.39536496316510
C           -0.15220135608234       -3.67216973423824       -0.41401185567846
C            1.23389721206416       -3.63219015375870       -0.33438279970902
C            1.89157886001483       -2.42472371436514       -0.25428707246449
C            1.17539886943267       -1.22071136541949       -0.24784059895101
C            4.06753891294536       -0.05132531494271       -1.20384121209326
C            5.44450368934963       -0.05060590933675       -1.06351077497654
H            7.08932716263683       -0.01022571653042        0.30441174098849
H            5.65252172280507        0.05974920773472        2.30839844523294
H            3.18885268981667        0.05788114623866        2.06203294692892
H            2.98261139925811        2.36228098448426       -0.40451657411247
H            1.83080407857022        4.49228360576006       -0.75180615384567
H           -0.63982064856078        4.55967628871887       -0.91542511113001
H           -1.93163538162733        2.47396179065565       -0.68498008330386
H           -1.59431788498946       -0.14012473819730       -3.02338003550455
H           -3.88207224970394       -0.17466150760369       -3.97849496906676
H           -5.84702583899267       -0.09021527985521       -2.50845628370681
H           -5.58692655401982        0.02990430662832       -0.05081415221145
H           -3.50856596582956        0.22918888127067        4.40745270763567
H           -0.99826003724724        0.20819372633622        4.40401196022301
H           -1.94758086902826       -2.51095383171042       -0.44224687363499
H           -0.66912354364413       -4.61694187072534       -0.48007130196402
H            1.80277162643224       -4.54957761772546       -0.33561965041606
H            2.96814196099475       -2.40340511531213       -0.19227609091658
H            3.61041363439308       -0.08226509127579       -2.18182112385475
H            6.07123129925318       -0.08125630610539       -1.94194871941573

          :  Hamiltonian                  GFN2-xTB          :
         :: gradient norm              0.000083093162 Eh/a0 ::
         :: HOMO-LUMO gap              0.597977227503 eV    ::
         :: SCC energy               -82.008654875559 Eh    ::
         :: -> dispersion             -0.075148710443 Eh    ::
         :: -> Gsolv                  -0.036829351433 Eh    ::
         :: repulsion energy           1.469810816696 Eh    ::

    * Orbital Energies and Occupations

         #    Occupation            Energy/Eh            Energy/eV
      -------------------------------------------------------------
         1        2.0000           -0.6863428             -18.6763
       ...           ...                  ...                  ...
        64        2.0000           -0.4253889             -11.5754
        65        2.0000           -0.4221774             -11.4880
        66        2.0000           -0.4219743             -11.4825
        67        2.0000           -0.4189061             -11.3990
        68        2.0000           -0.4168347             -11.3426
        69        2.0000           -0.4159934             -11.3198
        70        2.0000           -0.4143485             -11.2750
        71        2.0000           -0.4071924             -11.0803
        72        2.0000           -0.3968746             -10.7995
        73        2.0000           -0.3816890             -10.3863
        74        1.9997           -0.3679643             -10.0128
        75        1.0003           -0.3526500              -9.5961
        76        1.0000           -0.2747554              -7.4765 (HOMO)
        77        0.0000           -0.2527804              -6.8785 (LUMO)
        78                         -0.2422625              -6.5923
        79                         -0.2399352              -6.5290
        80                         -0.2386203              -6.4932
        81                         -0.2346202              -6.3843
        82                         -0.2312964              -6.2939
        83                         -0.2165524              -5.8927
        84                         -0.2068036              -5.6274
        85                         -0.1948113              -5.3011
        86                         -0.1249168              -3.3992
        87                         -0.1112085              -3.0261
       ...                                ...                  ...
       147                          0.7205129              19.6062
      -------------------------------------------------------------
                  HL-Gap            0.0219750 Eh            0.5980 eV

     #   Z          covCN         q      C6AA      α(0)
     1   6 C        2.919    -0.027    28.668     8.780
     2   6 C        2.920    -0.024    28.612     8.772
     3   6 C        2.921    -0.035    28.863     8.810
     4   6 C        2.930     0.062    26.619     8.461
     5   7 N        2.754    -0.034    21.895     6.950
     6   6 C        2.928     0.064    26.576     8.454
     7   6 C        2.922    -0.052    29.290     8.875
     8   6 C        2.918    -0.028    28.691     8.784
     9   6 C        2.917    -0.035    28.867     8.811
    10   6 C        2.923    -0.034    28.851     8.808
    11   6 C        2.986    -0.000    28.031     8.685
    12   6 C        3.950     0.019    20.196     6.386
    13   6 C        3.053    -0.020    28.450     8.748
    14   6 C        2.911    -0.037    28.913     8.817
    15   6 C        2.921    -0.049    29.212     8.863
    16   6 C        2.918    -0.034    28.859     8.809
    17   6 C        2.911    -0.044    29.093     8.845
    18   6 C        3.033    -0.019    28.459     8.750
    19   6 C        3.002     0.055    26.760     8.486
    20   7 N        1.839    -0.252    27.409     7.759
    21   6 C        2.882     0.049    26.893     8.502
    22   6 C        2.898     0.007    27.864     8.655
    23   7 N        1.837    -0.249    27.334     7.748
    24   6 C        3.038     0.107    25.613     8.301
    25   6 C        2.986    -0.000    28.029     8.684
    26   6 C        2.923    -0.034    28.850     8.808
    27   6 C        2.917    -0.035    28.867     8.810
    28   6 C        2.919    -0.028    28.691     8.784
    29   6 C        2.922    -0.052    29.289     8.875
    30   6 C        2.928     0.064    26.576     8.454
    31   6 C        2.920    -0.036    28.891     8.814
    32   6 C        2.920    -0.025    28.627     8.774
    33   1 H        0.926     0.049     2.327     2.386
    34   1 H        0.926     0.050     2.323     2.384
    35   1 H        0.926     0.047     2.359     2.402
    36   1 H        0.926     0.046     2.364     2.405
    37   1 H        0.926     0.048     2.348     2.396
    38   1 H        0.926     0.043     2.414     2.430
    39   1 H        0.926     0.033     2.540     2.492
    40   1 H        0.926     0.022     2.708     2.574
    41   1 H        0.926     0.025     2.656     2.549
    42   1 H        0.926     0.026     2.637     2.539
    43   1 H        0.926     0.025     2.666     2.553
    44   1 H        0.926     0.041     2.430     2.438
    45   1 H        0.926     0.034     2.534     2.490
    46   1 H        0.926     0.033     2.542     2.493
    47   1 H        0.926     0.043     2.414     2.430
    48   1 H        0.926     0.048     2.348     2.396
    49   1 H        0.926     0.046     2.365     2.405
    50   1 H        0.926     0.048     2.350     2.397
    51   1 H        0.926     0.051     2.313     2.378

molecular dipole:
                 x           y           z       tot (Debye)
 q only:        3.229      -0.047      -0.735
   full:        3.065      -0.038      -0.562       7.920

 projected vibrational frequencies (cm⁻¹)
eigval :       -0.00    -0.00     0.00     0.00     0.00     0.00
eigval :       15.27    24.29    42.02    49.91    59.27    69.67
eigval :       71.18    89.03   118.62   141.11   147.74   175.95
eigval :      199.61   209.28   242.48   244.91   255.48   268.12
eigval :      274.56   370.37   370.58   377.93   391.51   401.52
eigval :      406.37   413.69   435.32   448.54   455.58   470.39
eigval :      485.29   493.64   502.35   506.79   519.14   571.48
eigval :      584.85   591.37   591.75   593.00   617.33   628.67
eigval :      637.93   669.44   671.98   682.86   693.53   694.50
eigval :      697.89   722.21   754.22   756.97   766.17   771.24
eigval :      776.01   835.80   849.37   867.19   869.49   876.86
eigval :      878.95   890.74   896.01   905.85   905.90   910.58
eigval :      912.99   914.79   916.68   921.73   923.42   929.82
eigval :      933.70   942.50   979.25   994.15  1053.21  1064.53
eigval :     1076.21  1090.25  1100.72  1101.49  1111.78  1115.51
eigval :     1126.68  1139.28  1144.11  1166.81  1175.68  1179.39
eigval :     1180.13  1182.09  1182.58  1183.85  1204.72  1229.72
eigval :     1233.00  1245.72  1256.91  1262.91  1269.89  1273.86
eigval :     1304.54  1306.76  1312.94  1318.08  1328.24  1337.41
eigval :     1338.84  1361.14  1401.15  1428.39  1428.81  1431.99
eigval :     1447.89  1450.11  1456.16  1464.49  1483.56  1491.29
eigval :     1552.49  1563.66  1567.54  1578.13  1581.68  1587.29
eigval :     1589.44  1591.84  3056.97  3064.87  3066.71  3083.30
eigval :     3084.02  3084.23  3084.42  3085.15  3086.91  3087.88
eigval :     3090.20  3091.08  3094.55  3099.51  3099.77  3101.89
eigval :     3105.58  3107.20  3107.95

   temp. (K)  partition function   enthalpy   heat capacity  entropy
                                   cal/mol     cal/K/mol   cal/K/mol   J/K/mol
 298.15  VIB  0.283E+10            13474.435     90.478     81.694
         ROT  0.158E+08              888.752      2.981     35.919
         INT  0.446E+17            14363.187     93.459    117.613
         TR   0.802E+28             1481.254      4.968     43.900
         TOT                       15844.4409    98.4270   161.5133   675.7715

       T/K    H(0)-H(T)+PV         H(T)/Eh          T*S/Eh         G(T)/Eh
   ------------------------------------------------------------------------
    298.15    0.252497E-01    0.410291E+00    0.767402E-01    0.333551E+00
   ------------------------------------------------------------------------

         :::::::::::::::::::::::::::::::::::::::::::::::::::::
         ::                  THERMODYNAMIC                  ::
         :::::::::::::::::::::::::::::::::::::::::::::::::::::
         :: total free energy         -80.205292809623 Eh   ::
         ::.................................................::
         :: total energy              -80.538844056653 Eh   ::
         :: zero point energy           0.385041685498 Eh   ::
         :: G(RRHO) w/o ZPVE           -0.051490438469 Eh   ::
         :: G(RRHO) contrib.            0.333551247030 Eh   ::
         :::::::::::::::::::::::::::::::::::::::::::::::::::::

           -------------------------------------------------
          | TOTAL ENERGY              -80.538844056653 Eh   |
          | TOTAL ENTHALPY            -80.128552647409 Eh   |
          | TOTAL FREE ENERGY         -80.205292809623 Eh   |
          | GRADIENT NORM               0.000082380879 Eh/α |
          | HOMO-LUMO GAP               0.597970798628 eV   |
           -------------------------------------------------

 * finished run on 2025/09/04 at 12:49:50.105
