   * xtb version 6.7.1 (edcfbbe) compiled by 'albert@albert-system' on 2024-07-22

   ID    Z sym.   atoms
    1    6 C      1-4, 6-19, 21, 22, 24-32
    2    7 N      5, 20, 23
    3    1 H      33-51

          program call               : xtb data2507/toluene/SAIP/SAIP_toluene_T1_crest.xyz --gfn 2 --uhf 2 --gbsa toluene --ohess vtight --parallel 40 --molden --ceasefiles --namespace data2507/toluene/SAIP/SAIP_toluene_T1_finalOpt
      * Solvation model:               GBSA
        Solvent                        toluene
        Solvent mass                       9.2140E+01 g/mol
          :  Hamiltonian                  GFN2-xTB          :
 * total energy  :   -80.5385068 Eh     change       -0.1161297E-08 Eh
 * total energy  :   -80.5385762 Eh     change       -0.6932153E-04 Eh
 * total energy  :   -80.5386131 Eh     change       -0.3696089E-04 Eh
 * total energy  :   -80.5386191 Eh     change       -0.6008919E-05 Eh
 * total energy  :   -80.5386241 Eh     change       -0.4962100E-05 Eh
 * total energy  :   -80.5386267 Eh     change       -0.2566445E-05 Eh
 * total energy  :   -80.5386313 Eh     change       -0.4632970E-05 Eh
 * total energy  :   -80.5386357 Eh     change       -0.4432682E-05 Eh
 * total energy  :   -80.5386407 Eh     change       -0.5001520E-05 Eh
 * total energy  :   -80.5386469 Eh     change       -0.6225135E-05 Eh
 * total energy  :   -80.5387859 Eh     change       -0.2009181E-05 Eh
 * total energy  :   -80.5387872 Eh     change       -0.1297207E-05 Eh
 * total energy  :   -80.5387881 Eh     change       -0.9393750E-06 Eh
 * total energy  :   -80.5387889 Eh     change       -0.8162990E-06 Eh
 * total energy  :   -80.5387898 Eh     change       -0.8220395E-06 Eh
 * total energy  :   -80.5387906 Eh     change       -0.8086742E-06 Eh
 * total energy  :   -80.5387913 Eh     change       -0.7404122E-06 Eh
 * total energy  :   -80.5387920 Eh     change       -0.6473687E-06 Eh
 * total energy  :   -80.5387920 Eh     change       -0.5879301E-08 Eh
   *** GEOMETRY OPTIMIZATION CONVERGED AFTER 44 ITERATIONS ***

 final structure:
================
51
 xtb: 6.7.1 (edcfbbe)
C            5.97414071021732        0.00084540626494        0.16978504632814
C            5.14731153747985        0.06376777565947        1.27946229863061
C            3.77160402046329        0.05783584838454        1.12310905809986
C            3.22668109619843       -0.01106919571872       -0.15177672809977
N            1.80653087443604       -0.01506043062263       -0.30327749885304
C            1.14692102192302        1.18840966755939       -0.44212625934335
C            1.86757642478066        2.38180825425623       -0.57714018989453
C            1.21209416481216        3.57985755624380       -0.75711594245313
C           -0.17516836708099        3.61978555055770       -0.80989835506401
C           -0.89616176296008        2.45100776824115       -0.66150111672044
C           -0.25529566575286        1.23239677219943       -0.47867934601826
C           -1.05375974826117       -0.00919951891902       -0.21655519498883
C           -2.40542236054744       -0.01983641759718       -0.89281751757880
C           -2.68863941909371       -0.05703843378582       -2.23405165816834
C           -4.02475190510788       -0.05612543954480       -2.63708950878778
C           -5.04613478443995       -0.01689448446988       -1.69375623642725
C           -4.77657142163419        0.02015609177563       -0.34024817850286
C           -3.43933932326798        0.01820951310865        0.07320288715461
C           -2.86085479897825        0.04853843428563        1.36794579522604
N           -3.41616662110584        0.09263165334828        2.60670789139124
C           -2.59653660976733        0.11400525078872        3.64844424409478
C           -1.22916635440259        0.09221398967247        3.52731659494956
N           -0.65597993340710        0.04864236311437        2.28430793406264
C           -1.45507439323535        0.02932538032193        1.26623168132116
C           -0.25873540966084       -1.26267276774800       -0.42288038506548
C           -0.90353996992766       -2.48625419225964       -0.55031657670012
C           -0.18660826655965       -3.66367069139144       -0.63761493388290
C            1.20038023252400       -3.62665367027455       -0.57665502003044
C            1.86001740007022       -2.42357588902734       -0.45395727863295
C            1.14376601874727       -1.22202100529119       -0.38442423398791
C            4.05269295028040       -0.07341920378750       -1.26727074344754
C            5.42686800195431       -0.06733518534384       -1.10141922970508
H            7.04622488935235        0.00565398523982        0.29555248532925
H            5.57197244829826        0.11750370213619        2.27045637620483
H            3.11433567964810        0.10624660925009        1.97837845307637
H            2.94526121780583        2.35973021830483       -0.53854582293322
H            1.78387915186332        4.48986660744473       -0.85805458681785
H           -0.68982298838211        4.55703828154942       -0.95441663275480
H           -1.97601520180331        2.47281605455139       -0.68256437214846
H           -1.89475555008972       -0.08673931780492       -2.96695151204770
H           -4.26568599552070       -0.08505225766753       -3.68896885173281
H           -6.07416898518337       -0.01612781676610       -2.02862424038703
H           -5.56825585342343        0.04996567429316        0.39302860378033
H           -3.06082647700885        0.14971259732317        4.62393008350154
H           -0.56330585902463        0.10845855149820        4.37271473758117
H           -1.98332155976826       -2.50493632657943       -0.57655364821126
H           -0.70425043268058       -4.60491687790168       -0.73914745453061
H            1.76888264070798       -4.54294229556470       -0.62667040531164
H            2.93743912114464       -2.40460048231988       -0.40743921393575
H            3.61421900747577       -0.12609869746468       -2.25284759889195
H            6.06994281278951       -0.11598761452269       -1.96713252626847

          :  Hamiltonian                  GFN2-xTB          :
         :: gradient norm              0.000063249923 Eh/a0 ::
         :: HOMO-LUMO gap              0.584490181642 eV    ::
         :: SCC energy               -82.008589547793 Eh    ::
         :: -> dispersion             -0.075270128971 Eh    ::
         :: -> Gsolv                  -0.036635682442 Eh    ::
         :: repulsion energy           1.469797578522 Eh    ::

    * Orbital Energies and Occupations

         #    Occupation            Energy/Eh            Energy/eV
      -------------------------------------------------------------
         1        2.0000           -0.6861784             -18.6719
       ...           ...                  ...                  ...
        64        2.0000           -0.4248699             -11.5613
        65        2.0000           -0.4220006             -11.4832
        66        2.0000           -0.4218965             -11.4804
        67        2.0000           -0.4187998             -11.3961
        68        2.0000           -0.4166924             -11.3388
        69        2.0000           -0.4156338             -11.3100
        70        2.0000           -0.4139837             -11.2651
        71        2.0000           -0.4077084             -11.0943
        72        2.0000           -0.3968833             -10.7997
        73        2.0000           -0.3817030             -10.3867
        74        1.9997           -0.3681418             -10.0176
        75        1.0003           -0.3525610              -9.5937
        76        1.0000           -0.2747284              -7.4757 (HOMO)
        77        0.0000           -0.2532490              -6.8913 (LUMO)
        78                         -0.2421647              -6.5896
        79                         -0.2397320              -6.5234
        80                         -0.2384636              -6.4889
        81                         -0.2344130              -6.3787
        82                         -0.2306114              -6.2753
        83                         -0.2167241              -5.8974
        84                         -0.2072206              -5.6388
        85                         -0.1947816              -5.3003
        86                         -0.1249802              -3.4009
        87                         -0.1110543              -3.0219
       ...                                ...                  ...
       147                          0.7206881              19.6109
      -------------------------------------------------------------
                  HL-Gap            0.0214794 Eh            0.5845 eV

     #   Z          covCN         q      C6AA      α(0)
     1   6 C        2.919    -0.027    28.669     8.780
     2   6 C        2.920    -0.024    28.611     8.772
     3   6 C        2.921    -0.034    28.858     8.809
     4   6 C        2.929     0.062    26.617     8.461
     5   7 N        2.754    -0.033    21.886     6.948
     6   6 C        2.928     0.064    26.572     8.454
     7   6 C        2.921    -0.052    29.288     8.875
     8   6 C        2.918    -0.028    28.694     8.784
     9   6 C        2.917    -0.035    28.867     8.811
    10   6 C        2.922    -0.035    28.862     8.810
    11   6 C        2.987    -0.000    28.030     8.685
    12   6 C        3.951     0.019    20.194     6.385
    13   6 C        3.052    -0.020    28.457     8.749
    14   6 C        2.911    -0.037    28.912     8.817
    15   6 C        2.921    -0.049    29.215     8.864
    16   6 C        2.918    -0.035    28.859     8.809
    17   6 C        2.911    -0.044    29.093     8.844
    18   6 C        3.034    -0.020    28.461     8.751
    19   6 C        3.002     0.054    26.765     8.486
    20   7 N        1.839    -0.252    27.417     7.760
    21   6 C        2.882     0.049    26.895     8.502
    22   6 C        2.898     0.007    27.867     8.655
    23   7 N        1.837    -0.250    27.363     7.752
    24   6 C        3.040     0.107    25.605     8.300
    25   6 C        2.986    -0.001    28.033     8.685
    26   6 C        2.922    -0.035    28.861     8.810
    27   6 C        2.917    -0.035    28.868     8.811
    28   6 C        2.918    -0.028    28.693     8.784
    29   6 C        2.921    -0.052    29.290     8.875
    30   6 C        2.928     0.064    26.570     8.453
    31   6 C        2.920    -0.036    28.896     8.815
    32   6 C        2.920    -0.025    28.632     8.775
    33   1 H        0.926     0.049     2.328     2.386
    34   1 H        0.926     0.049     2.326     2.385
    35   1 H        0.926     0.047     2.358     2.402
    36   1 H        0.926     0.046     2.367     2.406
    37   1 H        0.926     0.048     2.348     2.396
    38   1 H        0.926     0.043     2.411     2.428
    39   1 H        0.926     0.034     2.524     2.485
    40   1 H        0.926     0.022     2.702     2.570
    41   1 H        0.926     0.025     2.657     2.549
    42   1 H        0.926     0.026     2.639     2.540
    43   1 H        0.926     0.024     2.667     2.554
    44   1 H        0.926     0.041     2.434     2.440
    45   1 H        0.926     0.033     2.539     2.492
    46   1 H        0.926     0.034     2.524     2.484
    47   1 H        0.926     0.043     2.411     2.428
    48   1 H        0.926     0.048     2.349     2.397
    49   1 H        0.926     0.046     2.365     2.405
    50   1 H        0.926     0.048     2.344     2.394
    51   1 H        0.926     0.051     2.312     2.378

molecular dipole:
                 x           y           z       tot (Debye)
 q only:        3.145      -0.031      -0.893
   full:        2.998      -0.025      -0.710       7.830

 projected vibrational frequencies (cm⁻¹)
eigval :       -0.00    -0.00    -0.00     0.00     0.00     0.00
eigval :       13.54    30.03    38.55    49.42    52.45    66.29
eigval :       71.18    87.27   109.99   139.15   147.76   171.01
eigval :      199.55   206.39   242.71   244.05   256.87   270.10
eigval :      272.08   368.51   371.69   376.24   388.74   401.09
eigval :      406.70   413.44   431.89   447.63   454.64   469.63
eigval :      484.52   493.28   502.06   504.02   518.08   570.97
eigval :      584.35   590.95   591.26   592.45   618.31   627.58
eigval :      635.87   669.37   671.13   682.85   690.32   692.14
eigval :      694.27   721.82   754.06   756.93   766.59   770.50
eigval :      774.80   834.86   848.41   866.63   868.49   877.19
eigval :      878.51   888.33   893.85   906.25   906.82   911.08
eigval :      913.90   914.18   916.98   921.14   923.32   930.96
eigval :      933.99   941.91   978.55   994.15  1052.98  1063.73
eigval :     1076.11  1088.74  1100.25  1101.25  1111.95  1114.36
eigval :     1126.03  1138.99  1141.88  1168.30  1175.87  1179.23
eigval :     1180.09  1181.85  1182.28  1183.23  1205.14  1230.61
eigval :     1231.99  1246.33  1256.69  1263.28  1269.90  1272.46
eigval :     1303.99  1306.78  1312.77  1317.76  1327.81  1335.76
eigval :     1337.82  1359.97  1400.68  1428.54  1429.10  1432.09
eigval :     1448.05  1448.41  1455.32  1464.46  1483.38  1491.38
eigval :     1552.22  1563.77  1567.02  1577.16  1581.82  1586.90
eigval :     1589.26  1591.46  3057.16  3064.40  3066.25  3083.18
eigval :     3083.65  3084.43  3084.76  3085.65  3086.59  3087.22
eigval :     3091.07  3091.47  3095.89  3099.17  3099.41  3102.44
eigval :     3104.27  3106.78  3107.64

   temp. (K)  partition function   enthalpy   heat capacity  entropy
                                   cal/mol     cal/K/mol   cal/K/mol   J/K/mol
 298.15  VIB  0.373E+10            13524.976     90.402     82.169
         ROT  0.157E+08              888.752      2.981     35.903
         INT  0.584E+17            14413.729     93.383    118.072
         TR   0.802E+28             1481.254      4.968     43.900
         TOT                       15894.9824    98.3510   161.9725   677.6930

       T/K    H(0)-H(T)+PV         H(T)/Eh          T*S/Eh         G(T)/Eh
   ------------------------------------------------------------------------
    298.15    0.253303E-01    0.410170E+00    0.769584E-01    0.333212E+00
   ------------------------------------------------------------------------

         :::::::::::::::::::::::::::::::::::::::::::::::::::::
         ::                  THERMODYNAMIC                  ::
         :::::::::::::::::::::::::::::::::::::::::::::::::::::
         :: total free energy         -80.205580152854 Eh   ::
         ::.................................................::
         :: total energy              -80.538791966554 Eh   ::
         :: zero point energy           0.384839912887 Eh   ::
         :: G(RRHO) w/o ZPVE           -0.051628099187 Eh   ::
         :: G(RRHO) contrib.            0.333211813700 Eh   ::
         :::::::::::::::::::::::::::::::::::::::::::::::::::::

           -------------------------------------------------
          | TOTAL ENERGY              -80.538791966554 Eh   |
          | TOTAL ENTHALPY            -80.128621786828 Eh   |
          | TOTAL FREE ENERGY         -80.205580152854 Eh   |
          | GRADIENT NORM               0.000063392213 Eh/α |
          | HOMO-LUMO GAP               0.584485147648 eV   |
           -------------------------------------------------

 * finished run on 2025/09/04 at 12:52:10.200
