   * xtb version 6.7.1 (edcfbbe) compiled by 'albert@albert-system' on 2024-07-22

   ID    Z sym.   atoms
    1    6 C      1-4, 6-19, 21, 22, 24-32
    2    7 N      5, 20, 23
    3    1 H      33-51

          program call               : xtb data2507/toluene/SAIP/SAIP_toluene_S0_crest.xyz --gfn 2 --gbsa toluene --ohess vtight --parallel 40 --molden --ceasefiles --namespace data2507/toluene/SAIP/SAIP_toluene_S0_finalOpt
      * Solvation model:               GBSA
        Solvent                        toluene
        Solvent mass                       9.2140E+01 g/mol
          :  Hamiltonian                  GFN2-xTB          :
 * total energy  :   -80.6115331 Eh     change       -0.1397993E-08 Eh
 * total energy  :   -80.6115580 Eh     change       -0.2482984E-04 Eh
 * total energy  :   -80.6115652 Eh     change       -0.7211614E-05 Eh
 * total energy  :   -80.6115679 Eh     change       -0.2734432E-05 Eh
 * total energy  :   -80.6115712 Eh     change       -0.3241917E-05 Eh
 * total energy  :   -80.6115740 Eh     change       -0.2819625E-05 Eh
 * total energy  :   -80.6115776 Eh     change       -0.3586141E-05 Eh
 * total energy  :   -80.6115812 Eh     change       -0.3606877E-05 Eh
 * total energy  :   -80.6115836 Eh     change       -0.2401122E-05 Eh
 * total energy  :   -80.6115854 Eh     change       -0.1771871E-05 Eh
 * total energy  :   -80.6116499 Eh     change       -0.6215387E-06 Eh
 * total energy  :   -80.6116503 Eh     change       -0.4448948E-06 Eh
 * total energy  :   -80.6116506 Eh     change       -0.2433030E-06 Eh
 * total energy  :   -80.6116508 Eh     change       -0.1826542E-06 Eh
 * total energy  :   -80.6116510 Eh     change       -0.2292555E-06 Eh
 * total energy  :   -80.6116512 Eh     change       -0.2495339E-06 Eh
 * total energy  :   -80.6116515 Eh     change       -0.2108066E-06 Eh
 * total energy  :   -80.6116516 Eh     change       -0.1711096E-06 Eh
 * total energy  :   -80.6116516 Eh     change       -0.9555947E-09 Eh
   *** GEOMETRY OPTIMIZATION CONVERGED AFTER 44 ITERATIONS ***

 final structure:
================
51
 xtb: 6.7.1 (edcfbbe)
C            6.02810985562960       -0.01258690244799        0.19261310981130
C            5.21190946455964        0.02410874672586        1.31130493139232
C            3.83499587662811        0.02374703431396        1.16711407104598
C            3.27561912363382       -0.01330885707343       -0.10309764935825
N            1.85573156577298       -0.01447327275926       -0.24036845729610
C            1.19083456061702        1.18979987187869       -0.38475567888745
C            1.90696761482930        2.38003303905988       -0.54161339723722
C            1.25234611185025        3.58262516849774       -0.71429266596588
C           -0.13117355324384        3.62758730588354       -0.74023026999128
C           -0.84812701471943        2.45602360727709       -0.57354811129111
C           -0.20680692761222        1.24000858555471       -0.39386518299478
C           -1.02792903987824       -0.00153776063983       -0.12969863165356
C           -2.29622779265376       -0.03602864734963       -0.95701385639175
C           -2.41618650119052       -0.10415139646009       -2.32913403694460
C           -3.68906281047722       -0.12333352731348       -2.88424009800778
C           -4.82142616721564       -0.07445046924540       -2.08224402797676
C           -4.71184638686509       -0.00581470334427       -0.70302904779439
C           -3.44223300348670        0.01244171770912       -0.14629762012388
C           -3.01071587244749        0.07648205344066        1.23591098667995
N           -3.73988370845259        0.13493951063238        2.33949710386848
C           -3.04490614998892        0.18350937663666        3.47382113035901
C           -1.65844402442648        0.17320161923120        3.50384081730297
N           -0.91864650878874        0.11489907669536        2.39411434378742
C           -1.59977581951585        0.06754912022861        1.27048146552871
C           -0.21369079769575       -1.26652521708587       -0.27465005251787
C           -0.86181244022336       -2.49063758112233       -0.33382764180323
C           -0.15150719724982       -3.67649105800828       -0.39365276267036
C            1.23239323085567       -3.63644943500139       -0.38336302468299
C            1.89370715046271       -2.42642819990278       -0.32714964405351
C            1.18406068471294       -1.22322872684425       -0.27442965432749
C            4.09272267276940       -0.04984263850631       -1.22638541535244
C            5.46848940420024       -0.04927277776759       -1.07439163081189
H            7.10166896520494       -0.01230694166175        0.30796083426006
H            5.64710824498819        0.05293719184709        2.29911001642082
H            3.18494234412794        0.05167288790434        2.02934654290050
H            2.98556747567317        2.35664209770432       -0.52464113172480
H            1.82788061834833        4.48900249544659       -0.83061409937391
H           -0.64936083653950        4.56428522776740       -0.87748594311156
H           -1.92909098943775        2.48374707511796       -0.57701126922782
H           -1.53772753234597       -0.14171268610554       -2.95621696905428
H           -3.79930410609217       -0.17651924593608       -3.95720084899216
H           -5.79926078495433       -0.09007149677090       -2.54021339179809
H           -5.58328580287428        0.03248658449633       -0.06771277429524
H           -3.62985501299396        0.23123599007688        4.38214816923827
H           -1.10941698397030        0.21193835012769        4.43432528220262
H           -1.94283200959809       -2.51276964608092       -0.32757484515108
H           -0.67504928969752       -4.61920785972789       -0.43790310554690
H            1.80293648124104       -4.55264557698546       -0.42043783253873
H            2.97252850878312       -2.40699366537817       -0.32099952277906
H            3.64492901814224       -0.07851121004009       -2.20906953265943
H            6.10385544350489       -0.07786787169552       -1.94712535720713

          :  Hamiltonian                  GFN2-xTB          :
         :: gradient norm              0.000035440057 Eh/a0 ::
         :: HOMO-LUMO gap              1.695467358300 eV    ::
         :: SCC energy               -82.083885481503 Eh    ::
         :: -> dispersion             -0.075157401313 Eh    ::
         :: -> Gsolv                  -0.034269565396 Eh    ::
         :: repulsion energy           1.472233849453 Eh    ::

    * Orbital Energies and Occupations

         #    Occupation            Energy/Eh            Energy/eV
      -------------------------------------------------------------
         1        2.0000           -0.6862228             -18.6731
       ...           ...                  ...                  ...
        63        2.0000           -0.4305318             -11.7154
        64        2.0000           -0.4287150             -11.6659
        65        2.0000           -0.4259950             -11.5919
        66        2.0000           -0.4167906             -11.3414
        67        2.0000           -0.4156067             -11.3092
        68        2.0000           -0.4142882             -11.2734
        69        2.0000           -0.4103596             -11.1665
        70        2.0000           -0.4086884             -11.1210
        71        2.0000           -0.4050969             -11.0232
        72        2.0000           -0.4005336             -10.8991
        73        2.0000           -0.3976260             -10.8200
        74        2.0000           -0.3651976              -9.9375
        75        2.0000           -0.3497157              -9.5162 (HOMO)
        76                         -0.2874085              -7.8208 (LUMO)
        77                         -0.2644837              -7.1970
        78                         -0.2357018              -6.4138
        79                         -0.2349087              -6.3922
        80                         -0.2336323              -6.3575
        81                         -0.2289473              -6.2300
        82                         -0.2266550              -6.1676
        83                         -0.2234491              -6.0804
        84                         -0.2122761              -5.7763
        85                         -0.1958749              -5.3300
        86                         -0.1387304              -3.7750
       ...                                ...                  ...
       147                          0.6990811              19.0230
      -------------------------------------------------------------
                  HL-Gap            0.0623073 Eh            1.6955 eV

     #   Z          covCN         q      C6AA      α(0)
     1   6 C        2.919    -0.029    28.730     8.790
     2   6 C        2.920    -0.027    28.665     8.780
     3   6 C        2.922    -0.037    28.916     8.818
     4   6 C        2.927     0.066    26.518     8.445
     5   7 N        2.754    -0.068    22.551     7.053
     6   6 C        2.926     0.064    26.574     8.454
     7   6 C        2.924    -0.057    29.429     8.896
     8   6 C        2.919    -0.032    28.809     8.802
     9   6 C        2.917    -0.045    29.106     8.847
    10   6 C        2.924    -0.039    28.969     8.826
    11   6 C        2.984    -0.010    28.267     8.721
    12   6 C        3.946     0.011    20.320     6.405
    13   6 C        3.062    -0.001    27.997     8.677
    14   6 C        2.914    -0.030    28.740     8.791
    15   6 C        2.922    -0.026    28.640     8.776
    16   6 C        2.921    -0.030    28.738     8.791
    17   6 C        2.913    -0.027    28.672     8.780
    18   6 C        3.032    -0.012    28.278     8.722
    19   6 C        3.041     0.083    26.109     8.381
    20   7 N        1.836    -0.243    27.192     7.728
    21   6 C        2.923     0.047    26.937     8.511
    22   6 C        2.927     0.047    26.953     8.514
    23   7 N        1.836    -0.246    27.276     7.740
    24   6 C        3.067     0.096    25.801     8.329
    25   6 C        2.983    -0.010    28.265     8.721
    26   6 C        2.924    -0.039    28.966     8.826
    27   6 C        2.917    -0.044    29.105     8.847
    28   6 C        2.919    -0.032    28.809     8.802
    29   6 C        2.924    -0.057    29.427     8.896
    30   6 C        2.927     0.064    26.575     8.454
    31   6 C        2.921    -0.038    28.939     8.822
    32   6 C        2.920    -0.027    28.688     8.783
    33   1 H        0.926     0.044     2.393     2.419
    34   1 H        0.926     0.044     2.391     2.418
    35   1 H        0.926     0.044     2.400     2.423
    36   1 H        0.926     0.035     2.511     2.478
    37   1 H        0.926     0.036     2.496     2.471
    38   1 H        0.926     0.031     2.568     2.506
    39   1 H        0.925     0.020     2.739     2.588
    40   1 H        0.926     0.039     2.464     2.455
    41   1 H        0.926     0.047     2.360     2.403
    42   1 H        0.926     0.046     2.370     2.408
    43   1 H        0.926     0.048     2.340     2.392
    44   1 H        0.925     0.041     2.429     2.437
    45   1 H        0.926     0.041     2.435     2.440
    46   1 H        0.925     0.020     2.740     2.589
    47   1 H        0.926     0.031     2.567     2.506
    48   1 H        0.926     0.036     2.496     2.471
    49   1 H        0.926     0.035     2.512     2.478
    50   1 H        0.926     0.043     2.405     2.425
    51   1 H        0.926     0.045     2.386     2.415

molecular dipole:
                 x           y           z       tot (Debye)
 q only:        1.195      -0.043      -0.779
   full:        1.075      -0.035      -0.622       3.157

 projected vibrational frequencies (cm⁻¹)
eigval :       -0.00    -0.00    -0.00     0.00     0.00     0.00
eigval :       -5.93     7.72    36.63    37.91    47.81    66.82
eigval :       69.63    87.19   103.86   130.80   148.16   165.48
eigval :      199.27   231.21   241.51   248.63   249.07   267.92
eigval :      301.49   371.14   376.28   385.39   386.01   401.34
eigval :      408.44   417.73   419.96   445.64   452.32   463.57
eigval :      496.60   501.80   506.88   511.04   543.92   591.30
eigval :      591.70   594.06   600.91   606.27   620.83   632.14
eigval :      670.93   672.50   675.50   693.68   705.81   724.32
eigval :      759.47   764.50   768.43   777.46   780.48   783.93
eigval :      831.10   863.54   863.99   877.39   886.31   894.86
eigval :      899.13   901.73   906.04   907.37   909.66   915.15
eigval :      917.13   918.08   921.09   927.54   929.69   931.18
eigval :      932.60   946.88   995.67  1024.34  1069.15  1076.19
eigval :     1097.97  1106.44  1107.28  1107.76  1111.70  1124.51
eigval :     1139.39  1159.49  1172.44  1177.83  1181.76  1182.66
eigval :     1183.01  1189.10  1197.90  1211.35  1229.74  1238.71
eigval :     1250.13  1254.10  1266.70  1270.84  1272.16  1289.62
eigval :     1307.09  1318.18  1318.70  1325.45  1334.41  1339.11
eigval :     1367.19  1416.30  1430.14  1436.32  1436.96  1443.48
eigval :     1459.92  1467.39  1476.99  1493.92  1531.48  1570.06
eigval :     1577.57  1582.27  1584.51  1586.41  1588.67  1591.26
eigval :     1598.63  1601.63  3058.94  3068.58  3069.18  3072.16
eigval :     3078.05  3078.38  3078.52  3079.10  3080.09  3083.91
eigval :     3086.19  3090.30  3092.26  3092.50  3092.96  3097.78
eigval :     3099.69  3100.65  3102.21

   temp. (K)  partition function   enthalpy   heat capacity  entropy
                                   cal/mol     cal/K/mol   cal/K/mol   J/K/mol
 298.15  VIB  0.405E+11            13399.729     88.319     83.317
         ROT  0.159E+08              888.752      2.981     35.929
         INT  0.642E+18            14288.481     91.300    119.246
         TR   0.802E+28             1481.254      4.968     43.900
         TOT                       15769.7353    96.2678   163.1461   682.6033

       T/K    H(0)-H(T)+PV         H(T)/Eh          T*S/Eh         G(T)/Eh
   ------------------------------------------------------------------------
    298.15    0.251307E-01    0.413110E+00    0.775160E-01    0.335594E+00
   ------------------------------------------------------------------------

         :::::::::::::::::::::::::::::::::::::::::::::::::::::
         ::                  THERMODYNAMIC                  ::
         :::::::::::::::::::::::::::::::::::::::::::::::::::::
         :: total free energy         -80.276057660691 Eh   ::
         ::.................................................::
         :: total energy              -80.611651631513 Eh   ::
         :: zero point energy           0.387979281945 Eh   ::
         :: G(RRHO) w/o ZPVE           -0.052385311123 Eh   ::
         :: G(RRHO) contrib.            0.335593970822 Eh   ::
         :::::::::::::::::::::::::::::::::::::::::::::::::::::

           -------------------------------------------------
          | TOTAL ENERGY              -80.611651631513 Eh   |
          | TOTAL ENTHALPY            -80.198541676712 Eh   |
          | TOTAL FREE ENERGY         -80.276057660691 Eh   |
          | GRADIENT NORM               0.000035441345 Eh/α |
          | HOMO-LUMO GAP               1.695467628896 eV   |
           -------------------------------------------------

 * finished run on 2025/09/04 at 12:49:47.570
