   * xtb version 6.7.1 (edcfbbe) compiled by 'albert@albert-system' on 2024-07-22

   ID    Z sym.   atoms
    1    6 C      1-20
    2    1 H      21-34

          program call               : xtb data2507/gas/CCC/CCC_gas_S0_finalOpt.xtbopt.xyz --gfn 2 --spinpol --tblite --uhf 2 --ohess vtight --parallel 40 --molden --ceasefiles --namespace data2507/gas/CCC/CCC_gas_T1_preOpt
 * total energy  :   -49.8721001 Eh     change       -0.7037421E-08 Eh
 * total energy  :   -49.8808519 Eh     change       -0.8751798E-02 Eh
 * total energy  :   -49.8824263 Eh     change       -0.1574483E-02 Eh
 * total energy  :   -49.8825043 Eh     change       -0.7791160E-04 Eh
 * total energy  :   -49.8825425 Eh     change       -0.3824256E-04 Eh
 * total energy  :   -49.8825788 Eh     change       -0.3630991E-04 Eh
 * total energy  :   -49.8826243 Eh     change       -0.4553462E-04 Eh
 * total energy  :   -49.8826663 Eh     change       -0.4197439E-04 Eh
 * total energy  :   -49.8827054 Eh     change       -0.3910055E-04 Eh
 * total energy  :   -49.8827107 Eh     change       -0.5277972E-05 Eh
 * total energy  :   -49.8827121 Eh     change       -0.1376655E-05 Eh
 * total energy  :   -49.8827125 Eh     change       -0.4100968E-06 Eh
 * total energy  :   -49.8827126 Eh     change       -0.1489248E-06 Eh
 * total energy  :   -49.8827127 Eh     change       -0.8844587E-07 Eh
   *** GEOMETRY OPTIMIZATION CONVERGED AFTER 14 ITERATIONS ***

 final structure:
================
34
 xtb: 6.7.1 (edcfbbe)
C           -4.84260994898105        1.36815655079203       -0.00074951614638
C           -5.02193281442590       -0.02430396046358       -0.00106048153243
C           -3.95662566982433       -0.88186873247016       -0.00081587371117
C           -2.64050130572254       -0.33972274877133       -0.00026791280169
C           -2.47244298240504        1.09239360093110        0.00007879119610
C           -3.55157316883142        1.92390392175571       -0.00015886219333
C           -1.00696977957894        1.41374046262053        0.00059459722983
C           -0.36996316921341        0.05223267228016        0.00024236127654
C           -1.38897296668842       -0.94837202801774       -0.00011452407939
C           -1.03669132428347       -2.36092671048357       -0.00043795196685
C            0.28769276087035       -2.71661803783377       -0.00067275108305
C            1.27736149715602       -1.74032739695146       -0.00051267335292
C            0.94291436874007       -0.31304058118203        0.00003141736464
C            2.17398185951275        0.42304029173024        0.00001125441874
C            2.42148062463038        1.79631333346945        0.00044104172962
C            3.73081311792766        2.23949274071872        0.00014562091056
C            4.78935395328639        1.34164342073297       -0.00056785055338
C            4.55273288610797       -0.03175366556387       -0.00094420877598
C            3.25559022243591       -0.48424380001439       -0.00063076287037
C            2.76266956082590       -1.90624708296518       -0.00091710972236
H           -5.70414835502011        2.01741764491785       -0.00098179477898
H           -6.02893643677521       -0.41700795911356       -0.00151823233033
H           -4.09738757535493       -1.95173566560944       -0.00106516429063
H           -3.42976898477540        2.99787007023715        0.00007371971039
H           -0.72114421794607        1.99356547861790       -0.88155757257932
H           -0.72164461222353        1.99281885600963        0.88340677273829
H           -1.82207940009729       -3.09835197047938       -0.00052185766475
H            0.57057487104346       -3.76035135877416       -0.00099192723199
H            1.60615664155120        2.50260084702275        0.00100340770959
H            3.93526391370790        3.30056414089046        0.00046467370000
H            5.80471799171767        1.70924837771274       -0.00082450060160
H            5.38087674413750       -0.72623689120143       -0.00148158561958
H            3.11371671137984       -2.45729682110392       -0.88110832168067
H            3.11415854348993       -2.45778133550263        0.87879584235662

 projected vibrational frequencies (cm⁻¹)
eigval :       -0.00    -0.00    -0.00    -0.00     0.00     0.00
eigval :       42.99    63.69   107.22   112.10   113.30   204.45
eigval :      224.08   230.95   243.59   255.26   314.87   361.49
eigval :      391.44   397.09   416.11   439.89   444.11   454.47
eigval :      497.72   533.92   536.97   544.84   560.27   593.83
eigval :      600.68   643.70   672.13   676.70   705.73   711.78
eigval :      720.15   736.42   759.56   811.05   823.21   837.76
eigval :      861.46   875.47   885.20   898.02   904.64   906.39
eigval :      912.44   913.79   920.95   967.93   977.57  1043.22
eigval :     1074.26  1083.75  1085.73  1101.24  1111.43  1116.58
eigval :     1141.67  1167.25  1176.40  1179.13  1185.51  1196.32
eigval :     1208.35  1239.02  1246.70  1268.74  1282.90  1315.83
eigval :     1325.92  1355.78  1361.12  1366.32  1392.90  1414.57
eigval :     1429.22  1430.55  1439.28  1456.34  1482.70  1509.28
eigval :     1550.11  1558.02  1597.74  1620.15  2887.94  2925.53
eigval :     2931.10  2956.32  3065.35  3070.09  3070.61  3071.12
eigval :     3074.33  3089.22  3089.76  3097.28  3100.58  3107.40

   temp. (K)  partition function   enthalpy   heat capacity  entropy
                                   cal/mol     cal/K/mol   cal/K/mol   J/K/mol
 298.15  VIB  0.218E+05             7734.377     56.980     44.529
         ROT  0.490E+07              888.752      2.981     33.594
         INT  0.107E+12             8623.130     59.961     78.123
         TR   0.392E+28             1481.254      4.968     42.481
         TOT                       10104.3835    64.9292   120.6038   504.6062

       T/K    H(0)-H(T)+PV         H(T)/Eh          T*S/Eh         G(T)/Eh
   ------------------------------------------------------------------------
    298.15    0.161024E-01    0.277768E+00    0.573027E-01    0.220466E+00
   ------------------------------------------------------------------------

         :::::::::::::::::::::::::::::::::::::::::::::::::::::
         ::                  THERMODYNAMIC                  ::
         :::::::::::::::::::::::::::::::::::::::::::::::::::::
         :: total free energy         -49.662247120502 Eh   ::
         ::.................................................::
         :: total energy              -49.882712711272 Eh   ::
         :: zero point energy           0.261665974375 Eh   ::
         :: G(RRHO) w/o ZPVE           -0.041200383604 Eh   ::
         :: G(RRHO) contrib.            0.220465590770 Eh   ::
         :::::::::::::::::::::::::::::::::::::::::::::::::::::

           -------------------------------------------------
          | TOTAL ENERGY              -49.882712711272 Eh   |
          | TOTAL ENTHALPY            -49.604944376821 Eh   |
          | TOTAL FREE ENERGY         -49.662247120502 Eh   |
          | GRADIENT NORM               0.000062312704 Eh/α |
           -------------------------------------------------

 * finished run on 2025/09/05 at 11:54:34.214
