   * xtb version 6.7.1 (edcfbbe) compiled by 'albert@albert-system' on 2024-07-22

   ID    Z sym.   atoms
    1    6 C      1-20
    2    1 H      21-34

          program call               : xtb data2507/gas/CCC/CCC.xyz --gfn 2 --ohess vtight --parallel 40 --molden --ceasefiles --namespace data2507/gas/CCC/CCC_gas_S0_preOpt
          :  Hamiltonian                  GFN2-xTB          :
 * total energy  :   -49.9848889 Eh     change       -0.1180815E-08 Eh
 * total energy  :   -49.9880386 Eh     change       -0.3149636E-02 Eh
 * total energy  :   -49.9883376 Eh     change       -0.2990129E-03 Eh
 * total energy  :   -49.9883565 Eh     change       -0.1892662E-04 Eh
 * total energy  :   -49.9883600 Eh     change       -0.3474147E-05 Eh
 * total energy  :   -49.9883608 Eh     change       -0.8634095E-06 Eh
 * total energy  :   -49.9883609 Eh     change       -0.6458118E-07 Eh
   *** GEOMETRY OPTIMIZATION CONVERGED AFTER 7 ITERATIONS ***

 final structure:
================
34
 xtb: 6.7.1 (edcfbbe)
C           -4.87792284556977        1.28277209634852       -0.00014035629204
C           -5.05576991066911       -0.09251115250175       -0.00010122935987
C           -3.96723279782977       -0.94892113502249        0.00000119870481
C           -2.69336795674497       -0.40378585939660        0.00006171039819
C           -2.51546485578360        0.98792278223194        0.00003308482894
C           -3.60384022422262        1.83411747282486       -0.00006876898507
C           -1.05236811491169        1.32499181849081        0.00010530637888
C           -0.40594254635461       -0.02893510103480        0.00011665457971
C           -1.38476662097732       -1.03727060894569        0.00011232335097
C           -1.04141082716003       -2.38128281774686        0.00010813011242
C            0.29933538217994       -2.74018275690092        0.00006950815687
C            1.26688702266851       -1.75531642085204        0.00004538342264
C            0.92825373585261       -0.38851841092839        0.00009105587095
C            2.15622908754897        0.39096154362251        0.00005562258457
C            2.37319441012134        1.76007196468522        0.00011093530377
C            3.67740377131418        2.22749992438676        0.00004065826540
C            4.74907423495523        1.34816502236000       -0.00008730849774
C            4.53871652703901       -0.02388955067074       -0.00012981386549
C            3.24391307984635       -0.49693294993647       -0.00004936725492
C            2.75914773874316       -1.91688830515802       -0.00005759685627
H           -5.74099844837112        1.93248011583865       -0.00023267416526
H           -6.05666872983124       -0.49943116448961       -0.00015906418614
H           -4.11047543543307       -2.01933953401238        0.00002649079410
H           -3.47170752239876        2.90682945645915       -0.00010064152954
H           -0.77357545436130        1.90641194903936       -0.88262610786396
H           -0.77366693415344        1.90637634020888        0.88289045447670
H           -1.80863522465794       -3.14093159649268        0.00011832702049
H            0.58302483833206       -3.78294844879737        0.00004536438785
H            1.54726423397315        2.45430394057702        0.00021227331287
H            3.86268113057823        3.29199570153561        0.00008573336110
H            5.75777329362986        1.73471095254759       -0.00015189131836
H            5.37659265087000       -0.70651208400519       -0.00022612421296
H            3.10709610925628       -2.46297874581826       -0.88071892668645
H            3.10722720252146       -2.46303343844663        0.88051665576282

          :  Hamiltonian                  GFN2-xTB          :
         :: gradient norm              0.000027456089 Eh/a0 ::
         :: HOMO-LUMO gap              3.292743578738 eV    ::
         :: SCC energy               -50.953529436798 Eh    ::
         :: -> dispersion             -0.040429908957 Eh    ::
         :: repulsion energy           0.965168541130 Eh    ::

    * Orbital Energies and Occupations

         #    Occupation            Energy/Eh            Energy/eV
      -------------------------------------------------------------
         1        2.0000           -0.6531735             -17.7738
       ...           ...                  ...                  ...
        35        2.0000           -0.4596984             -12.5090
        36        2.0000           -0.4306992             -11.7199
        37        2.0000           -0.4292686             -11.6810
        38        2.0000           -0.4243836             -11.5481
        39        2.0000           -0.4226299             -11.5003
        40        2.0000           -0.4190855             -11.4039
        41        2.0000           -0.4123881             -11.2217
        42        2.0000           -0.4104279             -11.1683
        43        2.0000           -0.4095702             -11.1450
        44        2.0000           -0.3968953             -10.8001
        45        2.0000           -0.3946195             -10.7381
        46        2.0000           -0.3773722             -10.2688
        47        2.0000           -0.3703481             -10.0777 (HOMO)
        48                         -0.2493421              -6.7849 (LUMO)
        49                         -0.2381925              -6.4815
        50                         -0.2178276              -5.9274
        51                         -0.2160712              -5.8796
        52                         -0.1961305              -5.3370
        53                         -0.1737721              -4.7286
        54                         -0.1101316              -2.9968
        55                         -0.0753535              -2.0505
        56                         -0.0450621              -1.2262
        57                          0.0785607               2.1377
        58                          0.0903728               2.4592
       ...                                ...                  ...
        94                          0.7541578              20.5217
      -------------------------------------------------------------
                  HL-Gap            0.1210061 Eh            3.2927 eV

     #   Z          covCN         q      C6AA      α(0)
     1   6 C        2.922    -0.033    28.833     8.806
     2   6 C        2.921    -0.034    28.846     8.808
     3   6 C        2.914    -0.034    28.858     8.809
     4   6 C        3.040     0.000    27.990     8.677
     5   6 C        3.050     0.004    27.885     8.661
     6   6 C        2.914    -0.039    28.967     8.826
     7   6 C        3.844    -0.062    21.667     6.621
     8   6 C        3.043    -0.000    27.990     8.677
     9   6 C        3.039    -0.005    28.111     8.696
    10   6 C        2.916    -0.037    28.928     8.820
    11   6 C        2.915    -0.043    29.079     8.843
    12   6 C        3.048     0.002    27.936     8.669
    13   6 C        3.032    -0.010    28.231     8.715
    14   6 C        3.036     0.000    27.986     8.677
    15   6 C        2.914    -0.036    28.906     8.816
    16   6 C        2.921    -0.034    28.858     8.809
    17   6 C        2.922    -0.033    28.826     8.804
    18   6 C        2.914    -0.039    28.966     8.826
    19   6 C        3.050     0.005    27.856     8.656
    20   6 C        3.844    -0.066    21.736     6.632
    21   1 H        0.926     0.028     2.618     2.530
    22   1 H        0.926     0.027     2.623     2.533
    23   1 H        0.926     0.029     2.606     2.525
    24   1 H        0.926     0.026     2.646     2.544
    25   1 H        0.924     0.055     2.259     2.350
    26   1 H        0.924     0.055     2.259     2.350
    27   1 H        0.926     0.030     2.586     2.515
    28   1 H        0.926     0.027     2.635     2.538
    29   1 H        0.926     0.029     2.596     2.520
    30   1 H        0.926     0.027     2.628     2.535
    31   1 H        0.926     0.028     2.616     2.529
    32   1 H        0.926     0.026     2.641     2.541
    33   1 H        0.924     0.055     2.261     2.352
    34   1 H        0.924     0.055     2.261     2.352

molecular dipole:
                 x           y           z       tot (Debye)
 q only:        0.221      -0.021      -0.000
   full:        0.269      -0.026      -0.000       0.686

 projected vibrational frequencies (cm⁻¹)
eigval :       -0.00     0.00     0.00     0.00     0.00     0.00
eigval :       50.39    70.57   112.19   118.75   134.71   219.52
eigval :      232.59   235.94   273.07   314.93   322.72   394.52
eigval :      401.67   425.76   445.62   451.79   459.01   507.55
eigval :      536.26   547.96   555.10   589.34   600.05   616.46
eigval :      646.29   687.74   697.31   701.38   755.94   768.50
eigval :      773.24   823.46   831.76   834.34   845.49   876.69
eigval :      878.45   900.34   903.55   907.84   917.74   921.12
eigval :      927.69   928.93   995.93   998.69  1077.50  1080.04
eigval :     1083.65  1087.23  1091.87  1131.78  1146.15  1175.60
eigval :     1180.96  1182.20  1187.68  1194.41  1210.91  1215.32
eigval :     1247.45  1258.68  1275.28  1276.82  1290.98  1341.13
eigval :     1349.57  1389.52  1408.90  1424.29  1426.52  1431.94
eigval :     1452.40  1455.49  1467.98  1474.21  1587.44  1590.83
eigval :     1598.80  1607.40  1608.45  1616.65  2942.90  2943.96
eigval :     2966.05  2969.07  3069.15  3070.02  3072.91  3073.75
eigval :     3075.04  3082.10  3087.03  3088.35  3090.83  3098.89

   temp. (K)  partition function   enthalpy   heat capacity  entropy
                                   cal/mol     cal/K/mol   cal/K/mol   J/K/mol
 298.15  VIB  0.831E+04             7215.874     54.357     41.290
         ROT  0.487E+07              888.752      2.981     33.582
         INT  0.405E+11             8104.626     57.338     74.872
         TR   0.392E+28             1481.254      4.968     42.481
         TOT                        9585.8801    62.3062   117.3534   491.0068

       T/K    H(0)-H(T)+PV         H(T)/Eh          T*S/Eh         G(T)/Eh
   ------------------------------------------------------------------------
    298.15    0.152761E-01    0.282722E+00    0.557584E-01    0.226963E+00
   ------------------------------------------------------------------------

         :::::::::::::::::::::::::::::::::::::::::::::::::::::
         ::                  THERMODYNAMIC                  ::
         :::::::::::::::::::::::::::::::::::::::::::::::::::::
         :: total free energy         -49.761397753611 Eh   ::
         ::.................................................::
         :: total energy              -49.988360895668 Eh   ::
         :: zero point energy           0.267445477560 Eh   ::
         :: G(RRHO) w/o ZPVE           -0.040482335503 Eh   ::
         :: G(RRHO) contrib.            0.226963142057 Eh   ::
         :::::::::::::::::::::::::::::::::::::::::::::::::::::

           -------------------------------------------------
          | TOTAL ENERGY              -49.988360895668 Eh   |
          | TOTAL ENTHALPY            -49.705639345855 Eh   |
          | TOTAL FREE ENERGY         -49.761397753611 Eh   |
          | GRADIENT NORM               0.000027455686 Eh/α |
          | HOMO-LUMO GAP               3.292743387509 eV   |
           -------------------------------------------------

 * finished run on 2025/09/05 at 11:53:52.358
