   * xtb version 6.7.1 (edcfbbe) compiled by 'albert@albert-system' on 2024-07-22

   ID    Z sym.   atoms
    1    6 C      1-20
    2    1 H      21-34

          program call               : xtb data2507/gas/CCC/CCC_gas_T1_crest.xyz --gfn 2 --spinpol --tblite --uhf 2 --ohess vtight --parallel 40 --molden --ceasefiles --namespace data2507/gas/CCC/CCC_gas_T1_finalOpt
 * total energy  :   -49.8826866 Eh     change        0.1366742E-07 Eh
 * total energy  :   -49.8827049 Eh     change       -0.1831538E-04 Eh
 * total energy  :   -49.8827097 Eh     change       -0.4762294E-05 Eh
 * total energy  :   -49.8827102 Eh     change       -0.4993081E-06 Eh
 * total energy  :   -49.8827107 Eh     change       -0.4823288E-06 Eh
 * total energy  :   -49.8827112 Eh     change       -0.5099092E-06 Eh
 * total energy  :   -49.8827117 Eh     change       -0.4906898E-06 Eh
 * total energy  :   -49.8827121 Eh     change       -0.3970063E-06 Eh
 * total energy  :   -49.8827123 Eh     change       -0.2220549E-06 Eh
 * total energy  :   -49.8827124 Eh     change       -0.1493448E-06 Eh
 * total energy  :   -49.8827126 Eh     change       -0.1409419E-06 Eh
 * total energy  :   -49.8827126 Eh     change       -0.6521395E-07 Eh
   *** GEOMETRY OPTIMIZATION CONVERGED AFTER 12 ITERATIONS ***

 final structure:
================
34
 xtb: 6.7.1 (edcfbbe)
C           -4.84017327518407        1.37249940646511        0.00159787092092
C           -5.02143493181134       -0.01973315883219        0.00411144985963
C           -3.95736155939069       -0.87881734072816        0.00415056770867
C           -2.64042532327885       -0.33854563007907        0.00170231955019
C           -2.47042663263542        1.09337627954181       -0.00051234515447
C           -3.54835652788606        1.92641521906136       -0.00070416751073
C           -1.00455185799100        1.41277978369701       -0.00220137708361
C           -0.36942451925139        0.05044491018649       -0.00068408834374
C           -1.38975844018772       -0.94889124426304        0.00116018085698
C           -1.03908445934693       -2.36185195007252        0.00259153734039
C            0.28483767123464       -2.71917113124649        0.00245343214597
C            1.27574780937285       -1.74405029456693        0.00103949899285
C            0.94293025127007       -0.31647243895359       -0.00034647508650
C            2.17474457493539        0.41833208398904       -0.00011619305184
C            2.42351645281145        1.79135370644857       -0.00029716686942
C            3.73326617002757        2.23326394008513        0.00131514239187
C            4.79091138048131        1.33438332465148        0.00300464769761
C            4.55298417204314       -0.03878733421576        0.00295017398001
C            3.25540056607380       -0.49003929806925        0.00134802350464
C            2.76091032954069       -1.91153737392920        0.00115582579357
H           -5.70078860819423        2.02298197392325        0.00156107524146
H           -6.02899695259646       -0.41098353041200        0.00606328676616
H           -4.09971619385026       -1.94847006783732        0.00610955045665
H           -3.42494219911582        3.00019924582711       -0.00245951125108
H           -0.71887078701820        1.99048842615492       -0.88580239551354
H           -0.71750981637908        1.99319431475882        0.87917250455939
H           -1.82530832527591       -3.09839667671288        0.00372607191992
H            0.56645186943285       -3.76324321911301        0.00354323398052
H            1.60887145242829        2.49841266064617       -0.00154579346594
H            3.93872104113999        3.29414661980354        0.00141174723646
H            5.80661909508131        1.70101933141523        0.00442836021647
H            5.38048404864456       -0.73403501791749        0.00420641129322
H            3.11159823907269       -2.46292824167722       -0.87898438791111
H            3.11159747400284       -2.46348489502891        0.88090416962844

 projected vibrational frequencies (cm⁻¹)
eigval :       -0.00    -0.00    -0.00     0.00     0.00     0.00
eigval :       42.89    63.69   107.15   112.08   113.28   204.43
eigval :      224.11   230.99   243.55   255.24   314.85   361.43
eigval :      391.38   397.08   416.12   439.85   444.18   454.46
eigval :      497.85   533.91   537.09   544.87   560.36   593.89
eigval :      600.67   643.68   672.17   676.71   705.73   712.40
eigval :      720.05   736.36   759.49   810.92   823.13   837.80
eigval :      861.35   875.37   885.11   897.93   904.54   906.57
eigval :      912.48   913.73   920.89   967.67   977.41  1042.91
eigval :     1074.11  1083.89  1085.89  1101.28  1111.43  1116.57
eigval :     1141.73  1167.31  1176.50  1179.30  1185.66  1196.49
eigval :     1208.53  1239.03  1246.88  1268.79  1283.10  1315.98
eigval :     1325.90  1355.86  1361.17  1366.51  1392.95  1414.53
eigval :     1429.88  1430.79  1439.37  1456.44  1482.74  1509.52
eigval :     1550.19  1558.06  1597.82  1620.29  2888.01  2925.90
eigval :     2931.08  2956.94  3065.53  3070.43  3070.81  3071.43
eigval :     3074.60  3089.41  3089.91  3097.49  3100.88  3107.43

   temp. (K)  partition function   enthalpy   heat capacity  entropy
                                   cal/mol     cal/K/mol   cal/K/mol   J/K/mol
 298.15  VIB  0.218E+05             7734.499     56.977     44.530
         ROT  0.490E+07              888.752      2.981     33.594
         INT  0.107E+12             8623.251     59.957     78.124
         TR   0.392E+28             1481.254      4.968     42.481
         TOT                       10104.5048    64.9256   120.6051   504.6117

       T/K    H(0)-H(T)+PV         H(T)/Eh          T*S/Eh         G(T)/Eh
   ------------------------------------------------------------------------
    298.15    0.161026E-01    0.277782E+00    0.573034E-01    0.220479E+00
   ------------------------------------------------------------------------

         :::::::::::::::::::::::::::::::::::::::::::::::::::::
         ::                  THERMODYNAMIC                  ::
         :::::::::::::::::::::::::::::::::::::::::::::::::::::
         :: total free energy         -49.662233613672 Eh   ::
         ::.................................................::
         :: total energy              -49.882712640885 Eh   ::
         :: zero point energy           0.261679839030 Eh   ::
         :: G(RRHO) w/o ZPVE           -0.041200811817 Eh   ::
         :: G(RRHO) contrib.            0.220479027213 Eh   ::
         :::::::::::::::::::::::::::::::::::::::::::::::::::::

           -------------------------------------------------
          | TOTAL ENERGY              -49.882712640885 Eh   |
          | TOTAL ENTHALPY            -49.604930248421 Eh   |
          | TOTAL FREE ENERGY         -49.662233613672 Eh   |
          | GRADIENT NORM               0.000046817658 Eh/α |
           -------------------------------------------------

 * finished run on 2025/09/05 at 11:55:21.925
