   * xtb version 6.7.1 (edcfbbe) compiled by 'albert@albert-system' on 2024-07-22

   ID    Z sym.   atoms
    1    6 C      1-20
    2    1 H      21-34

          program call               : xtb data2507/gas/CCC/CCC_gas_S0_crest.xyz --gfn 2 --ohess vtight --parallel 40 --molden --ceasefiles --namespace data2507/gas/CCC/CCC_gas_S0_finalOpt
          :  Hamiltonian                  GFN2-xTB          :
 * total energy  :   -49.9883600 Eh     change       -0.1508567E-08 Eh
 * total energy  :   -49.9883603 Eh     change       -0.2563208E-06 Eh
 * total energy  :   -49.9883605 Eh     change       -0.1870267E-06 Eh
 * total energy  :   -49.9883607 Eh     change       -0.1740913E-06 Eh
 * total energy  :   -49.9883607 Eh     change       -0.1778773E-07 Eh
   *** GEOMETRY OPTIMIZATION CONVERGED AFTER 5 ITERATIONS ***

 final structure:
================
34
 xtb: 6.7.1 (edcfbbe)
C           -4.83820295596778        1.37640020930026       -0.00262966076320
C           -5.02971255113587        0.00296728699505       -0.00279530496027
C           -3.94970916318058       -0.86422133072665       -0.00126384946113
C           -2.67050728413467       -0.33176382117498        0.00077630966205
C           -2.47878691597995        1.05814101495251        0.00090316839311
C           -3.55867420764379        1.91508512768545       -0.00089245951578
C           -1.01241275056631        1.38063282211014        0.00219302271436
C           -0.37950078718306        0.02034509945933        0.00190703082253
C           -1.36827529949833       -0.97823755540313        0.00151461238518
C           -1.03808412723969       -2.32554724349543        0.00125092854713
C            0.29909316245933       -2.69763042684621        0.00059181995787
C            1.27633024353464       -1.72237179600610        0.00015637434299
C            0.95107788027604       -0.35230907293132        0.00132565373621
C            2.18655831416630        0.41515519064607        0.00092318825844
C            2.41670757381433        1.78206475140830        0.00211853009042
C            3.72537232135700        2.23698949646958        0.00070289163215
C            4.78841321300159        1.34733139761247       -0.00186004736193
C            4.56481963930902       -0.02270184901235       -0.00284801255100
C            3.26558656119104       -0.48330975871269       -0.00131075022358
C            2.76695337192246       -1.89848119007528       -0.00203580011717
H           -5.69472182880399        2.03471666654674       -0.00378023693116
H           -6.03460691458243       -0.39399839322109       -0.00420178542044
H           -4.10359044239925       -1.93316973971995       -0.00152229095186
H           -3.41612049493177        2.98646088415890       -0.00033452830005
H           -0.72730433543698        1.95978339810562       -0.88001281999093
H           -0.72847750397062        1.95865807041649        0.88550216901257
H           -1.81264055857742       -3.07768915739186        0.00154612179764
H            0.57235039269585       -3.74319572337032        0.00003456376901
H            1.59752350652393        2.48420934414167        0.00389409030551
H            3.92071939254337        3.29968229115923        0.00175745999763
H            5.80089109632952        1.72382610663333       -0.00287187800211
H            5.39632445593719       -0.71305774984038       -0.00475374007915
H            3.10826477811175       -2.44684211003516       -0.88391197935934
H            3.11099770885914       -2.44910180663821        0.87732114136430

          :  Hamiltonian                  GFN2-xTB          :
         :: gradient norm              0.000178801903 Eh/a0 ::
         :: HOMO-LUMO gap              3.292629757104 eV    ::
         :: SCC energy               -50.953522124579 Eh    ::
         :: -> dispersion             -0.040430192255 Eh    ::
         :: repulsion energy           0.965161454713 Eh    ::

    * Orbital Energies and Occupations

         #    Occupation            Energy/Eh            Energy/eV
      -------------------------------------------------------------
         1        2.0000           -0.6531726             -17.7737
       ...           ...                  ...                  ...
        35        2.0000           -0.4597014             -12.5091
        36        2.0000           -0.4307007             -11.7200
        37        2.0000           -0.4292677             -11.6810
        38        2.0000           -0.4243826             -11.5480
        39        2.0000           -0.4226283             -11.5003
        40        2.0000           -0.4190869             -11.4039
        41        2.0000           -0.4123899             -11.2217
        42        2.0000           -0.4104273             -11.1683
        43        2.0000           -0.4095665             -11.1449
        44        2.0000           -0.3968953             -10.8001
        45        2.0000           -0.3946200             -10.7382
        46        2.0000           -0.3773712             -10.2688
        47        2.0000           -0.3703480             -10.0777 (HOMO)
        48                         -0.2493460              -6.7851 (LUMO)
        49                         -0.2381928              -6.4816
        50                         -0.2178271              -5.9274
        51                         -0.2160708              -5.8796
        52                         -0.1961319              -5.3370
        53                         -0.1737722              -4.7286
        54                         -0.1101344              -2.9969
        55                         -0.0753549              -2.0505
        56                         -0.0450616              -1.2262
        57                          0.0785710               2.1380
        58                          0.0903526               2.4586
       ...                                ...                  ...
        94                          0.7541936              20.5227
      -------------------------------------------------------------
                  HL-Gap            0.1210019 Eh            3.2926 eV

     #   Z          covCN         q      C6AA      α(0)
     1   6 C        2.922    -0.033    28.833     8.806
     2   6 C        2.921    -0.034    28.846     8.808
     3   6 C        2.914    -0.034    28.858     8.809
     4   6 C        3.040     0.000    27.990     8.677
     5   6 C        3.050     0.004    27.885     8.661
     6   6 C        2.914    -0.039    28.967     8.826
     7   6 C        3.844    -0.062    21.667     6.621
     8   6 C        3.043    -0.000    27.990     8.677
     9   6 C        3.038    -0.005    28.111     8.696
    10   6 C        2.916    -0.037    28.928     8.820
    11   6 C        2.915    -0.043    29.079     8.843
    12   6 C        3.048     0.002    27.936     8.669
    13   6 C        3.032    -0.010    28.231     8.715
    14   6 C        3.036     0.000    27.986     8.677
    15   6 C        2.914    -0.036    28.906     8.816
    16   6 C        2.921    -0.034    28.858     8.809
    17   6 C        2.922    -0.033    28.826     8.805
    18   6 C        2.914    -0.039    28.967     8.826
    19   6 C        3.050     0.005    27.856     8.656
    20   6 C        3.844    -0.066    21.735     6.632
    21   1 H        0.926     0.028     2.618     2.530
    22   1 H        0.926     0.027     2.623     2.533
    23   1 H        0.926     0.029     2.606     2.525
    24   1 H        0.926     0.026     2.646     2.544
    25   1 H        0.924     0.055     2.259     2.350
    26   1 H        0.924     0.055     2.259     2.350
    27   1 H        0.926     0.030     2.586     2.515
    28   1 H        0.926     0.027     2.635     2.539
    29   1 H        0.926     0.029     2.596     2.520
    30   1 H        0.926     0.027     2.628     2.535
    31   1 H        0.926     0.028     2.616     2.529
    32   1 H        0.926     0.026     2.641     2.541
    33   1 H        0.924     0.055     2.261     2.351
    34   1 H        0.924     0.055     2.261     2.352

molecular dipole:
                 x           y           z       tot (Debye)
 q only:        0.221      -0.023      -0.000
   full:        0.268      -0.029      -0.000       0.686

 projected vibrational frequencies (cm⁻¹)
eigval :       -0.00    -0.00     0.00     0.00     0.00     0.00
eigval :       50.39    70.59   112.21   118.73   134.81   219.54
eigval :      232.60   235.94   273.06   314.94   322.72   394.49
eigval :      401.68   425.75   445.63   451.79   459.00   507.56
eigval :      536.25   547.96   555.09   589.35   600.04   616.46
eigval :      646.29   687.72   697.31   701.38   755.95   768.49
eigval :      773.21   823.40   831.75   834.33   845.49   876.64
eigval :      878.46   900.33   903.55   907.85   917.73   921.12
eigval :      927.68   928.91   995.91   998.69  1077.49  1080.05
eigval :     1083.65  1087.24  1091.87  1131.78  1146.16  1175.60
eigval :     1180.94  1182.19  1187.70  1194.40  1210.90  1215.31
eigval :     1247.42  1258.63  1275.26  1276.82  1290.93  1341.13
eigval :     1349.62  1389.51  1408.88  1424.29  1426.52  1431.91
eigval :     1452.37  1455.44  1467.92  1474.16  1587.44  1590.86
eigval :     1598.80  1607.42  1608.49  1616.70  2942.95  2943.91
eigval :     2966.10  2969.02  3069.16  3070.10  3072.82  3073.68
eigval :     3075.08  3082.08  3087.16  3088.46  3090.85  3099.09

   temp. (K)  partition function   enthalpy   heat capacity  entropy
                                   cal/mol     cal/K/mol   cal/K/mol   J/K/mol
 298.15  VIB  0.830E+04             7215.766     54.358     41.289
         ROT  0.487E+07              888.752      2.981     33.582
         INT  0.404E+11             8104.518     57.339     74.871
         TR   0.392E+28             1481.254      4.968     42.481
         TOT                        9585.7723    62.3068   117.3518   490.9999

       T/K    H(0)-H(T)+PV         H(T)/Eh          T*S/Eh         G(T)/Eh
   ------------------------------------------------------------------------
    298.15    0.152759E-01    0.282721E+00    0.557576E-01    0.226964E+00
   ------------------------------------------------------------------------

         :::::::::::::::::::::::::::::::::::::::::::::::::::::
         ::                  THERMODYNAMIC                  ::
         :::::::::::::::::::::::::::::::::::::::::::::::::::::
         :: total free energy         -49.761396806265 Eh   ::
         ::.................................................::
         :: total energy              -49.988360669866 Eh   ::
         :: zero point energy           0.267445587693 Eh   ::
         :: G(RRHO) w/o ZPVE           -0.040481724092 Eh   ::
         :: G(RRHO) contrib.            0.226963863600 Eh   ::
         :::::::::::::::::::::::::::::::::::::::::::::::::::::

           -------------------------------------------------
          | TOTAL ENERGY              -49.988360669866 Eh   |
          | TOTAL ENTHALPY            -49.705639181707 Eh   |
          | TOTAL FREE ENERGY         -49.761396806265 Eh   |
          | GRADIENT NORM               0.000178811141 Eh/α |
          | HOMO-LUMO GAP               3.292629845273 eV   |
           -------------------------------------------------

 * finished run on 2025/09/05 at 11:54:33.079
