   * xtb version 6.7.1 (edcfbbe) compiled by 'albert@albert-system' on 2024-07-22

   ID    Z sym.   atoms
    1    6 C      1, 2, 4-7, 9-11, 13-25, 27-40, 42-46, 48
    2    7 N      3, 8, 12, 26, 41, 47
    3    1 H      49-72

          program call               : xtb data2507/toluene/DCz-DPPZ/DCz-DPPZ_toluene_S0_crest.xyz --gfn 2 --gbsa toluene --ohess vtight --parallel 40 --molden --ceasefiles --namespace data2507/toluene/DCz-DPPZ/DCz-DPPZ_toluene_S0_finalOpt
      * Solvation model:               GBSA
        Solvent                        toluene
        Solvent mass                       9.2140E+01 g/mol
          :  Hamiltonian                  GFN2-xTB          :
 * total energy  :  -119.8713337 Eh     change       -0.8360672E-09 Eh
 * total energy  :  -119.8714041 Eh     change       -0.7039240E-04 Eh
 * total energy  :  -119.8714668 Eh     change       -0.6272067E-04 Eh
 * total energy  :  -119.8715181 Eh     change       -0.5128700E-04 Eh
 * total energy  :  -119.8715512 Eh     change       -0.3301449E-04 Eh
 * total energy  :  -119.8715902 Eh     change       -0.3900278E-04 Eh
 * total energy  :  -119.8716405 Eh     change       -0.5039056E-04 Eh
 * total energy  :  -119.8716788 Eh     change       -0.3821148E-04 Eh
 * total energy  :  -119.8717206 Eh     change       -0.4186762E-04 Eh
 * total energy  :  -119.8717762 Eh     change       -0.5553249E-04 Eh
 * total energy  :  -119.8720779 Eh     change       -0.1571844E-05 Eh
 * total energy  :  -119.8720791 Eh     change       -0.1222261E-05 Eh
 * total energy  :  -119.8720804 Eh     change       -0.1282252E-05 Eh
 * total energy  :  -119.8720810 Eh     change       -0.6360108E-06 Eh
 * total energy  :  -119.8720812 Eh     change       -0.1662046E-06 Eh
 * total energy  :  -119.8720811 Eh     change        0.3872908E-07 Eh
 * total energy  :  -119.8720813 Eh     change       -0.1240632E-06 Eh
 * total energy  :  -119.8720812 Eh     change        0.1786425E-07 Eh
 * total energy  :  -119.8720813 Eh     change       -0.8369338E-07 Eh
   *** GEOMETRY OPTIMIZATION CONVERGED AFTER 33 ITERATIONS ***

 final structure:
================
72
 xtb: 6.7.1 (edcfbbe)
C            6.38121596515553       -3.23233606531834       -1.21548643695608
C            7.52895719725956       -2.48401118166175       -0.94897861886833
N            7.50715613951369       -1.25222948593167       -0.49398106853220
C            6.33015695693695       -0.66849277642890       -0.26829018657140
C            5.11010053539485       -1.33353652674331       -0.50325720506994
C            5.15576008452738       -2.64571169709040       -0.98778179241609
C            3.85412187262802       -0.66618154679128       -0.24768092762386
N            2.72590130977489       -1.31841622607062       -0.46651513632917
C            1.57395124346054       -0.67504131833083       -0.23051747911681
C            0.34672299583371       -1.32261429283728       -0.46618195795659
C           -0.84422966110489       -0.67640836558842       -0.24550280440864
N           -2.04994687785982       -1.32705719056150       -0.51138528951546
C           -2.44265851008224       -2.54343796312767        0.02594220603361
C           -1.74530835523765       -3.40865181827443        0.85519976055355
C           -2.39359529988253       -4.55159575747161        1.28639101665977
C           -3.70561318294555       -4.82789594210005        0.91021699182082
C           -4.40919159387158       -3.96061004833906        0.09730844848582
C           -3.77817630068020       -2.80715350198804       -0.34909523976636
C           -4.19951817317881       -1.70764010422006       -1.17407653476933
C           -5.37665856917012       -1.41676984847060       -1.84985749772991
C           -5.43448565692307       -0.26663645397265       -2.61294381299511
C           -4.32851265978024        0.57077439079877       -2.73155913318325
C           -3.14646252850165        0.30048575189843       -2.06796451611525
C           -3.10259142789185       -0.82290919415579       -1.25704929671102
C           -0.84600347978828        0.66646566903669        0.25995557158533
N           -2.05293137885467        1.31369197475689        0.52843927781295
C           -3.10333407815399        0.80785447570933        1.27612458698064
C           -3.14428106557157       -0.31595463823607        2.08662006411766
C           -4.32466659427314       -0.58793244649969        2.75250382650349
C           -5.43184640573775        0.24824302388878        2.63662119296748
C           -5.37687231540352        1.39885598756717        1.87405589434626
C           -4.20148437610817        1.69136190124101        1.19596149323190
C           -3.78326309222751        2.79187265475763        0.37072763870636
C           -4.41649215218187        3.94503276766779       -0.07332229544952
C           -3.71568910806800        4.81368630931399       -0.88715983623023
C           -2.40435004798985        4.53891065384291       -1.26675820948630
C           -1.75393035698072        3.39630591545861       -0.83794992369606
C           -2.44832637423790        2.52989839604926       -0.00744338585012
C            0.34317237145388        1.31725216035510        0.47655384956515
C            1.57200560040451        0.67531260058132        0.23437246063153
N            2.72198032116430        1.32480936176903        0.46283426184948
C            3.85216429210082        0.67893328425301        0.23564240892810
C            5.10605666496428        1.35394887323895        0.48094643948378
C            5.14757775174747        2.66669411529129        0.96430476344615
C            6.37122589258323        3.26114956165744        1.18108831701748
C            7.52129544199255        2.51970216458981        0.90554061854659
N            7.50335684694841        1.28747027061757        0.45158350587057
C            6.32814823253939        0.69637132772956        0.23594890348881
H            6.45829085799126       -4.24090963328438       -1.58961723199228
H            8.51527170564342       -2.89939378986738       -1.11126201048676
H            4.22674438184041       -3.16380094227059       -1.17136518431845
H            0.36320957104860       -2.32775533136867       -0.85816835599485
H           -0.73180594639542       -3.19834403158757        1.16391480624470
H           -1.87002586829429       -5.24303554244249        1.93008011634414
H           -4.17690401092058       -5.73186634981950        1.26636417683106
H           -5.43026958997717       -4.16810946318598       -0.18408175303892
H           -6.22323920199738       -2.08313108215905       -1.78501420129904
H           -6.34236173870259       -0.01942222523268       -3.14263950343297
H           -4.39010522555648        1.44780921077761       -3.35865347702299
H           -2.28694718513195        0.94165184055940       -2.19155029394314
H           -2.28381284278878       -0.95619632335867        2.20822584052233
H           -4.38391108194860       -1.46525844692611        3.37941578178725
H           -6.33829529683662       -0.00018920122606        3.16818490567430
H           -6.22430097466201        2.06434156445508        1.81133727550001
H           -5.43708845661347        4.15134716943919        0.21067553492049
H           -4.18864613865468        5.71755206718364       -1.24134620316418
H           -1.88297488894275        5.23126046318523       -1.91124949038752
H           -0.74100454152191        3.18727126649029       -1.14940453794535
H            0.35719964299921        2.32231251289331        0.86881622074892
H            4.21691113451048        3.17910230950677        1.15533887826176
H            6.44522869258266        4.27049086801773        1.55376864851506
H            8.50630415343882        2.94129373896182        1.05947386508842

          :  Hamiltonian                  GFN2-xTB          :
         :: gradient norm              0.000038958975 Eh/a0 ::
         :: HOMO-LUMO gap              1.339099853848 eV    ::
         :: SCC energy              -122.036837187668 Eh    ::
         :: -> dispersion             -0.116086108665 Eh    ::
         :: -> Gsolv                  -0.048754606679 Eh    ::
         :: repulsion energy           2.164755863676 Eh    ::

    * Orbital Energies and Occupations

         #    Occupation            Energy/Eh            Energy/eV
      -------------------------------------------------------------
         1        2.0000           -0.6970172             -18.9668
       ...           ...                  ...                  ...
        99        2.0000           -0.4253588             -11.5746
       100        2.0000           -0.4251381             -11.5686
       101        2.0000           -0.4173848             -11.3576
       102        2.0000           -0.4126408             -11.2285
       103        2.0000           -0.4122479             -11.2178
       104        2.0000           -0.4113109             -11.1923
       105        2.0000           -0.3878812             -10.5548
       106        2.0000           -0.3839806             -10.4486
       107        2.0000           -0.3778556             -10.2820
       108        2.0000           -0.3768307             -10.2541
       109        2.0000           -0.3742476             -10.1838
       110        2.0000           -0.3735191             -10.1640
       111        2.0000           -0.3706261             -10.0852 (HOMO)
       112                         -0.3214151              -8.7461 (LUMO)
       113                         -0.2898822              -7.8881
       114                         -0.2826245              -7.6906
       115                         -0.2544146              -6.9230
       116                         -0.2525063              -6.8710
       117                         -0.2479214              -6.7463
       118                         -0.2439650              -6.6386
       119                         -0.2323434              -6.3224
       120                         -0.2260453              -6.1510
       121                         -0.2257370              -6.1426
       122                         -0.2192950              -5.9673
       ...                                ...                  ...
       216                          0.7386151              20.0987
      -------------------------------------------------------------
                  HL-Gap            0.0492110 Eh            1.3391 eV

     #   Z          covCN         q      C6AA      α(0)
     1   6 C        2.912    -0.038    28.933     8.820
     2   6 C        2.905     0.064    26.563     8.451
     3   7 N        1.841    -0.218    26.591     7.642
     4   6 C        2.970     0.085    26.103     8.380
     5   6 C        2.982    -0.017    28.422     8.745
     6   6 C        2.928    -0.012    28.314     8.726
     7   6 C        2.959     0.082    26.176     8.392
     8   7 N        1.848    -0.253    27.440     7.764
     9   6 C        2.964     0.080    26.204     8.397
    10   6 C        2.921    -0.061    29.518     8.910
    11   6 C        2.907     0.059    26.673     8.468
    12   7 N        2.802    -0.044    22.089     6.980
    13   6 C        3.070     0.048    26.855     8.497
    14   6 C        2.910    -0.051    29.257     8.869
    15   6 C        2.924    -0.033    28.815     8.803
    16   6 C        2.920    -0.039    28.975     8.827
    17   6 C        2.913    -0.032    28.801     8.800
    18   6 C        3.067    -0.014    28.300     8.723
    19   6 C        3.066    -0.016    28.335     8.729
    20   6 C        2.913    -0.033    28.819     8.803
    21   6 C        2.920    -0.039    28.971     8.827
    22   6 C        2.924    -0.033    28.813     8.803
    23   6 C        2.910    -0.049    29.206     8.862
    24   6 C        3.071     0.049    26.840     8.495
    25   6 C        2.907     0.059    26.673     8.468
    26   7 N        2.802    -0.044    22.088     6.980
    27   6 C        3.071     0.049    26.840     8.495
    28   6 C        2.910    -0.049    29.206     8.862
    29   6 C        2.924    -0.033    28.813     8.803
    30   6 C        2.920    -0.039    28.971     8.827
    31   6 C        2.913    -0.033    28.819     8.803
    32   6 C        3.066    -0.016    28.334     8.729
    33   6 C        3.067    -0.014    28.300     8.723
    34   6 C        2.913    -0.032    28.801     8.800
    35   6 C        2.920    -0.039    28.975     8.827
    36   6 C        2.924    -0.033    28.815     8.803
    37   6 C        2.910    -0.051    29.257     8.869
    38   6 C        3.070     0.048    26.855     8.497
    39   6 C        2.921    -0.061    29.519     8.910
    40   6 C        2.965     0.080    26.204     8.397
    41   7 N        1.848    -0.253    27.441     7.764
    42   6 C        2.959     0.082    26.176     8.392
    43   6 C        2.982    -0.017    28.422     8.745
    44   6 C        2.928    -0.012    28.314     8.726
    45   6 C        2.912    -0.038    28.933     8.820
    46   6 C        2.905     0.064    26.563     8.451
    47   7 N        1.841    -0.218    26.591     7.642
    48   6 C        2.970     0.085    26.103     8.380
    49   1 H        0.926     0.058     2.223     2.332
    50   1 H        0.925     0.054     2.271     2.356
    51   1 H        0.926     0.065     2.143     2.289
    52   1 H        0.926     0.068     2.112     2.272
    53   1 H        0.926     0.027     2.624     2.533
    54   1 H        0.926     0.036     2.501     2.473
    55   1 H        0.926     0.036     2.505     2.475
    56   1 H        0.926     0.038     2.472     2.458
    57   1 H        0.926     0.038     2.469     2.457
    58   1 H        0.926     0.036     2.505     2.475
    59   1 H        0.926     0.034     2.528     2.486
    60   1 H        0.926     0.023     2.692     2.566
    61   1 H        0.926     0.023     2.691     2.565
    62   1 H        0.926     0.034     2.527     2.486
    63   1 H        0.926     0.036     2.504     2.475
    64   1 H        0.926     0.038     2.469     2.457
    65   1 H        0.926     0.038     2.471     2.458
    66   1 H        0.926     0.036     2.505     2.475
    67   1 H        0.926     0.036     2.501     2.473
    68   1 H        0.926     0.027     2.624     2.533
    69   1 H        0.926     0.068     2.112     2.272
    70   1 H        0.926     0.065     2.143     2.289
    71   1 H        0.926     0.058     2.223     2.332
    72   1 H        0.925     0.054     2.271     2.356

molecular dipole:
                 x           y           z       tot (Debye)
 q only:       -0.848      -0.001       0.002
   full:       -1.258      -0.003       0.004       3.197

 projected vibrational frequencies (cm⁻¹)
eigval :       -0.00    -0.00     0.00     0.00     0.00     0.00
eigval :       16.10    24.79    26.07    38.14    38.95    50.53
eigval :       63.90    72.82    84.67    99.10   100.59   111.99
eigval :      120.77   128.68   139.09   146.30   150.84   155.70
eigval :      163.13   188.82   208.19   231.71   234.35   257.81
eigval :      260.73   275.63   277.36   286.91   314.11   316.62
eigval :      357.56   362.24   380.55   395.40   401.31   401.87
eigval :      410.67   417.38   422.20   430.39   434.56   438.97
eigval :      442.28   445.28   450.64   489.27   516.82   518.28
eigval :      526.12   529.54   530.90   542.32   543.07   544.48
eigval :      555.85   575.01   582.15   587.88   588.79   595.59
eigval :      598.53   601.45   626.68   667.04   669.68   672.84
eigval :      677.31   689.34   696.92   707.18   707.79   708.74
eigval :      711.99   737.81   747.41   755.83   756.16   773.39
eigval :      773.91   774.50   785.26   785.49   787.10   794.79
eigval :      810.81   848.18   855.47   863.60   871.50   877.61
eigval :      878.26   880.60   889.33   894.86   898.42   905.06
eigval :      905.33   907.67   908.16   916.36   916.95   925.83
eigval :      926.20   927.42   927.87   928.17   928.47   952.23
eigval :      960.52  1011.86  1012.60  1047.25  1068.83  1069.94
eigval :     1070.13  1073.00  1074.66  1083.02  1091.02  1102.22
eigval :     1109.36  1134.52  1135.15  1151.13  1151.37  1163.08
eigval :     1171.54  1179.17  1180.25  1180.44  1182.03  1187.12
eigval :     1195.17  1215.77  1228.89  1233.19  1234.08  1235.83
eigval :     1250.08  1271.58  1272.64  1282.85  1293.22  1295.55
eigval :     1295.92  1296.84  1304.99  1312.13  1315.76  1343.23
eigval :     1344.59  1355.83  1356.37  1359.38  1359.65  1377.29
eigval :     1386.42  1399.73  1416.28  1418.05  1425.72  1426.11
eigval :     1434.82  1441.07  1449.80  1463.65  1465.20  1472.78
eigval :     1473.80  1485.27  1485.56  1493.00  1518.12  1539.76
eigval :     1549.25  1559.76  1572.90  1574.30  1575.86  1580.87
eigval :     1590.02  1590.16  1597.79  1598.56  1611.61  1612.31
eigval :     3056.34  3056.75  3074.68  3074.78  3078.13  3078.20
eigval :     3080.40  3080.57  3082.86  3083.20  3087.11  3087.43
eigval :     3089.83  3090.14  3091.75  3091.83  3095.80  3096.09
eigval :     3098.22  3098.43  3102.38  3102.75  3103.01  3103.44

   temp. (K)  partition function   enthalpy   heat capacity  entropy
                                   cal/mol     cal/K/mol   cal/K/mol   J/K/mol
 298.15  VIB  0.639E+14            20006.981    133.306    120.737
         ROT  0.341E+08              888.752      2.981     37.449
         INT  0.218E+22            20895.733    136.287    158.186
         TR   0.147E+29             1481.254      4.968     45.101
         TOT                       22376.9870   141.2549   203.2869   850.5523

       T/K    H(0)-H(T)+PV         H(T)/Eh          T*S/Eh         G(T)/Eh
   ------------------------------------------------------------------------
    298.15    0.356600E-01    0.570271E+00    0.965882E-01    0.473682E+00
   ------------------------------------------------------------------------

         :::::::::::::::::::::::::::::::::::::::::::::::::::::
         ::                  THERMODYNAMIC                  ::
         :::::::::::::::::::::::::::::::::::::::::::::::::::::
         :: total free energy        -119.398398853563 Eh   ::
         ::.................................................::
         :: total energy             -119.872081322745 Eh   ::
         :: zero point energy           0.534610628621 Eh   ::
         :: G(RRHO) w/o ZPVE           -0.060928159439 Eh   ::
         :: G(RRHO) contrib.            0.473682469182 Eh   ::
         :::::::::::::::::::::::::::::::::::::::::::::::::::::

           -------------------------------------------------
          | TOTAL ENERGY             -119.872081322745 Eh   |
          | TOTAL ENTHALPY           -119.301810695556 Eh   |
          | TOTAL FREE ENERGY        -119.398398853563 Eh   |
          | GRADIENT NORM               0.000038940558 Eh/α |
          | HOMO-LUMO GAP               1.339099679866 eV   |
           -------------------------------------------------

 * finished run on 2025/08/22 at 14:03:25.123
