   * xtb version 6.7.1 (edcfbbe) compiled by 'albert@albert-system' on 2024-07-22

   ID    Z sym.   atoms
    1    6 C      1, 2, 4-7, 9-11, 13-25, 27-40, 42-46, 48
    2    7 N      3, 8, 12, 26, 41, 47
    3    1 H      49-72

          program call               : xtb data2507/toluene/DCz-DPPZ/DCz-DPPZ.xyz --gfn 2 --gbsa toluene --ohess vtight --parallel 40 --molden --ceasefiles --namespace data2507/toluene/DCz-DPPZ/DCz-DPPZ_toluene_S0_preOpt
      * Solvation model:               GBSA
        Solvent                        toluene
        Solvent mass                       9.2140E+01 g/mol
          :  Hamiltonian                  GFN2-xTB          :
 * total energy  :  -119.8400617 Eh     change       -0.7819096E-09 Eh
 * total energy  :  -119.8630598 Eh     change       -0.2299805E-01 Eh
 * total energy  :  -119.8687028 Eh     change       -0.5643025E-02 Eh
 * total energy  :  -119.8697625 Eh     change       -0.1059768E-02 Eh
 * total energy  :  -119.8703675 Eh     change       -0.6049813E-03 Eh
 * total energy  :  -119.8705110 Eh     change       -0.1434388E-03 Eh
 * total energy  :  -119.8705967 Eh     change       -0.8569778E-04 Eh
 * total energy  :  -119.8706579 Eh     change       -0.6121469E-04 Eh
 * total energy  :  -119.8707105 Eh     change       -0.5264331E-04 Eh
 * total energy  :  -119.8707592 Eh     change       -0.4870945E-04 Eh
 * total energy  :  -119.8720412 Eh     change       -0.1109764E-05 Eh
 * total energy  :  -119.8720414 Eh     change       -0.2303988E-06 Eh
 * total energy  :  -119.8720415 Eh     change       -0.1039963E-06 Eh
 * total energy  :  -119.8720417 Eh     change       -0.1512535E-06 Eh
 * total energy  :  -119.8720418 Eh     change       -0.1616518E-06 Eh
 * total energy  :  -119.8720420 Eh     change       -0.1366669E-06 Eh
 * total energy  :  -119.8720421 Eh     change       -0.1223091E-06 Eh
 * total energy  :  -119.8720422 Eh     change       -0.1001564E-06 Eh
 * total energy  :  -119.8720423 Eh     change       -0.7650445E-07 Eh
   *** GEOMETRY OPTIMIZATION CONVERGED AFTER 58 ITERATIONS ***

 final structure:
================
72
 xtb: 6.7.1 (edcfbbe)
C            6.72221741438405       -3.30294367821974       -1.03359849859874
C            7.87120256363206       -2.54659202418127       -0.79670866753587
N            7.85136453032758       -1.29312886261305       -0.40526517988461
C            6.67529639222956       -0.69431959098757       -0.21743431035469
C            5.45415858048849       -1.36566085393170       -0.42731234745912
C            5.49773782925956       -2.70059501337256       -0.84531465060085
C            4.19916342965640       -0.68244066591868       -0.21187658657784
N            3.06991011990818       -1.33923591928528       -0.41084345619646
C            1.91901746867283       -0.68318987060504       -0.20700303715100
C            0.69094768000732       -1.33500980452270       -0.42547506517045
C           -0.49927375651152       -0.67930617277418       -0.23019283915331
N           -1.70526512038287       -1.33662165098954       -0.47741540984584
C           -2.09913223862794       -2.53598940665978        0.09662382602288
C           -1.40191209680989       -3.37815079705430        0.94943192348370
C           -2.05123210219774       -4.50701331138641        1.41480234487081
C           -3.36414384144143       -4.79232839440398        1.04872396005378
C           -4.06785215721023       -3.94740826246191        0.21271248712790
C           -3.43592078671745       -2.80819470974680       -0.26767469917226
C           -3.85726522054264       -1.73260376044672       -1.12355615272478
C           -5.03614530507617       -1.45893005088022       -1.80342197839742
C           -5.09412088302158       -0.33147436449655       -2.59959478575142
C           -3.98661896465503        0.49930530786102       -2.74672639164232
C           -2.80290705475555        0.24587367874337       -2.07944910636093
C           -2.75877800947968       -0.85303239600936       -1.23561129092873
C           -0.49920174511944        0.67961074998655        0.23097803486610
N           -1.70514862014218        1.33705169971737        0.47817457939192
C           -2.75864607082356        0.85364230712809        1.23648080243178
C           -2.80274501062958       -0.24508817602070        2.08054981367498
C           -3.98641696929555       -0.49832318287205        2.74797847421711
C           -5.09389571561025        0.33247061646878        2.60073696292622
C           -5.03602489200480        1.45961653424392        1.80411590181175
C           -3.85721437593333        1.73306934997007        1.12403888728847
C           -3.43605250476831        2.80818943008361        0.26746660919824
C           -4.06827073381593        3.94677399991277       -0.21404265286346
C           -3.36480636688576        4.79101773086195       -1.05094382561143
C           -2.05177559619472        4.50576360249372       -1.41665552500777
C           -1.40212999179357        3.37759464447201       -0.95008386799337
C           -2.09920072764843        2.53599598197030       -0.09659515767509
C            0.69105323243705        1.33525079869343        0.42623037414595
C            1.91908586865093        0.68336552768414        0.20770783861929
N            3.07004189234048        1.33933905702452        0.41141854927635
C            4.19923522005247        0.68248193135083        0.21229069911225
C            5.45431638245832        1.36561733135486        0.42751726599889
C            5.49806955042552        2.70060647851354        0.84533288739768
C            6.72262450947020        3.30286496857333        1.03340510995180
C            7.87151614619474        2.54636079703988        0.79653663086942
N            7.85151751624271        1.29285141582677        0.40526470725682
C            6.67537508141694        0.69414443685086        0.21758093284572
H            6.79764304670785       -4.32989059353358       -1.35429367018420
H            8.85688693199932       -2.97369828168353       -0.92986196331550
H            4.56782110465391       -3.22357638406787       -1.00941286842983
H            0.70638771142141       -2.35276719858322       -0.78339944738264
H           -0.38774273491397       -3.16103523724250        1.25095354737607
H           -1.52754406837487       -5.17998841396269        2.07764695590032
H           -3.83605665963817       -5.68502584329781        1.43145689733376
H           -5.08969762207629       -4.16137043758208       -0.06091161585408
H           -5.88421093150185       -2.12076241622632       -1.71578252588335
H           -6.00341788737333       -0.09750999043503       -3.13284288825392
H           -4.04840303101864        1.35767419526459       -3.39910724441775
H           -1.94245683874469        0.88117564195144       -2.22504179287825
H           -1.94230389991206       -0.88040733239468        2.22616670606924
H           -4.04817228505046       -1.35654541873684        3.40056069481004
H           -6.00312626736932        0.09872735644841        3.13419503552303
H           -5.88413910756341        2.12135738706400        1.71626450161545
H           -5.09020333439272        4.16070210847656        0.05928320403103
H           -3.83703034360566        5.68309645316416       -1.43473341204991
H           -1.52830201791976        5.17815880596386       -2.08025683157887
H           -0.38787973341546        3.16045640549312       -1.25132477144919
H            0.70653576801980        2.35303230581935        0.78409322883168
H            4.56822035683832        3.22371221067152        1.00941439710079
H            6.79818029901964        4.32985127838352        1.35394965105904
H            8.85725499404522        2.97335494206200        0.92968009184842

          :  Hamiltonian                  GFN2-xTB          :
         :: gradient norm              0.000046569474 Eh/a0 ::
         :: HOMO-LUMO gap              1.339763603586 eV    ::
         :: SCC energy              -122.036752951715 Eh    ::
         :: -> dispersion             -0.116209249035 Eh    ::
         :: -> Gsolv                  -0.048671591146 Eh    ::
         :: repulsion energy           2.164710665719 Eh    ::

    * Orbital Energies and Occupations

         #    Occupation            Energy/Eh            Energy/eV
      -------------------------------------------------------------
         1        2.0000           -0.6969494             -18.9650
       ...           ...                  ...                  ...
        99        2.0000           -0.4253556             -11.5745
       100        2.0000           -0.4251616             -11.5692
       101        2.0000           -0.4173396             -11.3564
       102        2.0000           -0.4126047             -11.2275
       103        2.0000           -0.4122232             -11.2172
       104        2.0000           -0.4113429             -11.1932
       105        2.0000           -0.3879368             -10.5563
       106        2.0000           -0.3839492             -10.4478
       107        2.0000           -0.3778201             -10.2810
       108        2.0000           -0.3768037             -10.2534
       109        2.0000           -0.3742496             -10.1839
       110        2.0000           -0.3735507             -10.1648
       111        2.0000           -0.3705868             -10.0842 (HOMO)
       112                         -0.3213514              -8.7444 (LUMO)
       113                         -0.2898358              -7.8868
       114                         -0.2825875              -7.6896
       115                         -0.2544560              -6.9241
       116                         -0.2525224              -6.8715
       117                         -0.2478655              -6.7448
       118                         -0.2439103              -6.6371
       119                         -0.2324041              -6.3240
       120                         -0.2260019              -6.1498
       121                         -0.2257088              -6.1418
       122                         -0.2192659              -5.9665
       ...                                ...                  ...
       216                          0.7385978              20.0983
      -------------------------------------------------------------
                  HL-Gap            0.0492354 Eh            1.3398 eV

     #   Z          covCN         q      C6AA      α(0)
     1   6 C        2.912    -0.038    28.934     8.820
     2   6 C        2.905     0.064    26.564     8.451
     3   7 N        1.841    -0.218    26.592     7.642
     4   6 C        2.970     0.085    26.103     8.380
     5   6 C        2.982    -0.017    28.422     8.745
     6   6 C        2.928    -0.012    28.314     8.726
     7   6 C        2.959     0.082    26.177     8.392
     8   7 N        1.848    -0.253    27.442     7.764
     9   6 C        2.965     0.080    26.204     8.397
    10   6 C        2.921    -0.061    29.522     8.910
    11   6 C        2.907     0.059    26.673     8.469
    12   7 N        2.801    -0.044    22.088     6.980
    13   6 C        3.070     0.048    26.855     8.497
    14   6 C        2.910    -0.051    29.258     8.870
    15   6 C        2.924    -0.033    28.815     8.803
    16   6 C        2.920    -0.039    28.974     8.827
    17   6 C        2.913    -0.032    28.801     8.800
    18   6 C        3.067    -0.014    28.299     8.723
    19   6 C        3.066    -0.016    28.334     8.728
    20   6 C        2.913    -0.033    28.819     8.803
    21   6 C        2.920    -0.039    28.971     8.826
    22   6 C        2.924    -0.033    28.813     8.803
    23   6 C        2.910    -0.049    29.205     8.861
    24   6 C        3.071     0.049    26.840     8.495
    25   6 C        2.907     0.059    26.674     8.469
    26   7 N        2.801    -0.044    22.088     6.980
    27   6 C        3.071     0.049    26.840     8.495
    28   6 C        2.910    -0.049    29.205     8.861
    29   6 C        2.924    -0.033    28.813     8.803
    30   6 C        2.920    -0.039    28.971     8.826
    31   6 C        2.913    -0.033    28.819     8.803
    32   6 C        3.066    -0.016    28.334     8.728
    33   6 C        3.067    -0.014    28.299     8.723
    34   6 C        2.913    -0.032    28.801     8.800
    35   6 C        2.920    -0.039    28.974     8.827
    36   6 C        2.924    -0.033    28.815     8.803
    37   6 C        2.910    -0.051    29.258     8.870
    38   6 C        3.070     0.048    26.855     8.497
    39   6 C        2.921    -0.061    29.521     8.910
    40   6 C        2.965     0.080    26.204     8.397
    41   7 N        1.848    -0.253    27.442     7.764
    42   6 C        2.959     0.082    26.177     8.392
    43   6 C        2.982    -0.017    28.422     8.745
    44   6 C        2.928    -0.012    28.314     8.726
    45   6 C        2.912    -0.038    28.934     8.820
    46   6 C        2.905     0.064    26.564     8.451
    47   7 N        1.841    -0.218    26.592     7.642
    48   6 C        2.970     0.085    26.103     8.380
    49   1 H        0.926     0.058     2.223     2.332
    50   1 H        0.925     0.054     2.271     2.357
    51   1 H        0.926     0.065     2.143     2.289
    52   1 H        0.926     0.068     2.112     2.273
    53   1 H        0.926     0.028     2.622     2.532
    54   1 H        0.926     0.036     2.501     2.473
    55   1 H        0.926     0.036     2.504     2.475
    56   1 H        0.926     0.038     2.471     2.458
    57   1 H        0.926     0.039     2.468     2.457
    58   1 H        0.926     0.036     2.504     2.475
    59   1 H        0.926     0.034     2.527     2.486
    60   1 H        0.926     0.023     2.692     2.566
    61   1 H        0.926     0.023     2.692     2.566
    62   1 H        0.926     0.034     2.527     2.486
    63   1 H        0.926     0.036     2.504     2.475
    64   1 H        0.926     0.039     2.468     2.457
    65   1 H        0.926     0.038     2.471     2.458
    66   1 H        0.926     0.036     2.504     2.475
    67   1 H        0.926     0.036     2.501     2.473
    68   1 H        0.926     0.028     2.622     2.532
    69   1 H        0.926     0.068     2.112     2.273
    70   1 H        0.926     0.065     2.143     2.289
    71   1 H        0.926     0.058     2.223     2.332
    72   1 H        0.925     0.054     2.271     2.357

molecular dipole:
                 x           y           z       tot (Debye)
 q only:       -0.859      -0.000      -0.000
   full:       -1.269      -0.000      -0.000       3.225

 projected vibrational frequencies (cm⁻¹)
eigval :       -0.00    -0.00    -0.00    -0.00     0.00     0.00
eigval :       13.76    21.95    24.30    37.88    38.19    51.11
eigval :       62.89    69.77    85.94    97.28    97.54   110.50
eigval :      121.29   128.54   139.08   146.21   151.28   154.43
eigval :      163.37   187.51   207.76   231.76   234.13   257.43
eigval :      260.48   275.98   276.69   286.21   314.32   316.97
eigval :      357.73   360.90   380.15   395.20   400.00   400.36
eigval :      409.56   416.82   421.62   429.34   434.31   438.34
eigval :      441.18   445.23   449.00   488.36   516.59   518.21
eigval :      525.71   527.78   530.47   541.67   542.73   544.66
eigval :      555.83   574.49   582.07   587.94   588.83   595.48
eigval :      598.36   601.29   626.76   665.73   669.63   672.70
eigval :      677.29   688.84   696.49   706.84   707.77   708.70
eigval :      711.78   737.65   746.27   755.78   756.07   770.58
eigval :      771.34   772.43   782.68   782.88   786.91   798.47
eigval :      814.25   845.90   847.91   863.44   865.90   872.63
eigval :      873.00   878.15   882.49   894.39   897.67   903.44
eigval :      903.49   907.20   907.70   917.68   917.90   923.92
eigval :      924.22   925.17   925.39   931.25   931.35   952.30
eigval :      960.60  1011.62  1012.36  1047.21  1067.99  1068.55
eigval :     1069.55  1073.06  1074.59  1082.86  1091.14  1102.27
eigval :     1109.39  1133.20  1133.86  1150.41  1150.63  1163.26
eigval :     1171.86  1178.75  1179.99  1180.04  1181.86  1186.02
eigval :     1195.51  1215.79  1227.85  1232.72  1233.08  1235.46
eigval :     1249.62  1271.27  1272.55  1282.42  1293.08  1295.38
eigval :     1295.53  1296.40  1304.85  1312.07  1315.72  1342.90
eigval :     1344.33  1355.91  1356.51  1359.15  1359.51  1377.26
eigval :     1386.39  1399.54  1415.85  1417.62  1425.42  1425.72
eigval :     1434.60  1440.85  1449.52  1463.41  1464.82  1472.79
eigval :     1473.73  1485.34  1485.63  1492.92  1517.94  1539.68
eigval :     1549.16  1559.78  1572.90  1574.26  1575.87  1580.69
eigval :     1590.00  1590.13  1597.80  1598.55  1611.59  1612.25
eigval :     3055.84  3056.04  3075.15  3075.22  3078.09  3078.17
eigval :     3080.71  3080.96  3082.62  3083.03  3087.26  3087.69
eigval :     3089.51  3089.92  3092.36  3092.37  3095.88  3096.19
eigval :     3098.30  3098.50  3102.64  3103.03  3103.36  3103.78

   temp. (K)  partition function   enthalpy   heat capacity  entropy
                                   cal/mol     cal/K/mol   cal/K/mol   J/K/mol
 298.15  VIB  0.101E+15            20049.587    133.346    121.280
         ROT  0.341E+08              888.752      2.981     37.448
         INT  0.344E+22            20938.339    136.327    158.728
         TR   0.147E+29             1481.254      4.968     45.101
         TOT                       22419.5929   141.2952   203.8291   852.8208

       T/K    H(0)-H(T)+PV         H(T)/Eh          T*S/Eh         G(T)/Eh
   ------------------------------------------------------------------------
    298.15    0.357279E-01    0.570100E+00    0.968458E-01    0.473255E+00
   ------------------------------------------------------------------------

         :::::::::::::::::::::::::::::::::::::::::::::::::::::
         ::                  THERMODYNAMIC                  ::
         :::::::::::::::::::::::::::::::::::::::::::::::::::::
         :: total free energy        -119.398787751657 Eh   ::
         ::.................................................::
         :: total energy             -119.872042283395 Eh   ::
         :: zero point energy           0.534372403092 Eh   ::
         :: G(RRHO) w/o ZPVE           -0.061117871354 Eh   ::
         :: G(RRHO) contrib.            0.473254531737 Eh   ::
         :::::::::::::::::::::::::::::::::::::::::::::::::::::

           -------------------------------------------------
          | TOTAL ENERGY             -119.872042283395 Eh   |
          | TOTAL ENTHALPY           -119.301941984891 Eh   |
          | TOTAL FREE ENERGY        -119.398787751657 Eh   |
          | GRADIENT NORM               0.000046566367 Eh/α |
          | HOMO-LUMO GAP               1.339762755586 eV   |
           -------------------------------------------------

 * finished run on 2025/08/22 at 14:00:27.804
