   * xtb version 6.7.1 (edcfbbe) compiled by 'albert@albert-system' on 2024-07-22

   ID    Z sym.   atoms
    1    6 C      1, 2, 4-7, 9-11, 13-25, 27-40, 42-46, 48
    2    7 N      3, 8, 12, 26, 41, 47
    3    1 H      49-72

          program call               : xtb data2507/toluene/DCz-DPPZ/DCz-DPPZ_toluene_T1_crest.xyz --gfn 2 --uhf 2 --gbsa toluene --ohess vtight --parallel 40 --molden --ceasefiles --namespace data2507/toluene/DCz-DPPZ/DCz-DPPZ_toluene_T1_finalOpt
      * Solvation model:               GBSA
        Solvent                        toluene
        Solvent mass                       9.2140E+01 g/mol
          :  Hamiltonian                  GFN2-xTB          :
 * total energy  :  -119.8213937 Eh     change       -0.4907118E-07 Eh
 * total energy  :  -119.8214807 Eh     change       -0.8702388E-04 Eh
 * total energy  :  -119.8215639 Eh     change       -0.8315861E-04 Eh
 * total energy  :  -119.8216073 Eh     change       -0.4339830E-04 Eh
 * total energy  :  -119.8216459 Eh     change       -0.3860303E-04 Eh
 * total energy  :  -119.8216842 Eh     change       -0.3839551E-04 Eh
 * total energy  :  -119.8217337 Eh     change       -0.4948123E-04 Eh
 * total energy  :  -119.8217728 Eh     change       -0.3903410E-04 Eh
 * total energy  :  -119.8218109 Eh     change       -0.3809737E-04 Eh
 * total energy  :  -119.8218543 Eh     change       -0.4343194E-04 Eh
 * total energy  :  -119.8222796 Eh     change       -0.5683156E-06 Eh
 * total energy  :  -119.8222799 Eh     change       -0.3463498E-06 Eh
 * total energy  :  -119.8222802 Eh     change       -0.2766628E-06 Eh
 * total energy  :  -119.8222804 Eh     change       -0.1931988E-06 Eh
 * total energy  :  -119.8222806 Eh     change       -0.1754386E-06 Eh
 * total energy  :  -119.8222808 Eh     change       -0.1837905E-06 Eh
 * total energy  :  -119.8222809 Eh     change       -0.1737826E-06 Eh
 * total energy  :  -119.8222811 Eh     change       -0.1300808E-06 Eh
 * total energy  :  -119.8222811 Eh     change       -0.7533770E-07 Eh
   *** GEOMETRY OPTIMIZATION CONVERGED AFTER 40 ITERATIONS ***

 final structure:
================
72
 xtb: 6.7.1 (edcfbbe)
C            6.38310914308703       -3.20778960310805        1.28372946596929
C            7.54564810142044       -2.47849794393833        0.99595129059908
N            7.53123124158954       -1.26416442743550        0.51008998101218
C            6.36283728109144       -0.66674408666363        0.26833665400133
C            5.12578685638221       -1.31294533781437        0.52144575746250
C            5.16831983999277       -2.61797058770795        1.04276426111175
C            3.88472914307912       -0.66422734229756        0.25816573856717
N            2.72947850847873       -1.28321384942127        0.47652308288548
C            1.56307429285252       -0.67837160493852        0.24767596615518
C            0.34303096953775       -1.30331844009030        0.48546097992925
C           -0.86647455610786       -0.65676052278422        0.25210253836459
N           -2.06886568376222       -1.32664773252628        0.51623961549772
C           -3.11845690186643       -0.84470082463235        1.27300343278399
C           -3.17034453062681        0.27198727281647        2.09461930317802
C           -4.35461387448701        0.52844002223802        2.75927486638502
C           -5.45589071267406       -0.31385050679208        2.62917822543484
C           -5.39254277777973       -1.45488787213856        1.85067058320760
C           -4.21392938239016       -1.73239772689675        1.17368751980808
C           -3.78794902550546       -2.81221494332363        0.32473470057365
C           -4.40746626000534       -3.96287647534823       -0.14176030142969
C           -3.69607369878694       -4.80730938414224       -0.97403784911056
C           -2.38746081169685       -4.51157081282392       -1.34784620462551
C           -1.75010215384633       -3.36990793932143       -0.89780440695035
C           -2.45564472862668       -2.52665994983953       -0.05109809066883
C           -0.86681342841690        0.65677555203443       -0.25267772268596
N           -2.06965274722360        1.32530005158147       -0.51831257986025
C           -2.45892743427445        2.52462434964520        0.04873594079295
C           -1.75573228650286        3.36869356219932        0.89657542541046
C           -2.39539140003847        4.50926378178546        1.34612588724277
C           -3.70395654434045        4.80314651976979        0.97068286617817
C           -4.41296857180855        3.95794690446976        0.13715051691452
C           -3.79113254084763        2.80834322648602       -0.32886706729225
C           -4.21437147869113        1.72813586791484       -1.17870103738370
C           -5.39157035436712        1.44909398583299       -1.85752016638799
C           -5.45212678284134        0.30813484508314       -2.63636994867397
C           -4.34951375178274       -0.53264700201811       -2.76491234080831
C           -3.16662095990128       -0.27466587864704       -2.09841419881000
C           -3.11750982814734        0.84200822328642       -1.27661027041803
C            0.34231654480632        1.30447765211005       -0.48479820556215
C            1.56271355882969        0.68052347033013       -0.24614488847894
N            2.72882055220332        1.28619292248399       -0.47433790338481
C            3.88439514495191        0.66792385400035       -0.25561062653305
C            5.12515678536456        1.31729604525193       -0.51868090226653
C            5.16709791694229        2.62231858609485       -1.04005508448732
C            6.38161686325749        3.21272085871334       -1.28095854518377
C            7.54449258438459        2.48402402947858       -0.99303876336499
N            7.53063095397520        1.26970502667587       -0.50712605228835
C            6.36251445426895        0.67171630943153       -0.26544629194010
H            6.45308798691635       -4.20702269596521        1.68315660179340
H            8.52588184182568       -2.90303588541270        1.16841745968750
H            4.23220212723956       -3.12070446472207        1.23887041354107
H            0.34687412801895       -2.29963022352703        0.89877968027419
H           -2.31398338963178        0.91602750976421        2.22311775426136
H           -4.42290915143148        1.39864999285432        3.39503595325872
H           -6.36603688233003       -0.07757887952477        3.15990049136344
H           -6.23778159431285       -2.12174816337271        1.77464783003021
H           -5.42476195594753       -4.18879456304744        0.13910113046317
H           -4.15962918317963       -5.70863699324160       -1.34657953395515
H           -1.85901544659271       -5.18605080307205       -2.00530117906249
H           -0.73943085926824       -3.14144916172380       -1.20242071831286
H           -0.74510993339510        3.14163772415860        1.20240917136962
H           -1.86883074563811        5.18433240386956        2.00448889170551
H           -4.16939200009838        5.70362609463807        1.34293472962380
H           -5.43022893407201        4.18245129905908       -0.14497458086297
H           -6.23789693147052        2.11470582609270       -1.78263736832702
H           -6.36110975410900        0.07073888252599       -3.16858315972392
H           -4.41565936974792       -1.40286863190313       -3.40088629765314
H           -2.30917359173906       -0.91751986294666       -2.22561774549488
H            0.34562078267986        2.30083459956984       -0.89801554462163
H            4.23075096974170        3.12458991437783       -1.23625285738849
H            6.45114124019242        4.21195712703108       -1.68045600249968
H            8.52453045020899        2.90900344855688       -1.16552680173920

          :  Hamiltonian                  GFN2-xTB          :
         :: gradient norm              0.000034741693 Eh/a0 ::
         :: HOMO-LUMO gap              0.866429998955 eV    ::
         :: SCC energy              -121.989965525689 Eh    ::
         :: -> dispersion             -0.115711386173 Eh    ::
         :: -> Gsolv                  -0.048915510702 Eh    ::
         :: repulsion energy           2.167684381923 Eh    ::

    * Orbital Energies and Occupations

         #    Occupation            Energy/Eh            Energy/eV
      -------------------------------------------------------------
         1        2.0000           -0.6915123             -18.8170
       ...           ...                  ...                  ...
       100        2.0000           -0.4216278             -11.4731
       101        2.0000           -0.4136397             -11.2557
       102        2.0000           -0.4135127             -11.2523
       103        2.0000           -0.4122894             -11.2190
       104        2.0000           -0.4049459             -11.0191
       105        2.0000           -0.3889089             -10.5828
       106        2.0000           -0.3853035             -10.4846
       107        1.9979           -0.3770809             -10.2609
       108        1.9920           -0.3757992             -10.2260
       109        1.9582           -0.3741938             -10.1823
       110        1.8833           -0.3731406             -10.1537
       111        1.1686           -0.3697016             -10.0601
       112        1.0000           -0.3189296              -8.6785 (HOMO)
       113                         -0.2870891              -7.8121 (LUMO)
       114                         -0.2786011              -7.5811
       115                         -0.2541672              -6.9162
       116                         -0.2530205              -6.8850
       117                         -0.2425857              -6.6011
       118                         -0.2396982              -6.5225
       119                         -0.2335686              -6.3557
       120                         -0.2274228              -6.1885
       121                         -0.2177295              -5.9247
       122                         -0.2140404              -5.8243
       123                         -0.2022016              -5.5022
       ...                                ...                  ...
       216                          0.7378261              20.0773
      -------------------------------------------------------------
                  HL-Gap            0.0318405 Eh            0.8664 eV

     #   Z          covCN         q      C6AA      α(0)
     1   6 C        2.911    -0.041    29.026     8.834
     2   6 C        2.902     0.061    26.641     8.463
     3   7 N        1.841    -0.211    26.429     7.619
     4   6 C        2.968     0.078    26.249     8.404
     5   6 C        2.982    -0.018    28.458     8.751
     6   6 C        2.927    -0.013    28.335     8.730
     7   6 C        2.940     0.078    26.268     8.406
     8   7 N        1.849    -0.234    26.985     7.699
     9   6 C        2.940     0.085    26.110     8.380
    10   6 C        2.921    -0.073    29.813     8.954
    11   6 C        2.908     0.046    26.957     8.513
    12   7 N        2.802    -0.037    21.954     6.959
    13   6 C        3.074     0.049    26.831     8.493
    14   6 C        2.910    -0.047    29.165     8.855
    15   6 C        2.924    -0.032    28.805     8.801
    16   6 C        2.920    -0.037    28.929     8.820
    17   6 C        2.913    -0.032    28.793     8.799
    18   6 C        3.067    -0.015    28.327     8.727
    19   6 C        3.067    -0.014    28.302     8.723
    20   6 C        2.912    -0.031    28.774     8.796
    21   6 C        2.920    -0.038    28.935     8.821
    22   6 C        2.923    -0.032    28.807     8.802
    23   6 C        2.909    -0.048    29.196     8.860
    24   6 C        3.074     0.049    26.831     8.493
    25   6 C        2.908     0.046    26.957     8.513
    26   7 N        2.802    -0.037    21.955     6.959
    27   6 C        3.074     0.049    26.831     8.493
    28   6 C        2.909    -0.048    29.196     8.860
    29   6 C        2.923    -0.032    28.807     8.802
    30   6 C        2.920    -0.038    28.936     8.821
    31   6 C        2.912    -0.031    28.774     8.796
    32   6 C        3.067    -0.014    28.302     8.723
    33   6 C        3.067    -0.015    28.327     8.727
    34   6 C        2.913    -0.032    28.793     8.799
    35   6 C        2.920    -0.037    28.929     8.820
    36   6 C        2.924    -0.032    28.805     8.801
    37   6 C        2.910    -0.047    29.165     8.855
    38   6 C        3.075     0.049    26.831     8.493
    39   6 C        2.921    -0.073    29.813     8.954
    40   6 C        2.940     0.085    26.110     8.380
    41   7 N        1.849    -0.234    26.984     7.699
    42   6 C        2.940     0.078    26.268     8.406
    43   6 C        2.982    -0.018    28.458     8.751
    44   6 C        2.927    -0.013    28.335     8.730
    45   6 C        2.911    -0.041    29.026     8.834
    46   6 C        2.902     0.061    26.641     8.463
    47   7 N        1.841    -0.211    26.429     7.619
    48   6 C        2.968     0.078    26.249     8.404
    49   1 H        0.926     0.056     2.246     2.344
    50   1 H        0.925     0.051     2.308     2.376
    51   1 H        0.926     0.058     2.228     2.334
    52   1 H        0.926     0.061     2.185     2.312
    53   1 H        0.926     0.026     2.637     2.540
    54   1 H        0.926     0.036     2.507     2.476
    55   1 H        0.926     0.038     2.481     2.463
    56   1 H        0.926     0.040     2.450     2.448
    57   1 H        0.926     0.040     2.454     2.450
    58   1 H        0.926     0.037     2.485     2.465
    59   1 H        0.926     0.037     2.487     2.466
    60   1 H        0.926     0.030     2.581     2.512
    61   1 H        0.926     0.030     2.581     2.512
    62   1 H        0.926     0.037     2.487     2.466
    63   1 H        0.926     0.037     2.485     2.465
    64   1 H        0.926     0.040     2.454     2.450
    65   1 H        0.926     0.040     2.450     2.448
    66   1 H        0.926     0.038     2.481     2.463
    67   1 H        0.926     0.036     2.507     2.476
    68   1 H        0.926     0.026     2.637     2.540
    69   1 H        0.926     0.061     2.185     2.312
    70   1 H        0.926     0.058     2.228     2.334
    71   1 H        0.926     0.056     2.246     2.344
    72   1 H        0.925     0.051     2.308     2.376

molecular dipole:
                 x           y           z       tot (Debye)
 q only:       -1.553      -0.001      -0.001
   full:       -1.949      -0.001      -0.001       4.953

 projected vibrational frequencies (cm⁻¹)
eigval :       -0.00     0.00     0.00     0.00     0.00     0.00
eigval :       18.94    24.05    25.98    36.88    36.98    49.73
eigval :       63.95    72.38    85.84    97.87   104.79   111.49
eigval :      118.97   127.60   138.38   146.75   148.87   150.82
eigval :      162.48   185.27   208.51   223.40   236.87   242.82
eigval :      259.08   274.14   275.83   285.26   298.01   309.97
eigval :      338.50   360.11   392.08   393.86   399.98   400.06
eigval :      411.16   417.99   423.22   425.52   432.24   433.70
eigval :      439.49   443.23   454.34   487.68   515.36   516.79
eigval :      519.02   520.28   528.82   540.52   540.55   542.41
eigval :      548.54   558.56   567.76   578.85   584.98   586.73
eigval :      590.48   597.36   622.95   632.29   662.71   667.41
eigval :      672.49   677.33   682.01   689.45   693.35   700.53
eigval :      708.16   709.94   715.60   743.31   754.52   755.11
eigval :      770.25   771.07   780.83   782.55   782.66   787.23
eigval :      792.26   806.59   824.54   842.10   857.27   874.72
eigval :      875.30   876.62   876.83   894.72   895.60   903.89
eigval :      903.95   905.30   905.41   906.15   906.22   918.08
eigval :      918.73   919.06   921.78   921.94   927.80   927.95
eigval :      957.58  1010.76  1011.61  1029.81  1054.79  1067.67
eigval :     1068.24  1070.49  1072.33  1079.67  1082.92  1092.89
eigval :     1113.28  1124.56  1131.13  1146.62  1146.66  1161.53
eigval :     1172.07  1177.34  1177.76  1178.41  1179.52  1186.52
eigval :     1194.28  1208.48  1227.17  1229.93  1231.78  1232.34
eigval :     1240.98  1242.82  1259.54  1266.17  1279.27  1282.54
eigval :     1288.65  1292.77  1293.13  1294.72  1304.89  1311.83
eigval :     1332.01  1339.78  1350.17  1350.59  1356.63  1356.96
eigval :     1359.62  1378.86  1385.58  1400.65  1409.56  1416.96
eigval :     1417.94  1423.36  1424.49  1439.62  1457.15  1462.86
eigval :     1466.64  1471.93  1483.37  1483.68  1492.19  1496.29
eigval :     1498.95  1528.39  1551.61  1566.96  1568.03  1568.23
eigval :     1582.31  1585.48  1587.74  1587.81  1600.07  1606.97
eigval :     3057.35  3057.68  3076.23  3076.28  3077.01  3077.49
eigval :     3079.32  3079.37  3080.81  3081.08  3084.46  3084.78
eigval :     3088.04  3088.26  3091.69  3092.00  3095.66  3096.17
eigval :     3097.72  3098.25  3099.44  3099.85  3101.98  3102.10

   temp. (K)  partition function   enthalpy   heat capacity  entropy
                                   cal/mol     cal/K/mol   cal/K/mol   J/K/mol
 298.15  VIB  0.795E+14            20233.487    134.773    121.880
         ROT  0.343E+08              888.752      2.981     37.460
         INT  0.273E+22            21122.239    137.754    159.340
         TR   0.147E+29             1481.254      4.968     45.101
         TOT                       22603.4928   142.7221   204.4406   855.3795

       T/K    H(0)-H(T)+PV         H(T)/Eh          T*S/Eh         G(T)/Eh
   ------------------------------------------------------------------------
    298.15    0.360210E-01    0.567072E+00    0.971363E-01    0.469936E+00
   ------------------------------------------------------------------------

         :::::::::::::::::::::::::::::::::::::::::::::::::::::
         ::                  THERMODYNAMIC                  ::
         :::::::::::::::::::::::::::::::::::::::::::::::::::::
         :: total free energy        -119.352345179100 Eh   ::
         ::.................................................::
         :: total energy             -119.822281145222 Eh   ::
         :: zero point energy           0.531051332191 Eh   ::
         :: G(RRHO) w/o ZPVE           -0.061115366069 Eh   ::
         :: G(RRHO) contrib.            0.469935966122 Eh   ::
         :::::::::::::::::::::::::::::::::::::::::::::::::::::

           -------------------------------------------------
          | TOTAL ENERGY             -119.822281145222 Eh   |
          | TOTAL ENTHALPY           -119.255208854347 Eh   |
          | TOTAL FREE ENERGY        -119.352345179100 Eh   |
          | GRADIENT NORM               0.000027561756 Eh/α |
          | HOMO-LUMO GAP               0.866423916636 eV   |
           -------------------------------------------------

 * finished run on 2025/08/22 at 14:09:02.977
