   * xtb version 6.7.1 (edcfbbe) compiled by 'albert@albert-system' on 2024-07-22

   ID    Z sym.   atoms
    1    6 C      1, 2, 4-7, 9-11, 13-25, 27-40, 42-46, 48
    2    7 N      3, 8, 12, 26, 41, 47
    3    1 H      49-72

          program call               : xtb data2507/toluene/DCz-DPPZ/DCz-DPPZ_toluene_S0_finalOpt.xtbopt.xyz --gfn 2 --uhf 2 --gbsa toluene --ohess vtight --parallel 40 --molden --ceasefiles --namespace data2507/toluene/DCz-DPPZ/DCz-DPPZ_toluene_T1_preOpt
      * Solvation model:               GBSA
        Solvent                        toluene
        Solvent mass                       9.2140E+01 g/mol
          :  Hamiltonian                  GFN2-xTB          :
 * total energy  :  -119.8185196 Eh     change       -0.7055489E-07 Eh
 * total energy  :  -119.8211589 Eh     change       -0.2639208E-02 Eh
 * total energy  :  -119.8221000 Eh     change       -0.9411611E-03 Eh
 * total energy  :  -119.8222009 Eh     change       -0.1008764E-03 Eh
 * total energy  :  -119.8222496 Eh     change       -0.4868255E-04 Eh
 * total energy  :  -119.8222559 Eh     change       -0.6347426E-05 Eh
 * total energy  :  -119.8222604 Eh     change       -0.4453651E-05 Eh
 * total energy  :  -119.8222637 Eh     change       -0.3277721E-05 Eh
 * total energy  :  -119.8222671 Eh     change       -0.3446277E-05 Eh
 * total energy  :  -119.8222690 Eh     change       -0.1951979E-05 Eh
 * total energy  :  -119.8222736 Eh     change       -0.1546859E-05 Eh
 * total energy  :  -119.8222752 Eh     change       -0.1548757E-05 Eh
 * total energy  :  -119.8222767 Eh     change       -0.1552959E-05 Eh
 * total energy  :  -119.8222780 Eh     change       -0.1334695E-05 Eh
 * total energy  :  -119.8222790 Eh     change       -0.9369882E-06 Eh
 * total energy  :  -119.8222796 Eh     change       -0.6128314E-06 Eh
 * total energy  :  -119.8222801 Eh     change       -0.4625240E-06 Eh
 * total energy  :  -119.8222805 Eh     change       -0.4511325E-06 Eh
 * total energy  :  -119.8222805 Eh     change       -0.4182894E-08 Eh
   *** GEOMETRY OPTIMIZATION CONVERGED AFTER 22 ITERATIONS ***

 final structure:
================
72
 xtb: 6.7.1 (edcfbbe)
C            6.38569633236804       -3.21010837812737       -1.26737045622057
C            7.54784748464795       -2.47768110335033       -0.98604648281963
N            7.53273670916936       -1.25897429935023       -0.51131135325022
C            6.36403626975472       -0.66024951646626       -0.27435037113870
C            5.12733085322027       -1.30947642636197       -0.52131060950478
C            5.17059493425087       -2.61882675444254       -1.03162258251242
C            3.88592823128205       -0.65989734521927       -0.26179808201382
N            2.73103073689454       -1.28008363651908       -0.47872452464250
C            1.56429648460302       -0.67590685482860       -0.24987281891779
C            0.34466095971946       -1.30089153353133       -0.48982008925448
C           -0.86511601072690       -0.65635461344168       -0.25251816750184
N           -2.06738839835606       -1.32362790967711       -0.52346579886017
C           -2.45467715120107       -2.53063333297559        0.02824218646723
C           -1.75166212974350       -3.38249266473054        0.86842437200907
C           -2.38896944834909       -4.53066321675091        1.30166381496281
C           -3.69529318131784       -4.82425273992308        0.91824546123674
C           -4.40436190675953       -3.97124462271546        0.09277557913486
C           -3.78471282089085       -2.81409156523345       -0.35717127141090
C           -4.20850471278620       -1.72546796822495       -1.19591872603556
C           -5.38398185901107       -1.44281490918271       -1.87626330271897
C           -5.44530622400365       -0.29355303438366       -2.64274661144529
C           -4.34491804766468        0.55208838243703       -2.75778544777424
C           -3.16371640331757        0.29051734865285       -2.08966362542058
C           -3.11408818721153       -0.83494336661602       -1.27995862335745
C           -0.86621346291227        0.65371932595635        0.26124536094765
N           -2.06974787427380        1.31646959459251        0.53767753438848
C           -3.11157938080812        0.82306609674343        1.29785719187730
C           -3.15314412900255       -0.30259199911425        2.10774184497305
C           -4.33070259858355       -0.56955066855320        2.78013456554634
C           -5.43536067072578        0.27101978011026        2.66896672497769
C           -5.38205815269484        1.42053993206411        1.90226524212223
C           -4.21029819812423        1.70861856903414        1.21779189448634
C           -3.79439444156521        2.79918111620755        0.37761141233506
C           -4.42084968533659        3.95359439459164       -0.06992837043901
C           -3.71855175231220        4.80994936966530       -0.89771819699330
C           -2.41227291072738        4.52233578177688       -1.28577360649826
C           -1.76827179016831        3.37694835420955       -0.85504970447499
C           -2.46445802421317        2.52176343808909       -0.01256467459078
C            0.34240089880310        1.30262037765867        0.49257980838441
C            1.56310382287680        0.68210773350016        0.24636174343359
N            2.72884156732305        1.29042321181714        0.46929455179732
C            3.88484487747295        0.67423961016912        0.24675677112464
C            5.12528436291247        1.32807133666465        0.50010900946077
C            5.16661039011616        2.63775384831182        1.00973510999589
C            6.38083314708040        3.23309581922597        1.23972393453435
C            7.54408189825743        2.50428208895184        0.95361090811532
N            7.53078321389089        1.28540016708753        0.47927478426470
C            6.36299310683733        0.68286839904313        0.24758244992603
H            6.45617557954340       -4.21284126283443       -1.65783354322050
H            8.52833555679079       -2.90325524045681       -1.15449645105728
H            4.23476417411181       -3.12386871160151       -1.22310449608582
H            0.34921686263125       -2.29532386357871       -0.90761790474214
H           -0.74281835634722       -3.15585000753449        1.18039947796997
H           -1.86232360543538       -5.21218435861884        1.95328553659171
H           -4.15886183101041       -5.73092230854198        1.27757627627601
H           -5.41988546603707       -4.19565265370048       -0.19563879964110
H           -6.22824877415082       -2.11215985350616       -1.81217703614783
H           -6.35293728755460       -0.05335286049556       -3.17601868152539
H           -4.41136703514337        1.42900535985143       -3.38446939244036
H           -2.30779230021934        0.93724530692017       -2.20691536497596
H           -2.29380974469842       -0.94534392101218        2.22182301566215
H           -4.39090269348680       -1.44671684382743        3.40709925943310
H           -6.33997562208198        0.02665650300068        3.20546292634666
H           -6.22969665769304        2.08589632097830        1.84114503321865
H           -5.43636264367976        4.17336905609243        0.22208329126144
H           -4.18748545010455        5.71459066849384       -1.25518950041521
H           -1.89097878907598        5.20638075363244       -1.93905475084957
H           -0.75952160440660        3.15493399835175       -1.17063716867639
H            0.34543764934678        2.29703065707297        0.91044189017182
H            4.23002466157724        3.13982654055844        1.20528875629108
H            6.44982269954285        4.23622325209871        1.62943194806870
H            8.52392942006524        2.93302795836731        1.11767240248763

          :  Hamiltonian                  GFN2-xTB          :
         :: gradient norm              0.000048607306 Eh/a0 ::
         :: HOMO-LUMO gap              0.866029989068 eV    ::
         :: SCC energy              -121.989968945490 Eh    ::
         :: -> dispersion             -0.115603544995 Eh    ::
         :: -> Gsolv                  -0.048943951026 Eh    ::
         :: repulsion energy           2.167688432963 Eh    ::

    * Orbital Energies and Occupations

         #    Occupation            Energy/Eh            Energy/eV
      -------------------------------------------------------------
         1        2.0000           -0.6914928             -18.8165
       ...           ...                  ...                  ...
       100        2.0000           -0.4216206             -11.4729
       101        2.0000           -0.4136469             -11.2559
       102        2.0000           -0.4135539             -11.2534
       103        2.0000           -0.4122551             -11.2180
       104        2.0000           -0.4049444             -11.0191
       105        2.0000           -0.3888747             -10.5818
       106        2.0000           -0.3853381             -10.4856
       107        1.9979           -0.3770744             -10.2607
       108        1.9921           -0.3758022             -10.2261
       109        1.9575           -0.3741691             -10.1817
       110        1.8823           -0.3731232             -10.1532
       111        1.1702           -0.3697048             -10.0602
       112        1.0000           -0.3189106              -8.6780 (HOMO)
       113                         -0.2870849              -7.8120 (LUMO)
       114                         -0.2785984              -7.5810
       115                         -0.2541722              -6.9164
       116                         -0.2530086              -6.8847
       117                         -0.2425755              -6.6008
       118                         -0.2397045              -6.5227
       119                         -0.2335470              -6.3551
       120                         -0.2274431              -6.1890
       121                         -0.2177267              -5.9246
       122                         -0.2140411              -5.8244
       123                         -0.2021766              -5.5015
       ...                                ...                  ...
       216                          0.7378165              20.0770
      -------------------------------------------------------------
                  HL-Gap            0.0318257 Eh            0.8660 eV

     #   Z          covCN         q      C6AA      α(0)
     1   6 C        2.911    -0.041    29.026     8.834
     2   6 C        2.902     0.061    26.641     8.463
     3   7 N        1.841    -0.211    26.429     7.619
     4   6 C        2.968     0.078    26.249     8.404
     5   6 C        2.982    -0.018    28.458     8.751
     6   6 C        2.927    -0.013    28.335     8.730
     7   6 C        2.940     0.078    26.268     8.406
     8   7 N        1.849    -0.234    26.985     7.699
     9   6 C        2.940     0.085    26.110     8.380
    10   6 C        2.921    -0.073    29.814     8.954
    11   6 C        2.908     0.046    26.957     8.514
    12   7 N        2.802    -0.037    21.952     6.959
    13   6 C        3.074     0.049    26.832     8.493
    14   6 C        2.909    -0.048    29.195     8.860
    15   6 C        2.923    -0.032    28.807     8.802
    16   6 C        2.920    -0.038    28.936     8.821
    17   6 C        2.912    -0.031    28.774     8.796
    18   6 C        3.067    -0.014    28.302     8.723
    19   6 C        3.067    -0.015    28.327     8.727
    20   6 C        2.913    -0.032    28.793     8.799
    21   6 C        2.920    -0.037    28.929     8.820
    22   6 C        2.924    -0.032    28.805     8.801
    23   6 C        2.910    -0.047    29.166     8.856
    24   6 C        3.075     0.049    26.831     8.493
    25   6 C        2.908     0.046    26.957     8.513
    26   7 N        2.802    -0.037    21.952     6.959
    27   6 C        3.075     0.049    26.831     8.493
    28   6 C        2.910    -0.047    29.166     8.856
    29   6 C        2.924    -0.032    28.805     8.801
    30   6 C        2.920    -0.037    28.929     8.820
    31   6 C        2.913    -0.032    28.793     8.799
    32   6 C        3.066    -0.015    28.327     8.727
    33   6 C        3.067    -0.014    28.302     8.723
    34   6 C        2.912    -0.031    28.774     8.796
    35   6 C        2.920    -0.038    28.936     8.821
    36   6 C        2.923    -0.032    28.807     8.802
    37   6 C        2.909    -0.048    29.196     8.860
    38   6 C        3.074     0.049    26.832     8.493
    39   6 C        2.921    -0.073    29.814     8.954
    40   6 C        2.940     0.085    26.110     8.380
    41   7 N        1.849    -0.234    26.985     7.699
    42   6 C        2.940     0.078    26.268     8.406
    43   6 C        2.982    -0.018    28.458     8.751
    44   6 C        2.927    -0.013    28.335     8.730
    45   6 C        2.911    -0.041    29.026     8.834
    46   6 C        2.902     0.061    26.641     8.463
    47   7 N        1.841    -0.211    26.429     7.619
    48   6 C        2.968     0.078    26.249     8.404
    49   1 H        0.926     0.056     2.246     2.344
    50   1 H        0.925     0.051     2.308     2.376
    51   1 H        0.926     0.058     2.228     2.334
    52   1 H        0.926     0.061     2.186     2.312
    53   1 H        0.926     0.030     2.580     2.512
    54   1 H        0.926     0.037     2.487     2.466
    55   1 H        0.926     0.037     2.485     2.465
    56   1 H        0.926     0.040     2.454     2.450
    57   1 H        0.926     0.040     2.450     2.448
    58   1 H        0.926     0.038     2.482     2.463
    59   1 H        0.926     0.036     2.507     2.476
    60   1 H        0.926     0.026     2.637     2.539
    61   1 H        0.926     0.027     2.636     2.539
    62   1 H        0.926     0.036     2.507     2.476
    63   1 H        0.926     0.038     2.482     2.463
    64   1 H        0.926     0.040     2.450     2.448
    65   1 H        0.926     0.040     2.454     2.450
    66   1 H        0.926     0.037     2.485     2.465
    67   1 H        0.926     0.037     2.487     2.466
    68   1 H        0.926     0.030     2.580     2.512
    69   1 H        0.926     0.061     2.186     2.312
    70   1 H        0.926     0.058     2.228     2.334
    71   1 H        0.926     0.056     2.246     2.344
    72   1 H        0.925     0.051     2.308     2.376

molecular dipole:
                 x           y           z       tot (Debye)
 q only:       -1.552      -0.003       0.003
   full:       -1.947      -0.003       0.004       4.950

 projected vibrational frequencies (cm⁻¹)
eigval :       -0.00    -0.00     0.00     0.00     0.00     0.00
eigval :       18.24    24.66    26.38    35.21    37.38    50.69
eigval :       64.73    72.10    86.16    98.23   105.44   112.98
eigval :      119.52   127.32   137.72   146.90   148.69   150.47
eigval :      162.06   185.77   208.18   223.72   236.48   242.86
eigval :      258.85   274.59   276.78   285.09   297.91   310.00
eigval :      338.33   360.01   392.42   393.88   400.33   400.64
eigval :      410.87   417.73   422.74   425.51   432.30   433.26
eigval :      439.57   443.23   454.35   488.07   515.41   516.89
eigval :      518.67   520.28   529.62   541.16   541.18   542.64
eigval :      548.30   558.71   567.88   578.97   585.28   586.71
eigval :      590.48   597.33   622.86   631.63   662.64   667.53
eigval :      672.56   677.29   681.84   689.28   693.68   700.79
eigval :      708.33   710.04   715.65   743.10   754.60   755.21
eigval :      771.72   772.30   780.71   782.95   783.23   787.15
eigval :      792.03   806.17   823.79   842.39   857.28   875.18
eigval :      875.81   876.98   877.00   894.85   895.69   903.97
eigval :      904.29   904.80   904.90   906.21   906.33   918.06
eigval :      918.19   918.82   923.54   923.69   927.75   927.93
eigval :      957.58  1010.83  1011.63  1029.82  1054.33  1067.88
eigval :     1068.32  1070.19  1071.88  1079.94  1082.94  1092.86
eigval :     1113.11  1124.50  1131.16  1146.78  1147.21  1161.02
eigval :     1171.75  1177.98  1178.21  1179.09  1179.79  1187.17
eigval :     1194.21  1208.42  1227.87  1230.26  1231.44  1232.47
eigval :     1240.99  1242.64  1258.50  1266.03  1279.41  1282.44
eigval :     1289.00  1293.04  1293.16  1294.90  1304.90  1311.85
eigval :     1331.93  1339.73  1350.25  1350.60  1356.67  1357.05
eigval :     1359.59  1378.83  1385.58  1400.94  1409.59  1416.95
eigval :     1418.07  1423.13  1424.59  1439.54  1457.23  1462.97
eigval :     1466.74  1472.35  1483.40  1483.82  1491.90  1496.31
eigval :     1499.03  1528.42  1551.60  1566.99  1568.11  1568.29
eigval :     1582.41  1585.51  1587.67  1587.80  1599.93  1607.02
eigval :     3057.38  3057.69  3076.09  3076.29  3076.97  3077.46
eigval :     3079.32  3079.36  3080.82  3081.49  3084.44  3084.76
eigval :     3087.84  3088.08  3091.74  3091.98  3095.66  3096.36
eigval :     3097.62  3098.43  3099.44  3099.78  3101.99  3102.16

   temp. (K)  partition function   enthalpy   heat capacity  entropy
                                   cal/mol     cal/K/mol   cal/K/mol   J/K/mol
 298.15  VIB  0.785E+14            20227.855    134.768    121.831
         ROT  0.343E+08              888.752      2.981     37.461
         INT  0.269E+22            21116.607    137.748    159.292
         TR   0.147E+29             1481.254      4.968     45.101
         TOT                       22597.8612   142.7166   204.3932   855.1811

       T/K    H(0)-H(T)+PV         H(T)/Eh          T*S/Eh         G(T)/Eh
   ------------------------------------------------------------------------
    298.15    0.360120E-01    0.567098E+00    0.971138E-01    0.469984E+00
   ------------------------------------------------------------------------

         :::::::::::::::::::::::::::::::::::::::::::::::::::::
         ::                  THERMODYNAMIC                  ::
         :::::::::::::::::::::::::::::::::::::::::::::::::::::
         :: total free energy        -119.352296403663 Eh   ::
         ::.................................................::
         :: total energy             -119.822280510392 Eh   ::
         :: zero point energy           0.531085924694 Eh   ::
         :: G(RRHO) w/o ZPVE           -0.061101817965 Eh   ::
         :: G(RRHO) contrib.            0.469984106729 Eh   ::
         :::::::::::::::::::::::::::::::::::::::::::::::::::::

           -------------------------------------------------
          | TOTAL ENERGY             -119.822280510392 Eh   |
          | TOTAL ENTHALPY           -119.255182601546 Eh   |
          | TOTAL FREE ENERGY        -119.352296403663 Eh   |
          | GRADIENT NORM               0.000048601696 Eh/α |
          | HOMO-LUMO GAP               0.866020695843 eV   |
           -------------------------------------------------

 * finished run on 2025/08/22 at 14:03:30.893
