   * xtb version 6.7.1 (edcfbbe) compiled by 'albert@albert-system' on 2024-07-22

   ID    Z sym.   atoms
    1    7 N      1, 10, 31, 36
    2    6 C      2-9, 11-16, 18-30, 32-35, 37, 38
    3    8 O      17
    4    1 H      39-56

          program call               : xtb data2507/toluene/mPTBC/mPTBC_toluene_S0_crest.xyz --gfn 2 --gbsa toluene --ohess vtight --parallel 40 --molden --ceasefiles --namespace data2507/toluene/mPTBC/mPTBC_toluene_S0_finalOpt
      * Solvation model:               GBSA
        Solvent                        toluene
        Solvent mass                       9.2140E+01 g/mol
          :  Hamiltonian                  GFN2-xTB          :
 * total energy  :   -95.5543280 Eh     change       -0.6198022E-08 Eh
 * total energy  :   -95.5543648 Eh     change       -0.3685570E-04 Eh
 * total energy  :   -95.5543250 Eh     change        0.3985529E-04 Eh
 * total energy  :   -95.5543850 Eh     change       -0.6002255E-04 Eh
 * total energy  :   -95.5543846 Eh     change        0.4153342E-06 Eh
 * total energy  :   -95.5543921 Eh     change       -0.7512775E-05 Eh
 * total energy  :   -95.5543959 Eh     change       -0.3826699E-05 Eh
 * total energy  :   -95.5544004 Eh     change       -0.4522162E-05 Eh
 * total energy  :   -95.5544062 Eh     change       -0.5702806E-05 Eh
 * total energy  :   -95.5544124 Eh     change       -0.6207841E-05 Eh
 * total energy  :   -95.5544608 Eh     change       -0.2736774E-06 Eh
 * total energy  :   -95.5544608 Eh     change       -0.4096721E-07 Eh
 * total energy  :   -95.5544610 Eh     change       -0.2041950E-06 Eh
 * total energy  :   -95.5544613 Eh     change       -0.2848739E-06 Eh
 * total energy  :   -95.5544615 Eh     change       -0.2347204E-06 Eh
 * total energy  :   -95.5544618 Eh     change       -0.2339000E-06 Eh
 * total energy  :   -95.5544620 Eh     change       -0.2556138E-06 Eh
 * total energy  :   -95.5544623 Eh     change       -0.2395326E-06 Eh
 * total energy  :   -95.5544623 Eh     change       -0.8950849E-09 Eh
   *** GEOMETRY OPTIMIZATION CONVERGED AFTER 44 ITERATIONS ***

 final structure:
================
56
 xtb: 6.7.1 (edcfbbe)
N           -4.17956036531822        7.23360151516265       -0.98099850397992
C           -3.65788001517806        6.22080718090317       -0.84197509175440
C           -3.01176005722300        4.97642433862351       -0.66963933587915
C           -3.34732187787981        3.89644520788532       -1.48828480940662
C           -2.71538124386920        2.68235352062237       -1.31363133469998
C           -1.74246504935858        2.52611452393574       -0.32781729153683
C           -1.05360332033370        1.23698311743954       -0.14691025816924
C            0.33177275445268        1.19778467599145       -0.12759997409903
C            1.01007180062642       -0.01339431607041       -0.00585721252628
N            2.41355229639952       -0.04108006489249       -0.00537685770291
C            3.14203068964709        0.65502099080981        0.96825128469587
C            2.52770893528459        1.34637606060345        2.00554310276733
C            3.27867416602358        2.02244318556304        2.95496891051778
C            4.65782446677852        2.00842945097413        2.89291082376010
C            5.28783477675273        1.28919013760170        1.88858153882343
C            4.54194817588025        0.60996033842158        0.94180917272232
O            5.24054843214523       -0.11603679211795        0.00763262929721
C            4.51320665462154       -0.80521893758102       -0.93241280384481
C            5.23052212458285       -1.52477117656112       -1.87145293517132
C            4.57224527909202       -2.21081976599093       -2.88087403139077
C            3.19498571105691       -2.15055207564710       -2.95629557615647
C            2.47237992381832       -1.43423116426013       -2.01440222001179
C            3.11322631234298       -0.77554948115636       -0.97186099507017
C            0.28592116181464       -1.19773479279505        0.11591738692643
C           -1.09992524233996       -1.18485224004934        0.13481363024314
C           -1.83569723354252       -2.44721381458773        0.31897010887350
C           -1.53062605933765       -3.55115002155529       -0.47681839831690
C           -2.20168599397247       -4.74467016791719       -0.30974820886299
C           -3.18739899448432       -4.85144031417910        0.67361100938731
C           -3.87321781545153       -6.07320353429784        0.85424901318156
N           -4.42639308222577       -7.06815652977285        1.00017754372837
C           -3.49085241898046       -3.75429670459607        1.48187016549016
C           -2.81804809799210       -2.56325931474910        1.30103502488245
C           -1.77759412065398        0.03945331566791       -0.00648363077208
C           -3.18870861607983        0.06666311888200       -0.00728980434382
N           -4.33743883113406        0.08855974430706       -0.00794614463594
C           -1.40351614127997        3.61334560350487        0.47708291878622
C           -2.03418878885809        4.82962824307240        0.31665541797263
H           -4.09858665578923        4.01753599899730       -2.25430919970673
H           -2.96817471450738        1.85332719075440       -1.95736537860688
H            0.89127761301915        2.11332287357975       -0.24628223595900
H            1.45219845381151        1.34667840774673        2.08328389193640
H            2.77340675586474        2.55490730937526        3.74602096088629
H            5.24800948771573        2.53750643851657        3.62428548910990
H            6.36320025860687        1.23435161218453        1.82500640672010
H            6.30661989525461       -1.52786707300094       -1.79764147349166
H            5.14003941691228       -2.77213495460876       -3.60591087601545
H            2.66941575314216       -2.65635074311075       -3.75162346950699
H            1.39912372477101       -1.37692296699630       -2.10213073256222
H            0.81070766009234       -2.13352376468250        0.23523298423940
H           -0.77387555786468       -3.46604249170629       -1.24219850835976
H           -1.97166314189500       -5.59705293977301       -0.93160491662864
H           -4.24916655564012       -3.84423087836490        2.24522958960396
H           -3.04572320530987       -1.72166380799420        1.93778458430525
H           -0.65329736557394        3.49723614073602        1.24481940209841
H           -1.77904303693418        5.66909143805224        0.94621107761385

          :  Hamiltonian                  GFN2-xTB          :
         :: gradient norm              0.000088636507 Eh/a0 ::
         :: HOMO-LUMO gap              1.518621307319 eV    ::
         :: SCC energy               -97.383886843364 Eh    ::
         :: -> dispersion             -0.077629015046 Eh    ::
         :: -> Gsolv                  -0.049780801851 Eh    ::
         :: repulsion energy           1.829424564616 Eh    ::

    * Orbital Energies and Occupations

         #    Occupation            Energy/Eh            Energy/eV
      -------------------------------------------------------------
         1        2.0000           -0.7378822             -20.0788
       ...           ...                  ...                  ...
        76        2.0000           -0.4366727             -11.8825
        77        2.0000           -0.4347105             -11.8291
        78        2.0000           -0.4345854             -11.8257
        79        2.0000           -0.4342580             -11.8168
        80        2.0000           -0.4341887             -11.8149
        81        2.0000           -0.4318859             -11.7522
        82        2.0000           -0.4310971             -11.7307
        83        2.0000           -0.4239773             -11.5370
        84        2.0000           -0.4218449             -11.4790
        85        2.0000           -0.4211630             -11.4604
        86        2.0000           -0.4161319             -11.3235
        87        2.0000           -0.3990322             -10.8582
        88        2.0000           -0.3542090              -9.6385 (HOMO)
        89                         -0.2984007              -8.1199 (LUMO)
        90                         -0.2923251              -7.9546
        91                         -0.2732905              -7.4366
        92                         -0.2520858              -6.8596
        93                         -0.2515852              -6.8460
        94                         -0.2506172              -6.8196
        95                         -0.2469378              -6.7195
        96                         -0.2382337              -6.4827
        97                         -0.2248966              -6.1197
        98                         -0.2211167              -6.0169
        99                         -0.2183307              -5.9411
       ...                                ...                  ...
       170                          1.1547670              31.4228
      -------------------------------------------------------------
                  HL-Gap            0.0558083 Eh            1.5186 eV

     #   Z          covCN         q      C6AA      α(0)
     1   7 N        0.911    -0.263    26.826     7.491
     2   6 C        1.912     0.120    28.159     8.570
     3   6 C        2.974     0.020    27.558     8.611
     4   6 C        2.925    -0.015    28.395     8.739
     5   6 C        2.922    -0.024    28.603     8.770
     6   6 C        2.978     0.021    27.543     8.609
     7   6 C        2.981     0.022    27.504     8.603
     8   6 C        2.926    -0.045    29.123     8.850
     9   6 C        2.916     0.074    26.350     8.418
    10   7 N        2.751    -0.065    22.496     7.044
    11   6 C        2.921     0.040    27.106     8.538
    12   6 C        2.924    -0.060    29.482     8.904
    13   6 C        2.919    -0.038    28.948     8.823
    14   6 C        2.919    -0.038    28.956     8.824
    15   6 C        2.920    -0.056    29.394     8.891
    16   6 C        2.883     0.124    25.268     8.241
    17   8 O        1.709    -0.267    18.432     5.797
    18   6 C        2.883     0.124    25.268     8.241
    19   6 C        2.920    -0.056    29.395     8.891
    20   6 C        2.919    -0.038    28.955     8.824
    21   6 C        2.919    -0.038    28.948     8.823
    22   6 C        2.924    -0.060    29.480     8.904
    23   6 C        2.921     0.040    27.107     8.538
    24   6 C        2.926    -0.045    29.123     8.850
    25   6 C        2.981     0.022    27.504     8.603
    26   6 C        2.978     0.021    27.543     8.609
    27   6 C        2.923    -0.027    28.684     8.783
    28   6 C        2.924    -0.017    28.430     8.744
    29   6 C        2.974     0.020    27.558     8.611
    30   6 C        1.912     0.120    28.159     8.570
    31   7 N        0.911    -0.263    26.826     7.491
    32   6 C        2.925    -0.015    28.395     8.739
    33   6 C        2.922    -0.024    28.603     8.770
    34   6 C        2.977     0.001    27.993     8.679
    35   6 C        1.910     0.121    28.118     8.564
    36   7 N        0.911    -0.276    27.133     7.534
    37   6 C        2.923    -0.027    28.684     8.783
    38   6 C        2.924    -0.017    28.430     8.744
    39   1 H        0.926     0.050     2.319     2.381
    40   1 H        0.926     0.046     2.367     2.406
    41   1 H        0.926     0.060     2.203     2.321
    42   1 H        0.926     0.041     2.434     2.440
    43   1 H        0.926     0.044     2.396     2.421
    44   1 H        0.926     0.045     2.388     2.417
    45   1 H        0.926     0.050     2.317     2.380
    46   1 H        0.926     0.050     2.317     2.380
    47   1 H        0.926     0.045     2.388     2.417
    48   1 H        0.926     0.044     2.396     2.421
    49   1 H        0.926     0.041     2.435     2.440
    50   1 H        0.926     0.059     2.206     2.323
    51   1 H        0.926     0.056     2.249     2.345
    52   1 H        0.926     0.052     2.293     2.368
    53   1 H        0.926     0.050     2.319     2.382
    54   1 H        0.926     0.046     2.367     2.406
    55   1 H        0.926     0.056     2.250     2.346
    56   1 H        0.926     0.052     2.293     2.368

molecular dipole:
                 x           y           z       tot (Debye)
 q only:        2.419      -0.041      -0.007
   full:        3.126      -0.055      -0.009       7.946

 projected vibrational frequencies (cm⁻¹)
eigval :       -0.00    -0.00    -0.00     0.00     0.00     0.00
eigval :       11.23    18.69    21.36    27.88    28.88    40.28
eigval :       49.87    55.05    58.26    78.00    99.85   107.68
eigval :      119.46   119.52   139.13   150.00   151.23   163.92
eigval :      199.08   208.98   244.08   246.97   255.85   269.48
eigval :      276.90   288.28   290.09   300.66   335.90   365.93
eigval :      368.38   389.63   390.94   420.55   427.36   432.37
eigval :      444.25   463.23   488.50   493.28   502.31   507.39
eigval :      521.09   526.78   532.84   534.05   540.75   547.20
eigval :      571.05   578.40   581.24   605.18   612.79   621.01
eigval :      637.51   644.94   658.29   660.10   679.19   690.04
eigval :      698.36   706.65   728.23   765.55   777.71   778.78
eigval :      786.41   815.94   817.09   824.18   853.95   855.46
eigval :      861.45   864.17   865.48   865.75   875.89   895.62
eigval :      900.38   906.07   914.36   914.91   915.89   917.92
eigval :      918.88   924.07   924.88   967.18  1012.72  1016.06
eigval :     1059.06  1090.07  1091.10  1106.75  1119.15  1134.75
eigval :     1135.75  1162.82  1165.91  1173.24  1182.31  1185.54
eigval :     1186.38  1198.92  1201.51  1215.27  1221.77  1235.39
eigval :     1241.33  1251.01  1258.76  1263.18  1263.78  1273.92
eigval :     1303.15  1307.13  1310.86  1311.13  1328.20  1339.65
eigval :     1364.78  1388.81  1390.06  1414.06  1424.10  1432.96
eigval :     1443.21  1477.91  1480.56  1480.97  1499.09  1526.39
eigval :     1546.99  1549.35  1557.59  1567.28  1578.56  1586.65
eigval :     1586.81  1588.30  1600.31  2347.23  2364.22  2364.70
eigval :     3085.84  3086.10  3088.43  3088.67  3088.85  3088.91
eigval :     3096.46  3096.59  3097.65  3097.75  3098.77  3099.46
eigval :     3099.61  3099.73  3105.53  3105.93  3110.43  3111.12

   temp. (K)  partition function   enthalpy   heat capacity  entropy
                                   cal/mol     cal/K/mol   cal/K/mol   J/K/mol
 298.15  VIB  0.117E+15            17739.115    108.597    110.787
         ROT  0.235E+08              888.752      2.981     36.706
         INT  0.275E+22            18627.867    111.578    147.493
         TR   0.104E+29             1481.254      4.968     44.414
         TOT                       20109.1211   116.5459   191.9071   802.9394

       T/K    H(0)-H(T)+PV         H(T)/Eh          T*S/Eh         G(T)/Eh
   ------------------------------------------------------------------------
    298.15    0.320459E-01    0.435937E+00    0.911813E-01    0.344755E+00
   ------------------------------------------------------------------------

         :::::::::::::::::::::::::::::::::::::::::::::::::::::
         ::                  THERMODYNAMIC                  ::
         :::::::::::::::::::::::::::::::::::::::::::::::::::::
         :: total free energy         -95.209706779871 Eh   ::
         ::.................................................::
         :: total energy              -95.554462274513 Eh   ::
         :: zero point energy           0.403890835227 Eh   ::
         :: G(RRHO) w/o ZPVE           -0.059135340585 Eh   ::
         :: G(RRHO) contrib.            0.344755494642 Eh   ::
         :::::::::::::::::::::::::::::::::::::::::::::::::::::

           -------------------------------------------------
          | TOTAL ENERGY              -95.554462274513 Eh   |
          | TOTAL ENTHALPY            -95.118525514953 Eh   |
          | TOTAL FREE ENERGY         -95.209706779871 Eh   |
          | GRADIENT NORM               0.000088580624 Eh/α |
          | HOMO-LUMO GAP               1.518621562665 eV   |
           -------------------------------------------------

 * finished run on 2025/08/21 at 16:04:17.641
