   * xtb version 6.7.1 (edcfbbe) compiled by 'albert@albert-system' on 2024-07-22

   ID    Z sym.   atoms
    1    7 N      1, 10, 31, 36
    2    6 C      2-9, 11-16, 18-30, 32-35, 37, 38
    3    8 O      17
    4    1 H      39-56

          program call               : xtb data2507/toluene/mPTBC/mPTBC_toluene_S0_finalOpt.xtbopt.xyz --gfn 2 --uhf 2 --gbsa toluene --ohess vtight --parallel 40 --molden --ceasefiles --namespace data2507/toluene/mPTBC/mPTBC_toluene_T1_preOpt
      * Solvation model:               GBSA
        Solvent                        toluene
        Solvent mass                       9.2140E+01 g/mol
          :  Hamiltonian                  GFN2-xTB          :
 * total energy  :   -95.4702408 Eh     change       -0.8355930E-07 Eh
 * total energy  :   -95.4744858 Eh     change       -0.4244985E-02 Eh
 * total energy  :   -95.4755014 Eh     change       -0.1015656E-02 Eh
 * total energy  :   -95.4756050 Eh     change       -0.1035417E-03 Eh
 * total energy  :   -95.4757877 Eh     change       -0.1827540E-03 Eh
 * total energy  :   -95.4759153 Eh     change       -0.1276175E-03 Eh
 * total energy  :   -95.4760493 Eh     change       -0.1339198E-03 Eh
 * total energy  :   -95.4761693 Eh     change       -0.1200152E-03 Eh
 * total energy  :   -95.4762294 Eh     change       -0.6008696E-04 Eh
 * total energy  :   -95.4763061 Eh     change       -0.7668828E-04 Eh
 * total energy  :   -95.4766133 Eh     change       -0.2936084E-06 Eh
 * total energy  :   -95.4766136 Eh     change       -0.2938033E-06 Eh
 * total energy  :   -95.4766139 Eh     change       -0.2999148E-06 Eh
 * total energy  :   -95.4766142 Eh     change       -0.2793992E-06 Eh
 * total energy  :   -95.4766144 Eh     change       -0.2099828E-06 Eh
 * total energy  :   -95.4766146 Eh     change       -0.1705182E-06 Eh
 * total energy  :   -95.4766147 Eh     change       -0.1329640E-06 Eh
 * total energy  :   -95.4766148 Eh     change       -0.1107840E-06 Eh
 * total energy  :   -95.4766149 Eh     change       -0.9337298E-07 Eh
   *** GEOMETRY OPTIMIZATION CONVERGED AFTER 42 ITERATIONS ***

 final structure:
================
56
 xtb: 6.7.1 (edcfbbe)
N           -4.05576880298621        7.31359626243716       -1.06757407839655
C           -3.55923296413260        6.28561885238964       -0.91289688586939
C           -2.94461672840317        5.03829485337595       -0.72509381123527
C           -3.41505214462972        3.90466809390058       -1.40398577892200
C           -2.81536067196290        2.68389663728934       -1.20769244167833
C           -1.72647066333261        2.54423260662108       -0.33568110436493
C           -1.07156163742124        1.25732724084057       -0.13448063772147
C            0.30470315242571        1.20667977702091       -0.09204745374057
C            0.98091378795978       -0.01791367171364       -0.00382807423647
N            2.39021052215080       -0.04543937663029       -0.00201630869754
C            3.09896939917130        0.60090377563287        0.99107073640316
C            2.47247618251345        1.25148350187435        2.06165215739240
C            3.22053049180075        1.89591352865302        3.02206866747881
C            4.61352045924003        1.90154344642518        2.95430698311381
C            5.25695479426251        1.23104574219413        1.93367109352511
C            4.51453620352149        0.57345669296242        0.95947338214720
O            5.19227050161230       -0.10508934300906        0.00452283638523
C            4.49077231911882       -0.75410424255443       -0.95379385323888
C            5.20902161701821       -1.44293576151857       -1.92448904135167
C            4.54223427374839       -2.08601626607964       -2.94779237299958
C            3.15107873824492       -2.02080914521683       -3.02214314074808
C            2.42666639320459       -1.34481072252856       -2.06530503402637
C            3.07547586200606       -0.72098143690716       -0.99204762920902
C            0.25787965875395       -1.21595983380693        0.08432432170589
C           -1.11901423130084       -1.21258225314116        0.12640169106071
C           -1.82367853505822       -2.47290630723975        0.33041222397508
C           -1.39836568370074       -3.63583781747422       -0.33058274710563
C           -2.04178527606573       -4.83513380749844       -0.14512447910474
C           -3.13700269676560       -4.91653048110763        0.72735292649775
C           -3.79961307365962       -6.13858064474309        0.91928017428965
N           -4.33620882984848       -7.14563538623589        1.07731945927654
C           -3.55795261376925       -3.76543270254948        1.40918005599714
C           -2.91189154141173       -2.56914517971075        1.20882369590510
C           -1.82065118360403        0.03604282750663       -0.00471526495701
C           -3.20580743129243        0.06067040510643       -0.00597362703476
N           -4.36672084352224        0.07909788927990       -0.00718999318080
C           -1.25164316964667        3.68971186853325        0.32255441088078
C           -1.84812188632142        4.91344049719092        0.14076223592893
H           -4.24998677531974        4.00068738632755       -2.08311765254785
H           -3.17700487294588        1.82510086825185       -1.75254798289483
H            0.87649885934169        2.11422686871612       -0.21508144993702
H            1.39737349724287        1.23348015849946        2.13361087051062
H            2.71990511877045        2.39371690124771        3.83727304207500
H            5.18994768207157        2.41311186052598        3.70796769392841
H            6.33228750915148        1.19259439904631        1.86930811220109
H            6.28469745834555       -1.45041008278079       -1.85508113712239
H            5.09978346741282       -2.62213427066746       -3.69857536852027
H            2.63354419216385       -2.49736021037484       -3.83948245671234
H            1.35364603153830       -1.28090844481286       -2.14222242678877
H            0.79370291214017       -2.14506727311004        0.20823457683508
H           -0.57175013225241       -3.58251193977708       -1.02361725966230
H           -1.71907900724032       -5.72118841784213       -0.67288186024827
H           -4.39172299162233       -3.82830004906657        2.09356870869853
H           -3.23618838744110       -1.69663025299255        1.75543881119625
H           -0.42415608926229        3.60382744974079        1.01122702163082
H           -1.48753443241267        5.78604075333659        0.66642440245555

          :  Hamiltonian                  GFN2-xTB          :
         :: gradient norm              0.000045490791 Eh/a0 ::
         :: HOMO-LUMO gap              0.137052774160 eV    ::
         :: SCC energy               -97.283088536878 Eh    ::
         :: -> dispersion             -0.077604388913 Eh    ::
         :: -> Gsolv                  -0.065395373433 Eh    ::
         :: repulsion energy           1.806473602753 Eh    ::

    * Orbital Energies and Occupations

         #    Occupation            Energy/Eh            Energy/eV
      -------------------------------------------------------------
         1        2.0000           -0.7820149             -21.2797
       ...           ...                  ...                  ...
        77        2.0000           -0.4295387             -11.6883
        78        2.0000           -0.4287366             -11.6665
        79        2.0000           -0.4283227             -11.6553
        80        2.0000           -0.4186135             -11.3911
        81        2.0000           -0.4184550             -11.3867
        82        2.0000           -0.4180432             -11.3755
        83        2.0000           -0.4177310             -11.3670
        84        2.0000           -0.4147866             -11.2869
        85        2.0000           -0.4078298             -11.0976
        86        2.0000           -0.3978222             -10.8253
        87        2.0000           -0.3976123             -10.8196
        88        1.0001           -0.3792426             -10.3197
        89        0.9274           -0.2867616              -7.8032 (HOMO)
        90        0.0599           -0.2817255              -7.6661 (LUMO)
        91        0.0126           -0.2802006              -7.6246
        92                         -0.2645993              -7.2001
        93                         -0.2595589              -7.0630
        94                         -0.2487106              -6.7678
        95                         -0.2338184              -6.3625
        96                         -0.2335918              -6.3564
        97                         -0.2334148              -6.3515
        98                         -0.2312250              -6.2920
        99                         -0.2036878              -5.5426
       100                         -0.2035030              -5.5376
       ...                                ...                  ...
       170                          1.1619363              31.6179
      -------------------------------------------------------------
                  HL-Gap            0.0050361 Eh            0.1370 eV

     #   Z          covCN         q      C6AA      α(0)
     1   7 N        0.911    -0.304    27.830     7.630
     2   6 C        1.911     0.112    28.348     8.599
     3   6 C        2.972     0.002    27.968     8.675
     4   6 C        2.922    -0.023    28.572     8.766
     5   6 C        2.921    -0.030    28.744     8.792
     6   6 C        2.976     0.007    27.851     8.657
     7   6 C        2.974     0.007    27.851     8.657
     8   6 C        2.921    -0.046    29.152     8.854
     9   6 C        2.920     0.027    27.405     8.585
    10   7 N        2.752     0.029    20.738     6.764
    11   6 C        2.927     0.044    27.022     8.525
    12   6 C        2.918    -0.041    29.022     8.834
    13   6 C        2.917    -0.022    28.547     8.762
    14   6 C        2.918    -0.018    28.458     8.748
    15   6 C        2.914    -0.045    29.114     8.848
    16   6 C        2.889     0.139    24.977     8.194
    17   8 O        1.711    -0.184    17.076     5.579
    18   6 C        2.889     0.139    24.978     8.194
    19   6 C        2.914    -0.045    29.114     8.848
    20   6 C        2.918    -0.018    28.459     8.748
    21   6 C        2.917    -0.022    28.547     8.762
    22   6 C        2.918    -0.041    29.021     8.834
    23   6 C        2.927     0.044    27.022     8.525
    24   6 C        2.921    -0.047    29.155     8.855
    25   6 C        2.975     0.008    27.846     8.656
    26   6 C        2.977     0.008    27.847     8.656
    27   6 C        2.922    -0.037    28.919     8.819
    28   6 C        2.922    -0.025    28.629     8.774
    29   6 C        2.972     0.003    27.963     8.674
    30   6 C        1.911     0.112    28.345     8.598
    31   7 N        0.911    -0.304    27.817     7.628
    32   6 C        2.922    -0.023    28.570     8.765
    33   6 C        2.921    -0.030    28.739     8.791
    34   6 C        2.967    -0.027    28.661     8.781
    35   6 C        1.908     0.106    28.477     8.618
    36   7 N        0.911    -0.356    29.173     7.812
    37   6 C        2.922    -0.037    28.922     8.819
    38   6 C        2.922    -0.025    28.631     8.775
    39   1 H        0.926     0.030     2.586     2.515
    40   1 H        0.926     0.032     2.562     2.503
    41   1 H        0.926     0.048     2.343     2.394
    42   1 H        0.926     0.069     2.093     2.262
    43   1 H        0.926     0.070     2.087     2.259
    44   1 H        0.926     0.074     2.045     2.236
    45   1 H        0.926     0.080     1.978     2.199
    46   1 H        0.926     0.080     1.978     2.199
    47   1 H        0.926     0.074     2.045     2.236
    48   1 H        0.926     0.070     2.087     2.259
    49   1 H        0.926     0.069     2.093     2.262
    50   1 H        0.926     0.048     2.345     2.395
    51   1 H        0.926     0.043     2.409     2.427
    52   1 H        0.926     0.036     2.506     2.475
    53   1 H        0.926     0.030     2.583     2.513
    54   1 H        0.926     0.032     2.561     2.502
    55   1 H        0.926     0.043     2.410     2.428
    56   1 H        0.926     0.036     2.509     2.477

molecular dipole:
                 x           y           z       tot (Debye)
 q only:        9.282      -0.200       0.003
   full:        9.819      -0.209       0.003      24.962

 projected vibrational frequencies (cm⁻¹)
eigval :       -0.00    -0.00    -0.00     0.00     0.00     0.00
eigval :       11.88    18.24    20.62    25.04    27.70    36.01
eigval :       55.13    58.24    69.61    84.40    97.29   107.27
eigval :      121.28   125.78   143.62   152.85   159.97   164.91
eigval :      200.72   204.77   239.79   252.02   255.03   266.06
eigval :      276.35   288.50   307.53   307.99   344.36   371.24
eigval :      373.61   386.82   395.63   413.48   423.86   434.50
eigval :      446.79   455.50   476.22   478.14   481.79   494.04
eigval :      499.65   517.84   526.41   533.49   534.13   537.07
eigval :      562.52   564.21   571.92   591.88   603.41   612.12
eigval :      625.46   632.52   659.42   666.14   671.74   678.41
eigval :      685.30   686.48   727.76   759.19   772.58   775.73
eigval :      777.43   803.97   804.05   822.73   837.94   850.75
eigval :      852.91   854.62   856.73   861.91   873.86   876.79
eigval :      906.83   907.47   908.11   908.44   910.09   916.94
eigval :      917.29   921.10   923.44   942.31  1000.45  1002.03
eigval :     1041.50  1070.44  1073.78  1102.15  1118.27  1129.74
eigval :     1137.72  1138.83  1143.03  1147.49  1165.67  1174.29
eigval :     1184.60  1195.72  1208.55  1215.05  1229.97  1236.55
eigval :     1237.12  1243.36  1248.89  1257.46  1266.60  1267.79
eigval :     1272.47  1284.83  1304.30  1316.94  1317.98  1329.19
eigval :     1349.63  1360.68  1369.28  1393.27  1402.59  1408.60
eigval :     1408.84  1416.01  1427.09  1430.38  1464.70  1472.81
eigval :     1486.90  1498.24  1500.01  1505.44  1515.66  1529.29
eigval :     1539.45  1555.83  1589.03  2209.72  2297.21  2316.66
eigval :     3073.90  3074.17  3078.01  3078.45  3085.80  3086.44
eigval :     3088.89  3090.33  3093.35  3094.20  3102.91  3104.36
eigval :     3110.46  3110.94  3118.46  3118.85  3121.14  3121.43

   temp. (K)  partition function   enthalpy   heat capacity  entropy
                                   cal/mol     cal/K/mol   cal/K/mol   J/K/mol
 298.15  VIB  0.102E+15            17818.343    109.926    110.817
         ROT  0.235E+08              888.752      2.981     36.707
         INT  0.240E+22            18707.096    112.907    147.524
         TR   0.104E+29             1481.254      4.968     44.414
         TOT                       20188.3495   117.8754   191.9382   803.0693

       T/K    H(0)-H(T)+PV         H(T)/Eh          T*S/Eh         G(T)/Eh
   ------------------------------------------------------------------------
    298.15    0.321722E-01    0.432100E+00    0.911960E-01    0.340904E+00
   ------------------------------------------------------------------------

         :::::::::::::::::::::::::::::::::::::::::::::::::::::
         ::                  THERMODYNAMIC                  ::
         :::::::::::::::::::::::::::::::::::::::::::::::::::::
         :: total free energy         -95.135711373544 Eh   ::
         ::.................................................::
         :: total energy              -95.476614930299 Eh   ::
         :: zero point energy           0.399927397381 Eh   ::
         :: G(RRHO) w/o ZPVE           -0.059023840625 Eh   ::
         :: G(RRHO) contrib.            0.340903556755 Eh   ::
         :::::::::::::::::::::::::::::::::::::::::::::::::::::

           -------------------------------------------------
          | TOTAL ENERGY              -95.476614930299 Eh   |
          | TOTAL ENTHALPY            -95.044515350140 Eh   |
          | TOTAL FREE ENERGY         -95.135711373544 Eh   |
          | GRADIENT NORM               0.000045904197 Eh/α |
          | HOMO-LUMO GAP               0.137038501871 eV   |
           -------------------------------------------------

 * finished run on 2025/08/21 at 16:04:21.796
