   * xtb version 6.7.1 (edcfbbe) compiled by 'albert@albert-system' on 2024-07-22

   ID    Z sym.   atoms
    1    7 N      1, 10, 31, 36
    2    6 C      2-9, 11-16, 18-30, 32-35, 37, 38
    3    8 O      17
    4    1 H      39-56

          program call               : xtb data2507/toluene/mPTBC/mPTBC.xyz --gfn 2 --gbsa toluene --ohess vtight --parallel 40 --molden --ceasefiles --namespace data2507/toluene/mPTBC/mPTBC_toluene_S0_preOpt
      * Solvation model:               GBSA
        Solvent                        toluene
        Solvent mass                       9.2140E+01 g/mol
          :  Hamiltonian                  GFN2-xTB          :
 * total energy  :   -95.5373742 Eh     change       -0.5092957E-08 Eh
 * total energy  :   -95.5465097 Eh     change       -0.9135427E-02 Eh
 * total energy  :   -95.5489816 Eh     change       -0.2471984E-02 Eh
 * total energy  :   -95.5497426 Eh     change       -0.7609601E-03 Eh
 * total energy  :   -95.5500600 Eh     change       -0.3173816E-03 Eh
 * total energy  :   -95.5501636 Eh     change       -0.1036114E-03 Eh
 * total energy  :   -95.5502570 Eh     change       -0.9343954E-04 Eh
 * total energy  :   -95.5503619 Eh     change       -0.1048489E-03 Eh
 * total energy  :   -95.5505189 Eh     change       -0.1569826E-03 Eh
 * total energy  :   -95.5507647 Eh     change       -0.2457945E-03 Eh
 * total energy  :   -95.5545229 Eh     change       -0.7821126E-06 Eh
 * total energy  :   -95.5545236 Eh     change       -0.7595069E-06 Eh
 * total energy  :   -95.5545244 Eh     change       -0.7299602E-06 Eh
 * total energy  :   -95.5545251 Eh     change       -0.7073384E-06 Eh
 * total energy  :   -95.5545257 Eh     change       -0.6701878E-06 Eh
 * total energy  :   -95.5545264 Eh     change       -0.6511827E-06 Eh
 * total energy  :   -95.5545270 Eh     change       -0.6107896E-06 Eh
 * total energy  :   -95.5545276 Eh     change       -0.5954260E-06 Eh
 * total energy  :   -95.5545276 Eh     change       -0.4887397E-08 Eh
   *** GEOMETRY OPTIMIZATION CONVERGED AFTER 300 ITERATIONS ***

 final structure:
================
56
 xtb: 6.7.1 (edcfbbe)
N           -4.67676969471293        7.11713568890804        0.59918860154538
C           -4.10873723399369        6.12280133517869        0.52269869085933
C           -3.40537587506781        4.90113732553698        0.42818906673354
C           -2.34578027191639        4.77489705899021       -0.47265015182759
C           -1.66444463025687        3.57906891302026       -0.56288860556256
C           -2.02892629883364        2.49177755004748        0.23107698391819
C           -1.29480684374276        1.22106762838973        0.11723824601667
C            0.09208792645204        1.21804982837928        0.13626435964271
C            0.80321514118649        0.02710599278156        0.01244187226740
N            2.20860764036764        0.03563821588535        0.02451697847978
C            2.91596764789306        0.47250896192051        1.15167718918506
C            2.28030854067245        0.90675649063466        2.30848941191347
C            3.01282896647702        1.32035334904130        3.41091212734874
C            4.39277873616717        1.29619302981487        3.38109565006841
C            5.04278559255136        0.83572327154619        2.24580197223489
C            4.31612815100416        0.42001142713790        1.14466013485672
O            5.03359163555920       -0.05672561289890        0.07341747620151
C            4.32596857112792       -0.47295837599842       -1.02844195548893
C            5.06028780379655       -0.92511365329461       -2.11010302408839
C            4.41971622525254       -1.32807353458272       -3.27239357208871
C            3.04322778918104       -1.25495165461973       -3.35043668633267
C            2.30342280789925       -0.80469662349684       -2.26753821806303
C            2.92694830512545       -0.43196505069464       -1.08281489578027
C            0.11570428981018       -1.17676161757807       -0.12629854938970
C           -1.26997266867648       -1.20586433163104       -0.14034269722712
C           -1.97789721422793       -2.49082014431989       -0.25650781195407
C           -1.60270604613514       -3.41022885040191       -1.23589912683832
C           -2.25894799194378       -4.61771793770391       -1.35407762982039
C           -3.30109214029097       -4.92712963218530       -0.47768976940199
C           -3.97663726952047       -6.16239724177107       -0.59280484238143
N           -4.52232758226440       -7.16779039438965       -0.68575869847802
C           -3.67312411690907       -4.01895228072046        0.51526590323611
C           -3.01382259432683       -2.81161406516224        0.61985665525558
C           -1.98137628879050        0.00281198087178       -0.02952756372415
C           -3.38485171625166        0.00344526200735       -0.18303362992724
N           -4.52037114881909        0.00783467160870       -0.35750829760171
C           -3.08160919100509        2.62932990539625        1.13474255413523
C           -3.76722161741307        3.82236530055070        1.23711542646974
H           -2.06917365216566        5.61319433178335       -1.09468182726330
H           -0.85528896724135        3.47633619663651       -1.27027652142508
H            0.62588891940292        2.14948745226876        0.24905580945047
H            1.20308418003430        0.91362474112617        2.35719261841257
H            2.49139626968466        1.65600579153986        4.29408261354161
H            4.96853695685688        1.61906868929048        4.23397974932780
H            6.11899556617593        0.78327191895363        2.19570955751850
H            6.13515784918512       -0.94816051631623       -2.02306547848526
H            5.00108695606318       -1.68217684334207       -4.10889544218641
H            2.53177325921874       -1.54209375742044       -4.25634490891186
H            1.23050190129052       -0.73248722803275       -2.35096501242120
H            0.66982245885278       -2.10046977168840       -0.19710472008383
H           -0.80465640390231       -3.16655988411061       -1.92093524264272
H           -1.97550263636998       -5.32537480790417       -2.11895617277935
H           -4.47397111268666       -4.26718270266007        1.19562435667005
H           -3.29511675954520       -2.11845044444232        1.39842222981482
H           -3.35709084423709        1.80217025874461        1.77169003672285
H           -4.58221927603452        3.92754338936252        1.93753578034100

          :  Hamiltonian                  GFN2-xTB          :
         :: gradient norm              0.000060148512 Eh/a0 ::
         :: HOMO-LUMO gap              1.469083309039 eV    ::
         :: SCC energy               -97.383879229819 Eh    ::
         :: -> dispersion             -0.077433607007 Eh    ::
         :: -> Gsolv                  -0.049968106407 Eh    ::
         :: repulsion energy           1.829351623897 Eh    ::

    * Orbital Energies and Occupations

         #    Occupation            Energy/Eh            Energy/eV
      -------------------------------------------------------------
         1        2.0000           -0.7374360             -20.0667
       ...           ...                  ...                  ...
        76        2.0000           -0.4387181             -11.9381
        77        2.0000           -0.4362261             -11.8703
        78        2.0000           -0.4348217             -11.8321
        79        2.0000           -0.4344940             -11.8232
        80        2.0000           -0.4334908             -11.7959
        81        2.0000           -0.4312972             -11.7362
        82        2.0000           -0.4306477             -11.7185
        83        2.0000           -0.4235997             -11.5267
        84        2.0000           -0.4214327             -11.4678
        85        2.0000           -0.4209991             -11.4560
        86        2.0000           -0.4165503             -11.3349
        87        2.0000           -0.3987782             -10.8513
        88        2.0000           -0.3537255              -9.6254 (HOMO)
        89                         -0.2997377              -8.1563 (LUMO)
        90                         -0.2926028              -7.9621
        91                         -0.2738356              -7.4514
        92                         -0.2524899              -6.8706
        93                         -0.2516634              -6.8481
        94                         -0.2502130              -6.8086
        95                         -0.2464784              -6.7070
        96                         -0.2378653              -6.4726
        97                         -0.2245016              -6.1090
        98                         -0.2210479              -6.0150
        99                         -0.2185119              -5.9460
       ...                                ...                  ...
       170                          1.1546422              31.4194
      -------------------------------------------------------------
                  HL-Gap            0.0539878 Eh            1.4691 eV

     #   Z          covCN         q      C6AA      α(0)
     1   7 N        0.911    -0.263    26.818     7.490
     2   6 C        1.912     0.120    28.158     8.570
     3   6 C        2.974     0.020    27.552     8.610
     4   6 C        2.924    -0.017    28.424     8.743
     5   6 C        2.923    -0.027    28.682     8.783
     6   6 C        2.977     0.021    27.542     8.609
     7   6 C        2.981     0.022    27.499     8.602
     8   6 C        2.925    -0.045    29.112     8.848
     9   6 C        2.916     0.074    26.341     8.416
    10   7 N        2.751    -0.066    22.527     7.049
    11   6 C        2.920     0.040    27.098     8.536
    12   6 C        2.924    -0.060    29.489     8.905
    13   6 C        2.919    -0.038    28.945     8.823
    14   6 C        2.919    -0.039    28.962     8.825
    15   6 C        2.920    -0.056    29.398     8.891
    16   6 C        2.883     0.124    25.275     8.242
    17   8 O        1.708    -0.268    18.441     5.798
    18   6 C        2.883     0.124    25.270     8.241
    19   6 C        2.920    -0.056    29.398     8.891
    20   6 C        2.919    -0.039    28.961     8.825
    21   6 C        2.919    -0.038    28.950     8.823
    22   6 C        2.924    -0.060    29.483     8.904
    23   6 C        2.921     0.040    27.103     8.537
    24   6 C        2.926    -0.045    29.106     8.847
    25   6 C        2.981     0.022    27.501     8.602
    26   6 C        2.978     0.021    27.543     8.609
    27   6 C        2.923    -0.027    28.680     8.782
    28   6 C        2.924    -0.017    28.426     8.743
    29   6 C        2.974     0.020    27.553     8.610
    30   6 C        1.912     0.120    28.158     8.570
    31   7 N        0.911    -0.263    26.818     7.490
    32   6 C        2.925    -0.015    28.398     8.739
    33   6 C        2.923    -0.024    28.599     8.770
    34   6 C        2.978     0.002    27.981     8.677
    35   6 C        1.911     0.121    28.118     8.564
    36   7 N        0.911    -0.276    27.121     7.532
    37   6 C        2.922    -0.024    28.600     8.770
    38   6 C        2.924    -0.015    28.397     8.739
    39   1 H        0.926     0.052     2.297     2.370
    40   1 H        0.926     0.055     2.254     2.348
    41   1 H        0.926     0.061     2.192     2.315
    42   1 H        0.926     0.041     2.435     2.440
    43   1 H        0.926     0.043     2.404     2.424
    44   1 H        0.926     0.044     2.393     2.419
    45   1 H        0.926     0.050     2.319     2.381
    46   1 H        0.926     0.050     2.320     2.382
    47   1 H        0.926     0.044     2.391     2.418
    48   1 H        0.926     0.044     2.400     2.423
    49   1 H        0.926     0.040     2.452     2.448
    50   1 H        0.926     0.059     2.207     2.323
    51   1 H        0.926     0.056     2.246     2.344
    52   1 H        0.926     0.052     2.292     2.368
    53   1 H        0.926     0.050     2.316     2.380
    54   1 H        0.926     0.046     2.366     2.406
    55   1 H        0.926     0.046     2.365     2.405
    56   1 H        0.926     0.050     2.314     2.379

molecular dipole:
                 x           y           z       tot (Debye)
 q only:        2.392       0.033       0.111
   full:        3.104       0.031       0.188       7.905

 projected vibrational frequencies (cm⁻¹)
eigval :       -0.00     0.00     0.00     0.00     0.00     0.00
eigval :       15.25    19.99    22.63    29.25    32.38    38.46
eigval :       50.81    54.67    69.33    84.79    96.71   110.81
eigval :      115.27   123.29   136.62   147.96   153.76   163.28
eigval :      197.80   210.09   244.25   248.76   258.99   265.83
eigval :      273.91   284.83   287.66   323.30   326.49   365.41
eigval :      370.29   383.60   391.42   419.29   428.89   436.57
eigval :      442.02   465.58   488.57   492.90   501.47   508.27
eigval :      521.03   525.70   533.47   535.84   542.07   549.16
eigval :      571.27   578.05   584.20   606.54   610.12   629.18
eigval :      635.59   642.72   658.64   660.10   673.24   695.06
eigval :      700.29   709.16   728.36   766.75   776.23   777.20
eigval :      786.88   816.36   821.90   824.50   853.71   855.34
eigval :      861.90   864.04   866.11   870.79   873.53   893.42
eigval :      898.34   904.87   914.47   915.05   915.99   917.19
eigval :      921.26   923.89   929.55   967.24  1012.65  1016.33
eigval :     1058.93  1089.37  1090.79  1106.54  1119.15  1134.44
eigval :     1136.15  1162.72  1165.53  1172.72  1182.23  1185.93
eigval :     1186.72  1198.68  1201.16  1213.93  1222.09  1235.45
eigval :     1241.04  1250.80  1258.86  1263.05  1264.54  1274.15
eigval :     1303.13  1306.34  1311.49  1312.16  1329.00  1340.14
eigval :     1364.58  1388.73  1390.08  1414.14  1423.61  1432.15
eigval :     1442.67  1478.20  1480.70  1480.96  1499.33  1526.92
eigval :     1547.17  1549.60  1558.52  1566.98  1578.60  1586.48
eigval :     1586.55  1588.18  1600.51  2347.93  2364.33  2364.82
eigval :     3085.83  3086.46  3087.69  3087.98  3088.85  3090.09
eigval :     3096.48  3096.77  3097.45  3098.27  3098.55  3098.84
eigval :     3099.10  3099.92  3104.38  3106.02  3110.46  3111.23

   temp. (K)  partition function   enthalpy   heat capacity  entropy
                                   cal/mol     cal/K/mol   cal/K/mol   J/K/mol
 298.15  VIB  0.559E+14            17696.016    108.767    110.054
         ROT  0.470E+08              888.752      2.981     38.086
         INT  0.262E+22            18584.768    111.747    148.140
         TR   0.104E+29             1481.254      4.968     44.414
         TOT                       20066.0223   116.7156   192.5536   805.6441

       T/K    H(0)-H(T)+PV         H(T)/Eh          T*S/Eh         G(T)/Eh
   ------------------------------------------------------------------------
    298.15    0.319772E-01    0.435988E+00    0.914884E-01    0.344499E+00
   ------------------------------------------------------------------------

         :::::::::::::::::::::::::::::::::::::::::::::::::::::
         ::                  THERMODYNAMIC                  ::
         :::::::::::::::::::::::::::::::::::::::::::::::::::::
         :: total free energy         -95.210028433991 Eh   ::
         ::.................................................::
         :: total energy              -95.554527607236 Eh   ::
         :: zero point energy           0.404010347285 Eh   ::
         :: G(RRHO) w/o ZPVE           -0.059511174039 Eh   ::
         :: G(RRHO) contrib.            0.344499173246 Eh   ::
         :::::::::::::::::::::::::::::::::::::::::::::::::::::

           -------------------------------------------------
          | TOTAL ENERGY              -95.554527607236 Eh   |
          | TOTAL ENTHALPY            -95.118540018057 Eh   |
          | TOTAL FREE ENERGY         -95.210028433991 Eh   |
          | GRADIENT NORM               0.000060148707 Eh/α |
          | HOMO-LUMO GAP               1.469083060844 eV   |
           -------------------------------------------------

 * finished run on 2025/08/21 at 16:02:05.384
