   * xtb version 6.7.1 (edcfbbe) compiled by 'albert@albert-system' on 2024-07-22

   ID    Z sym.   atoms
    1    7 N      1, 10, 31, 36
    2    6 C      2-9, 11-16, 18-30, 32-35, 37, 38
    3    8 O      17
    4    1 H      39-56

          program call               : xtb data2507/toluene/mPTBC/mPTBC_toluene_T1_crest.xyz --gfn 2 --uhf 2 --gbsa toluene --ohess vtight --parallel 40 --molden --ceasefiles --namespace data2507/toluene/mPTBC/mPTBC_toluene_T1_finalOpt
      * Solvation model:               GBSA
        Solvent                        toluene
        Solvent mass                       9.2140E+01 g/mol
          :  Hamiltonian                  GFN2-xTB          :
 * total energy  :   -95.4774927 Eh     change       -0.1540444E-07 Eh
 * total energy  :   -95.4776106 Eh     change       -0.1178925E-03 Eh
 * total energy  :   -95.4776403 Eh     change       -0.2965677E-04 Eh
 * total energy  :   -95.4776457 Eh     change       -0.5396703E-05 Eh
 * total energy  :   -95.4776486 Eh     change       -0.2894759E-05 Eh
 * total energy  :   -95.4776508 Eh     change       -0.2215450E-05 Eh
 * total energy  :   -95.4776545 Eh     change       -0.3718962E-05 Eh
 * total energy  :   -95.4776589 Eh     change       -0.4381180E-05 Eh
 * total energy  :   -95.4776631 Eh     change       -0.4234058E-05 Eh
 * total energy  :   -95.4776668 Eh     change       -0.3708310E-05 Eh
 * total energy  :   -95.4776865 Eh     change       -0.2681472E-06 Eh
 * total energy  :   -95.4776867 Eh     change       -0.2598526E-06 Eh
 * total energy  :   -95.4776870 Eh     change       -0.2868022E-06 Eh
 * total energy  :   -95.4776872 Eh     change       -0.2158406E-06 Eh
 * total energy  :   -95.4776875 Eh     change       -0.2453288E-06 Eh
 * total energy  :   -95.4776878 Eh     change       -0.2886606E-06 Eh
 * total energy  :   -95.4776880 Eh     change       -0.2072376E-06 Eh
 * total energy  :   -95.4776881 Eh     change       -0.1364265E-06 Eh
 * total energy  :   -95.4776882 Eh     change       -0.9042661E-07 Eh
   *** GEOMETRY OPTIMIZATION CONVERGED AFTER 32 ITERATIONS ***

 final structure:
================
56
 xtb: 6.7.1 (edcfbbe)
N           -3.50202224702159        7.57407028407954        1.04367330155293
C           -3.06675556714173        6.52161678226555        0.86777892894704
C           -2.52846801834296        5.24419737955149        0.65783658253560
C           -3.17866339590690        4.10720501099382        1.16261870288660
C           -2.65123333257573        2.85851101417547        0.94606536665285
C           -1.45617998842296        2.68739928496169        0.22845041061250
C           -0.90068810492790        1.36518500741419        0.00008898354469
C            0.46309714259716        1.16972606316542        0.03811703370121
C            1.01138952845726       -0.11433097523194       -0.07082654518247
N            2.40888562393939       -0.28451059257344        0.01037724893544
C            2.96752571862840       -1.04167096966878        1.02160695663126
C            2.20173472997531       -1.61110972885024        2.04674244399512
C            2.80134676254268       -2.37564177103689        3.02405512796856
C            4.17878637467670       -2.58410426631196        3.01938080187400
C            4.96188714450325       -1.99642718768502        2.04558484006489
C            4.37056943925367       -1.22026412986898        1.05596851111397
O            5.18643888459239       -0.63332023987272        0.14858696779069
C            4.63447874512978        0.13725791226227       -0.81846411083941
C            5.49342910650340        0.73555597352196       -1.73290737996662
C            4.97970621765219        1.49581957461243       -2.76462821422456
C            3.60072954624259        1.63992200825294       -2.90270732338221
C            2.73824486948430        1.05395884873739       -2.00176813125819
C            3.23497873360909        0.31383768417038       -0.92165635462056
C            0.17435287766148       -1.23493775755325       -0.19612479427255
C           -1.19296765271915       -1.09364337905756       -0.26318544616967
C           -2.05037460642664       -2.26808164024327       -0.34549453198812
C           -1.67779817036691       -3.37785383948235       -1.11899069954978
C           -2.47846556710242       -4.49151358435382       -1.19587742777919
C           -3.68711495468918       -4.53763829219730       -0.48647687537202
C           -4.50792654813085       -5.67364233224855       -0.56015070277302
N           -5.17424000609183       -6.61139906643779       -0.61758282080317
C           -4.06519511493203       -3.43895672498179        0.29868957464965
C           -3.26093700208102       -2.32664987896604        0.35979103996034
C           -1.75594706872761        0.23023812438444       -0.24154258086065
C           -3.07958282511942        0.42435863107427       -0.59633366539678
N           -4.17478488975742        0.59166993570110       -0.94352145763414
C           -0.80671456914619        3.83533257837141       -0.25775067309376
C           -1.33036591145462        5.08788785403902       -0.05613661363337
H           -4.09490064931692        4.22574021720541        1.72317826137688
H           -3.15520886927374        1.99551163531686        1.35532079404026
H            1.11903991883302        2.00286865304522        0.24152300234891
H            1.13833226747795       -1.43881565612152        2.07232173074508
H            2.19388575082890       -2.80832648843115        3.80297234355894
H            4.63792696649848       -3.18777507448147        3.78540848638663
H            6.03331480628197       -2.11394330061883        2.03095635115624
H            6.55375398084055        0.58174739076111       -1.61432185232706
H            5.64653976961244        1.96216576540038       -3.47167068068020
H            3.19861452698881        2.20909131066705       -3.72573053728585
H            1.67273006832835        1.15392689538750       -2.12911158684097
H            0.61550579954996       -2.21929755601372       -0.23351141145012
H           -0.76292611474039       -3.34492774193678       -1.69185232976966
H           -2.19120247028590       -5.33578742592582       -1.80622095004472
H           -4.99182729475471       -3.47619612278988        0.85323892076583
H           -3.55843586542263       -1.49362917571865        0.97949762227123
H            0.10150537798845        3.73138128105684       -0.83243048879922
H           -0.83325355919894        5.96288846378482       -0.45014401596954

          :  Hamiltonian                  GFN2-xTB          :
         :: gradient norm              0.000064373595 Eh/a0 ::
         :: HOMO-LUMO gap              0.185087583430 eV    ::
         :: SCC energy               -97.285034240935 Eh    ::
         :: -> dispersion             -0.077547247656 Eh    ::
         :: -> Gsolv                  -0.066190523073 Eh    ::
         :: repulsion energy           1.807346031314 Eh    ::

    * Orbital Energies and Occupations

         #    Occupation            Energy/Eh            Energy/eV
      -------------------------------------------------------------
         1        2.0000           -0.7822921             -21.2873
       ...           ...                  ...                  ...
        77        2.0000           -0.4331926             -11.7878
        78        2.0000           -0.4288797             -11.6704
        79        2.0000           -0.4240059             -11.5378
        80        2.0000           -0.4206933             -11.4476
        81        2.0000           -0.4187515             -11.3948
        82        2.0000           -0.4176972             -11.3661
        83        2.0000           -0.4175333             -11.3617
        84        2.0000           -0.4154991             -11.3063
        85        2.0000           -0.4073209             -11.0838
        86        2.0000           -0.3977931             -10.8245
        87        1.9997           -0.3951041             -10.7513
        88        1.0003           -0.3798834             -10.3372
        89        0.9702           -0.2888538              -7.8601 (HOMO)
        90        0.0247           -0.2820524              -7.6750 (LUMO)
        91        0.0050           -0.2805234              -7.6334
        92                         -0.2653196              -7.2197
        93                         -0.2593054              -7.0561
        94                         -0.2494113              -6.7868
        95                         -0.2344696              -6.3802
        96                         -0.2339249              -6.3654
        97                         -0.2326415              -6.3305
        98                         -0.2298104              -6.2535
        99                         -0.2039445              -5.5496
       100                         -0.2026494              -5.5144
       ...                                ...                  ...
       170                          1.1625972              31.6359
      -------------------------------------------------------------
                  HL-Gap            0.0068014 Eh            0.1851 eV

     #   Z          covCN         q      C6AA      α(0)
     1   7 N        0.911    -0.307    27.899     7.639
     2   6 C        1.911     0.111    28.360     8.600
     3   6 C        2.971     0.001    27.998     8.679
     4   6 C        2.922    -0.023    28.587     8.768
     5   6 C        2.921    -0.030    28.741     8.791
     6   6 C        2.975     0.007    27.864     8.659
     7   6 C        2.975     0.007    27.856     8.657
     8   6 C        2.920    -0.046    29.150     8.854
     9   6 C        2.920     0.027    27.390     8.582
    10   7 N        2.752     0.028    20.763     6.768
    11   6 C        2.927     0.045    26.994     8.520
    12   6 C        2.918    -0.041    29.020     8.834
    13   6 C        2.917    -0.021    28.529     8.759
    14   6 C        2.918    -0.017    28.437     8.745
    15   6 C        2.914    -0.045    29.114     8.848
    16   6 C        2.889     0.139    24.959     8.191
    17   8 O        1.711    -0.185    17.090     5.582
    18   6 C        2.889     0.139    24.961     8.191
    19   6 C        2.914    -0.045    29.109     8.847
    20   6 C        2.918    -0.017    28.441     8.745
    21   6 C        2.917    -0.021    28.526     8.758
    22   6 C        2.918    -0.041    29.023     8.834
    23   6 C        2.928     0.045    26.996     8.521
    24   6 C        2.920    -0.047    29.156     8.855
    25   6 C        2.975     0.008    27.831     8.653
    26   6 C        2.976     0.008    27.842     8.655
    27   6 C        2.922    -0.037    28.914     8.818
    28   6 C        2.922    -0.024    28.611     8.772
    29   6 C        2.972     0.003    27.960     8.674
    30   6 C        1.912     0.112    28.337     8.597
    31   7 N        0.911    -0.303    27.796     7.625
    32   6 C        2.922    -0.023    28.573     8.766
    33   6 C        2.921    -0.029    28.722     8.789
    34   6 C        2.969    -0.027    28.684     8.785
    35   6 C        1.909     0.106    28.482     8.619
    36   7 N        0.911    -0.357    29.196     7.815
    37   6 C        2.921    -0.038    28.937     8.821
    38   6 C        2.922    -0.025    28.632     8.775
    39   1 H        0.926     0.029     2.606     2.524
    40   1 H        0.926     0.029     2.606     2.524
    41   1 H        0.926     0.048     2.344     2.394
    42   1 H        0.926     0.070     2.085     2.258
    43   1 H        0.926     0.070     2.081     2.256
    44   1 H        0.926     0.075     2.036     2.231
    45   1 H        0.926     0.081     1.969     2.194
    46   1 H        0.926     0.081     1.969     2.194
    47   1 H        0.926     0.075     2.035     2.231
    48   1 H        0.926     0.071     2.078     2.254
    49   1 H        0.926     0.070     2.084     2.258
    50   1 H        0.926     0.050     2.325     2.384
    51   1 H        0.926     0.042     2.422     2.434
    52   1 H        0.926     0.035     2.512     2.478
    53   1 H        0.926     0.031     2.578     2.511
    54   1 H        0.926     0.030     2.587     2.515
    55   1 H        0.926     0.042     2.418     2.432
    56   1 H        0.926     0.035     2.522     2.483

molecular dipole:
                 x           y           z       tot (Debye)
 q only:        9.462      -1.278       0.367
   full:        9.984      -1.349       0.469      25.636

 projected vibrational frequencies (cm⁻¹)
eigval :       -0.00    -0.00    -0.00    -0.00     0.00     0.00
eigval :       12.42    19.27    23.90    26.26    32.49    42.97
eigval :       48.32    62.58    74.07    91.14    97.53   108.28
eigval :      120.77   126.33   138.50   146.95   155.83   166.69
eigval :      201.41   208.54   236.81   250.85   252.86   265.36
eigval :      276.79   286.26   302.19   322.35   349.20   368.78
eigval :      372.13   385.65   395.83   405.01   426.74   434.08
eigval :      445.62   447.68   477.62   480.42   485.30   493.11
eigval :      500.38   519.19   527.15   534.97   536.19   536.64
eigval :      563.45   564.50   571.93   592.90   605.73   611.09
eigval :      626.23   632.23   649.49   669.89   678.10   680.35
eigval :      683.67   687.06   727.72   760.95   774.03   778.02
eigval :      779.51   803.27   805.81   823.26   840.81   850.55
eigval :      853.39   854.63   857.31   864.25   875.17   879.64
eigval :      907.54   908.63   909.21   909.79   911.13   916.45
eigval :      918.97   923.49   924.62   945.28  1000.93  1002.28
eigval :     1039.46  1075.14  1075.87  1112.78  1116.85  1127.47
eigval :     1135.82  1140.28  1147.62  1154.28  1167.00  1177.52
eigval :     1185.94  1201.48  1208.86  1215.04  1235.34  1236.43
eigval :     1237.69  1244.75  1250.73  1262.88  1266.32  1269.63
eigval :     1275.80  1283.59  1311.06  1318.88  1319.18  1326.61
eigval :     1347.61  1360.20  1371.15  1395.76  1404.59  1409.34
eigval :     1412.56  1424.98  1430.33  1431.97  1466.62  1473.56
eigval :     1492.37  1497.38  1504.56  1515.05  1524.50  1536.73
eigval :     1553.87  1558.09  1591.21  2215.55  2298.94  2319.39
eigval :     3074.07  3074.20  3076.41  3076.98  3086.26  3086.45
eigval :     3089.35  3089.42  3090.92  3092.75  3103.51  3103.74
eigval :     3110.66  3110.79  3118.36  3118.92  3120.92  3121.40

   temp. (K)  partition function   enthalpy   heat capacity  entropy
                                   cal/mol     cal/K/mol   cal/K/mol   J/K/mol
 298.15  VIB  0.560E+14            17785.717    110.044    110.404
         ROT  0.469E+08              888.752      2.981     38.081
         INT  0.262E+22            18674.469    113.025    148.485
         TR   0.104E+29             1481.254      4.968     44.414
         TOT                       20155.7230   117.9935   192.8986   807.0879

       T/K    H(0)-H(T)+PV         H(T)/Eh          T*S/Eh         G(T)/Eh
   ------------------------------------------------------------------------
    298.15    0.321202E-01    0.432495E+00    0.916524E-01    0.340843E+00
   ------------------------------------------------------------------------

         :::::::::::::::::::::::::::::::::::::::::::::::::::::
         ::                  THERMODYNAMIC                  ::
         :::::::::::::::::::::::::::::::::::::::::::::::::::::
         :: total free energy         -95.136845244245 Eh   ::
         ::.................................................::
         :: total energy              -95.477688212081 Eh   ::
         :: zero point energy           0.400375140737 Eh   ::
         :: G(RRHO) w/o ZPVE           -0.059532172901 Eh   ::
         :: G(RRHO) contrib.            0.340842967837 Eh   ::
         :::::::::::::::::::::::::::::::::::::::::::::::::::::

           -------------------------------------------------
          | TOTAL ENERGY              -95.477688212081 Eh   |
          | TOTAL ENTHALPY            -95.045192882220 Eh   |
          | TOTAL FREE ENERGY         -95.136845244245 Eh   |
          | GRADIENT NORM               0.000063274951 Eh/α |
          | HOMO-LUMO GAP               0.185075855786 eV   |
           -------------------------------------------------

 * finished run on 2025/08/21 at 16:07:37.262
