   * xtb version 6.7.1 (edcfbbe) compiled by 'albert@albert-system' on 2024-07-22

   ID    Z sym.   atoms
    1    9 F      1, 3, 4
    2    6 C      2, 5-9, 11-15, 17-20, 22-35, 37-51
    3    7 N      10, 21, 36
    4    8 O      16
    5    1 H      52-85

          program call               : xtb data2507/toluene/BICFOCz/BICFOCz_toluene_T1_crest.xyz --gfn 2 --uhf 2 --gbsa toluene --ohess vtight --parallel 40 --molden --ceasefiles --namespace data2507/toluene/BICFOCz/BICFOCz_toluene_T1_finalOpt
      * Solvation model:               GBSA
        Solvent                        toluene
        Solvent mass                       9.2140E+01 g/mol
          :  Hamiltonian                  GFN2-xTB          :
 * total energy  :  -138.6359622 Eh     change       -0.1526359E-08 Eh
 * total energy  :  -138.6360701 Eh     change       -0.1078350E-03 Eh
 * total energy  :  -138.6361436 Eh     change       -0.7349734E-04 Eh
 * total energy  :  -138.6361803 Eh     change       -0.3671243E-04 Eh
 * total energy  :  -138.6362144 Eh     change       -0.3409907E-04 Eh
 * total energy  :  -138.6362624 Eh     change       -0.4799573E-04 Eh
 * total energy  :  -138.6362993 Eh     change       -0.3694561E-04 Eh
 * total energy  :  -138.6363166 Eh     change       -0.1723795E-04 Eh
 * total energy  :  -138.6363353 Eh     change       -0.1877945E-04 Eh
 * total energy  :  -138.6363502 Eh     change       -0.1482025E-04 Eh
 * total energy  :  -138.6364162 Eh     change       -0.7450959E-06 Eh
 * total energy  :  -138.6364165 Eh     change       -0.3318174E-06 Eh
 * total energy  :  -138.6364168 Eh     change       -0.2989334E-06 Eh
 * total energy  :  -138.6364172 Eh     change       -0.3618445E-06 Eh
 * total energy  :  -138.6364176 Eh     change       -0.3794819E-06 Eh
 * total energy  :  -138.6364179 Eh     change       -0.3324743E-06 Eh
 * total energy  :  -138.6364181 Eh     change       -0.2125275E-06 Eh
 * total energy  :  -138.6364183 Eh     change       -0.1381246E-06 Eh
 * total energy  :  -138.6364183 Eh     change       -0.1757022E-07 Eh
   *** GEOMETRY OPTIMIZATION CONVERGED AFTER 34 ITERATIONS ***

 final structure:
================
85
 xtb: 6.7.1 (edcfbbe)
F           -3.67281101179032       -4.76947564181071        0.06885708015915
C           -2.41122656648504       -4.36755913560193        0.35754558070435
F           -2.46810508307239       -3.87797699203423        1.60932112027575
F           -1.68998960112946       -5.50431135760087        0.44003559510158
C           -1.87261718019375       -3.39942301272287       -0.64630849229515
C           -1.39782047179810       -3.88700950140860       -1.86609984109379
C           -0.91073465094055       -2.98126048535050       -2.80220991136674
C           -0.90333775859923       -1.63049743356672       -2.54002763022981
C           -1.38728915359944       -1.13952277881326       -1.31078179740434
N           -1.41046013314847        0.22124494872515       -1.05629782996676
C           -0.35483984648451        1.15088530125793       -1.23418944769491
C            0.99627976216352        0.90817313795763       -1.52948757562512
C            1.63207223057296       -0.36177372366260       -1.56099043141748
C            2.97600905542673       -0.46740674476289       -1.79315256989552
C            3.77849683711635        0.66864694708630       -1.97656672367648
O            5.10558924246683        0.44909981084381       -2.16543112627924
C            6.02190100943909        1.46141536100422       -1.77778216387975
C            5.93037970702627        1.73610335132063       -0.27412772720738
C            6.28034410471691        0.48441045849873        0.53472373258972
C            5.54544845785608        0.43008033421566        1.88061925770850
N            4.15203870859612        0.09767591568333        1.72570035040169
C            3.67937552460201       -1.17486190983653        1.50581402081016
C            4.37777029952787       -2.36583914939687        1.35251576861304
C            3.64907059838337       -3.52185162843450        1.14622771268719
C            2.25634881855619       -3.50651200503181        1.09561300194677
C            1.55469301422730       -2.32786587589379        1.25712485257968
C            2.26485792638848       -1.15248781026654        1.46100847478976
C            1.87792704638274        0.21347681284280        1.66750765156323
C            0.64892193609786        0.85040248898203        1.76329082076165
C            0.62320681936192        2.21184335068613        1.99227238913854
C            1.80665027937968        2.93511665670847        2.12011104072150
C            3.04227620706705        2.32228317370906        2.03968344705669
C            3.07858700369290        0.95104439199921        1.81708473237377
C            3.16824108154346        1.93478055501131       -1.94723096735653
C            1.82419324557063        2.04762349836432       -1.73605288397492
N           -0.79132164138396        2.39061944639198       -0.94691020872928
C           -2.03482708656539        2.30656597926053       -0.51158356435130
C           -2.78306213525204        3.50414905058640       -0.19281789664701
C           -2.08355838356335        4.62950260554923        0.25878497948681
C           -2.75187800503641        5.79761431137608        0.56051228142393
C           -4.12879002839409        5.87375945489760        0.40181824635351
C           -4.82733173894431        4.77628182637345       -0.07798327981140
C           -4.16636206465709        3.60064065081567       -0.37663295159546
C           -2.47500004430399        0.93280102801154       -0.52951997893097
C           -3.74052395982920        0.39315337741408       -0.15515227859668
C           -4.37197265820310       -0.63786571779402       -0.88321380996511
C           -5.59477643633368       -1.12930208152001       -0.48680873784365
C           -6.22694630763958       -0.62933023505873        0.64624791615182
C           -5.62309520589541        0.39178033727227        1.37216181266457
C           -4.40642105814525        0.90127318088711        0.98179311097475
C           -1.87724155293218       -2.04819680905943       -0.36257002816234
H           -1.41099195078220       -4.94562389257156       -2.06745272209126
H           -0.54583614479005       -3.34430929173343       -3.75024094696427
H           -0.54165689678190       -0.92909865163086       -3.27627950479210
H            1.07530493504218       -1.25689285353846       -1.34826560062485
H            3.45270154936857       -1.43561268250196       -1.79878555973311
H            5.86005934626203        2.38029255864770       -2.35233552386119
H            7.00150458193234        1.05403500409095       -2.03925265616194
H            6.59596627761231        2.56123457685220       -0.02019694461143
H            4.90554580285684        2.03756486098834       -0.04868169508184
H            5.99829195578591       -0.39829024994477       -0.04233350925632
H            7.35537551777484        0.44204375695915        0.71305050283130
H            5.62104373410580        1.39129575850543        2.39230269286305
H            6.00815472200579       -0.33188124097978        2.51624725358638
H            5.45562444866024       -2.39960067195071        1.39237215213363
H            4.16921400067656       -4.46056759285233        1.02185979059374
H            1.72212645817741       -4.43150108133207        0.93319099613207
H            0.47464536867115       -2.31737136067591        1.22529300193502
H           -0.26697360900189        0.28415085314180        1.67427244873174
H           -0.32344873141648        2.72432735610355        2.07493677680243
H            1.75679448319917        3.99967726342278        2.29571013826948
H            3.94493101624241        2.90317612888416        2.15527841720769
H            3.75262314870074        2.82790850430741       -2.10474813095777
H            1.34965804506678        3.01510525974627       -1.72004602853274
H           -1.01325442055843        4.55383179028372        0.37227622908835
H           -2.20195082087784        6.65429664965078        0.92186449317805
H           -4.65308705685463        6.78722795037542        0.64053983238767
H           -5.89562430960124        4.83856196020230       -0.22632285064992
H           -4.71541558179817        2.76371299803399       -0.77987900129758
H           -3.91389450328220       -1.00944484120140       -1.78741566831606
H           -6.06647262351847       -1.91040287799054       -1.06561099793450
H           -7.17931982317146       -1.02992739939426        0.95809486604550
H           -6.10663851263157        0.78240989117282        2.25569740935022
H           -3.92943386860841        1.67454212382704        1.56538836457966
H           -2.23855111793616       -1.69435450820084        0.59085264631001

          :  Hamiltonian                  GFN2-xTB          :
         :: gradient norm              0.000190157307 Eh/a0 ::
         :: HOMO-LUMO gap              0.567600103100 eV    ::
         :: SCC energy              -140.827459828955 Eh    ::
         :: -> dispersion             -0.132054757148 Eh    ::
         :: -> Gsolv                  -0.047677101769 Eh    ::
         :: repulsion energy           2.191041548971 Eh    ::

    * Orbital Energies and Occupations

         #    Occupation            Energy/Eh            Energy/eV
      -------------------------------------------------------------
         1        2.0000           -0.8841961             -24.0602
       ...           ...                  ...                  ...
       115        2.0000           -0.4179246             -11.3723
       116        2.0000           -0.4159489             -11.3185
       117        2.0000           -0.4125141             -11.2251
       118        2.0000           -0.4118889             -11.2081
       119        2.0000           -0.4075870             -11.0910
       120        2.0000           -0.4060062             -11.0480
       121        2.0000           -0.3981027             -10.8329
       122        2.0000           -0.3925326             -10.6814
       123        2.0000           -0.3858319             -10.4990
       124        2.0000           -0.3790032             -10.3132
       125        1.9854           -0.3646614              -9.9229
       126        1.0146           -0.3566612              -9.7052
       127        1.0000           -0.2762455              -7.5170 (HOMO)
       128        0.0000           -0.2553866              -6.9494 (LUMO)
       129        0.0000           -0.2531265              -6.8879
       130                         -0.2458243              -6.6892
       131                         -0.2416282              -6.5750
       132                         -0.2284044              -6.2152
       133                         -0.2269430              -6.1754
       134                         -0.2233192              -6.0768
       135                         -0.2230661              -6.0699
       136                         -0.2204099              -5.9977
       137                         -0.1953860              -5.3167
       138                         -0.1870413              -5.0897
       ...                                ...                  ...
       238                          0.7447777              20.2664
      -------------------------------------------------------------
                  HL-Gap            0.0208589 Eh            0.5676 eV

     #   Z          covCN         q      C6AA      α(0)
     1   9 F        0.791    -0.228    11.525     4.010
     2   6 C        3.338     0.485    17.270     6.578
     3   9 F        0.791    -0.221    11.453     3.998
     4   9 F        0.791    -0.221    11.457     3.998
     5   6 C        2.974    -0.034    28.853     8.811
     6   6 C        2.918    -0.044    29.096     8.846
     7   6 C        2.917    -0.025    28.626     8.774
     8   6 C        2.918    -0.043    29.075     8.842
     9   6 C        2.908     0.057    26.730     8.478
    10   7 N        2.806    -0.052    22.250     7.006
    11   6 C        3.104     0.124    25.165     8.220
    12   6 C        2.969    -0.007    28.192     8.709
    13   6 C        2.915    -0.040    28.994     8.830
    14   6 C        2.913    -0.048    29.203     8.861
    15   6 C        2.862     0.144    24.857     8.172
    16   8 O        1.704    -0.272    18.509     5.809
    17   6 C        3.694     0.073    19.536     6.324
    18   6 C        3.800    -0.070    21.847     6.655
    19   6 C        3.802    -0.067    21.788     6.645
    20   6 C        3.739    -0.005    20.745     6.499
    21   7 N        2.796    -0.040    22.003     6.967
    22   6 C        3.084     0.045    26.890     8.501
    23   6 C        2.910    -0.052    29.284     8.873
    24   6 C        2.923    -0.035    28.867     8.811
    25   6 C        2.919    -0.042    29.042     8.837
    26   6 C        2.912    -0.033    28.822     8.803
    27   6 C        3.068    -0.019    28.404     8.739
    28   6 C        3.071    -0.020    28.441     8.744
    29   6 C        2.912    -0.031    28.769     8.795
    30   6 C        2.920    -0.038    28.938     8.821
    31   6 C        2.923    -0.034    28.842     8.807
    32   6 C        2.910    -0.054    29.333     8.881
    33   6 C        3.079     0.045    26.917     8.506
    34   6 C        2.910    -0.059    29.457     8.900
    35   6 C        2.929    -0.034    28.836     8.806
    36   7 N        1.890    -0.290    28.365     7.895
    37   6 C        3.120     0.082    26.001     8.351
    38   6 C        2.974     0.008    27.839     8.655
    39   6 C        2.927    -0.027    28.675     8.782
    40   6 C        2.917    -0.028    28.700     8.785
    41   6 C        2.919    -0.027    28.675     8.781
    42   6 C        2.917    -0.028    28.707     8.786
    43   6 C        2.921    -0.032    28.807     8.802
    44   6 C        3.021     0.025    27.418     8.589
    45   6 C        2.966    -0.002    28.064     8.689
    46   6 C        2.920    -0.038    28.946     8.823
    47   6 C        2.915    -0.030    28.738     8.791
    48   6 C        2.918    -0.034    28.839     8.806
    49   6 C        2.914    -0.029    28.735     8.790
    50   6 C        2.923    -0.034    28.857     8.809
    51   6 C        2.920    -0.039    28.975     8.827
    52   1 H        0.926     0.047     2.361     2.403
    53   1 H        0.926     0.057     2.238     2.340
    54   1 H        0.926     0.051     2.311     2.377
    55   1 H        0.926     0.040     2.445     2.445
    56   1 H        0.926     0.047     2.353     2.399
    57   1 H        0.924     0.043     2.410     2.428
    58   1 H        0.924     0.063     2.159     2.298
    59   1 H        0.925     0.052     2.295     2.369
    60   1 H        0.924     0.053     2.287     2.365
    61   1 H        0.924     0.058     2.228     2.334
    62   1 H        0.924     0.053     2.286     2.364
    63   1 H        0.924     0.061     2.185     2.311
    64   1 H        0.924     0.057     2.239     2.340
    65   1 H        0.926     0.038     2.478     2.462
    66   1 H        0.926     0.032     2.554     2.499
    67   1 H        0.926     0.022     2.696     2.568
    68   1 H        0.926     0.015     2.806     2.620
    69   1 H        0.926     0.013     2.834     2.633
    70   1 H        0.926     0.026     2.651     2.546
    71   1 H        0.926     0.036     2.509     2.477
    72   1 H        0.926     0.037     2.492     2.469
    73   1 H        0.926     0.051     2.303     2.373
    74   1 H        0.926     0.062     2.181     2.309
    75   1 H        0.926     0.052     2.299     2.371
    76   1 H        0.926     0.041     2.432     2.439
    77   1 H        0.926     0.040     2.446     2.446
    78   1 H        0.926     0.038     2.479     2.462
    79   1 H        0.926     0.033     2.539     2.492
    80   1 H        0.926     0.025     2.662     2.551
    81   1 H        0.926     0.032     2.564     2.504
    82   1 H        0.926     0.034     2.531     2.488
    83   1 H        0.926     0.036     2.504     2.475
    84   1 H        0.926     0.032     2.559     2.501
    85   1 H        0.926     0.042     2.416     2.431

molecular dipole:
                 x           y           z       tot (Debye)
 q only:        3.184       2.905      -0.457
   full:        2.814       2.472      -0.373       9.568

 projected vibrational frequencies (cm⁻¹)
eigval :       -0.00    -0.00    -0.00     0.00     0.00     0.00
eigval :        8.60    14.41    20.07    22.46    25.97    26.56
eigval :       30.60    34.89    41.47    49.03    52.51    58.09
eigval :       64.40    75.67    85.93    90.78   102.68   108.61
eigval :      117.14   124.71   143.91   151.99   157.31   161.97
eigval :      172.43   189.35   204.12   211.18   218.37   228.69
eigval :      235.82   244.10   254.52   264.25   272.09   279.86
eigval :      298.13   309.88   312.60   326.13   335.61   339.92
eigval :      360.50   374.07   381.27   383.64   388.33   394.15
eigval :      400.51   414.89   427.29   429.94   433.81   448.70
eigval :      457.51   467.71   472.35   485.19   487.83   518.84
eigval :      523.79   529.11   539.80   543.66   555.44   571.28
eigval :      578.14   581.54   584.61   587.52   591.84   592.91
eigval :      603.79   608.18   631.04   640.74   645.95   650.73
eigval :      663.15   667.78   672.75   673.33   681.18   707.43
eigval :      719.91   732.17   745.41   757.68   760.80   764.50
eigval :      768.50   773.34   776.13   795.00   797.14   812.87
eigval :      822.92   840.61   851.97   858.23   862.38   867.08
eigval :      871.19   877.14   882.51   884.01   899.81   900.29
eigval :      903.15   904.92   907.39   915.06   917.95   920.59
eigval :      921.71   922.17   923.73   927.65   929.66   930.46
eigval :      939.61   960.41   966.86   974.76   982.37   984.07
eigval :      994.71  1004.40  1022.94  1028.07  1056.07  1061.21
eigval :     1070.01  1072.65  1074.79  1077.00  1079.49  1081.46
eigval :     1086.54  1107.21  1114.35  1115.99  1119.54  1124.18
eigval :     1136.31  1150.89  1156.42  1160.80  1163.53  1172.57
eigval :     1176.17  1176.33  1178.97  1181.34  1184.47  1191.86
eigval :     1195.11  1198.07  1218.56  1220.40  1225.80  1232.41
eigval :     1238.27  1245.05  1261.48  1262.03  1271.90  1273.98
eigval :     1275.66  1293.50  1299.94  1302.62  1315.18  1317.39
eigval :     1322.04  1323.03  1324.34  1327.67  1333.30  1341.91
eigval :     1348.65  1361.14  1365.21  1370.03  1372.12  1393.22
eigval :     1398.00  1411.59  1420.25  1422.97  1423.91  1430.23
eigval :     1435.51  1438.26  1454.74  1456.87  1463.12  1464.10
eigval :     1472.39  1474.21  1474.79  1476.66  1478.32  1487.96
eigval :     1514.09  1529.71  1555.51  1559.15  1561.13  1570.37
eigval :     1578.95  1586.86  1593.21  1596.63  1611.91  2916.67
eigval :     2944.87  2975.25  2984.49  2990.16  2995.14  3002.32
eigval :     3004.78  3068.58  3070.00  3072.54  3073.96  3074.53
eigval :     3075.09  3075.41  3076.84  3083.40  3083.65  3086.62
eigval :     3088.75  3089.15  3090.68  3092.47  3093.67  3094.78
eigval :     3096.68  3098.12  3098.49  3099.02  3101.16  3103.44
eigval :     3113.75  3117.27  3142.45

   temp. (K)  partition function   enthalpy   heat capacity  entropy
                                   cal/mol     cal/K/mol   cal/K/mol   J/K/mol
 298.15  VIB  0.171E+21            25290.221    156.052    158.149
         ROT  0.685E+08              888.752      2.981     38.836
         INT  0.117E+29            26178.974    159.033    196.985
         TR   0.171E+29             1481.254      4.968     45.401
         TOT                       27660.2275   164.0014   242.3870  1014.1471

       T/K    H(0)-H(T)+PV         H(T)/Eh          T*S/Eh         G(T)/Eh
   ------------------------------------------------------------------------
    298.15    0.440794E-01    0.693218E+00    0.115166E+00    0.578052E+00
   ------------------------------------------------------------------------

         :::::::::::::::::::::::::::::::::::::::::::::::::::::
         ::                  THERMODYNAMIC                  ::
         :::::::::::::::::::::::::::::::::::::::::::::::::::::
         :: total free energy        -138.058366059595 Eh   ::
         ::.................................................::
         :: total energy             -138.636418278365 Eh   ::
         :: zero point energy           0.649138714028 Eh   ::
         :: G(RRHO) w/o ZPVE           -0.071086495257 Eh   ::
         :: G(RRHO) contrib.            0.578052218770 Eh   ::
         :::::::::::::::::::::::::::::::::::::::::::::::::::::

           -------------------------------------------------
          | TOTAL ENERGY             -138.636418278365 Eh   |
          | TOTAL ENTHALPY           -137.943200185994 Eh   |
          | TOTAL FREE ENERGY        -138.058366059595 Eh   |
          | GRADIENT NORM               0.000190126621 Eh/α |
          | HOMO-LUMO GAP               0.567600001277 eV   |
           -------------------------------------------------

 * finished run on 2025/09/13 at 05:07:24.047
