   * xtb version 6.7.1 (edcfbbe) compiled by 'albert@albert-system' on 2024-07-22

   ID    Z sym.   atoms
    1    9 F      1, 3, 4
    2    6 C      2, 5-9, 11-15, 17-20, 22-35, 37-51
    3    7 N      10, 21, 36
    4    8 O      16
    5    1 H      52-85

          program call               : xtb data2507/toluene/BICFOCz/BICFOCz_toluene_S0_crest.xyz --gfn 2 --gbsa toluene --ohess vtight --parallel 40 --molden --ceasefiles --namespace data2507/toluene/BICFOCz/BICFOCz_toluene_S0_finalOpt
      * Solvation model:               GBSA
        Solvent                        toluene
        Solvent mass                       9.2140E+01 g/mol
          :  Hamiltonian                  GFN2-xTB          :
 * total energy  :  -138.7254389 Eh     change       -0.3049621E-08 Eh
 * total energy  :  -138.7255342 Eh     change       -0.9528984E-04 Eh
 * total energy  :  -138.7255944 Eh     change       -0.6024950E-04 Eh
 * total energy  :  -138.7256194 Eh     change       -0.2495574E-04 Eh
 * total energy  :  -138.7256420 Eh     change       -0.2258767E-04 Eh
 * total energy  :  -138.7256711 Eh     change       -0.2910836E-04 Eh
 * total energy  :  -138.7256793 Eh     change       -0.8166286E-05 Eh
 * total energy  :  -138.7256887 Eh     change       -0.9441421E-05 Eh
 * total energy  :  -138.7256923 Eh     change       -0.3547437E-05 Eh
 * total energy  :  -138.7256967 Eh     change       -0.4408251E-05 Eh
 * total energy  :  -138.7257280 Eh     change       -0.2123138E-06 Eh
 * total energy  :  -138.7257282 Eh     change       -0.2485127E-06 Eh
 * total energy  :  -138.7257285 Eh     change       -0.2915665E-06 Eh
 * total energy  :  -138.7257288 Eh     change       -0.2813252E-06 Eh
 * total energy  :  -138.7257290 Eh     change       -0.2492411E-06 Eh
 * total energy  :  -138.7257293 Eh     change       -0.2289309E-06 Eh
 * total energy  :  -138.7257295 Eh     change       -0.2338823E-06 Eh
 * total energy  :  -138.7257298 Eh     change       -0.2477115E-06 Eh
 * total energy  :  -138.7257298 Eh     change       -0.1561517E-08 Eh
   *** GEOMETRY OPTIMIZATION CONVERGED AFTER 44 ITERATIONS ***

 final structure:
================
85
 xtb: 6.7.1 (edcfbbe)
F           -2.51643007704050       -5.92942952385387        1.23877653784502
C           -1.61013390564551       -4.93935194423189        1.12739939557271
F           -1.35740005396369       -4.52389485377874        2.37885701632397
F           -0.47547765774875       -5.53507490260361        0.69929539510783
C           -2.05655456265695       -3.84170950397764        0.20732844019302
C           -2.68475403793209       -4.17514152289215       -0.98731013582475
C           -3.06871755450190       -3.16528144353766       -1.85261335603517
C           -2.82329889784256       -1.84074199101268       -1.53801436812180
C           -2.19645896394836       -1.51382277287795       -0.33843560120036
N           -1.95373761789729       -0.17554726101986       -0.00275315439403
C           -0.77010717075278        0.37574879837656        0.43132108764294
C            0.48794378477471       -0.34577645659224        0.53004749401798
C            0.85231893721933       -1.33162313491438       -0.38851611844239
C            2.06043524074733       -1.97821742162551       -0.27457909933241
C            2.94977299399185       -1.66139366091860        0.75558652030520
O            4.10190590291549       -2.38423788532492        0.76710012118459
C            5.18517565318721       -1.99547350385882        1.59551873864679
C            5.82054624702223       -0.67577079183267        1.15012233234690
C            6.25490222291997       -0.72422068679561       -0.31702831900060
C            6.24425804852526        0.66704630101335       -0.96559062669536
N            4.91453856611639        1.21815402584624       -1.00359107915576
C            4.36672860259746        2.08598884885925       -0.08504002378221
C            4.96908405471002        2.78383380266987        0.95530774326647
C            4.17226547554575        3.59441838709377        1.74086692955039
C            2.80159090351565        3.70910002173486        1.51494511469234
C            2.19639174963991        3.02952013116470        0.47717331296171
C            2.98123680962856        2.22550703087031       -0.33821183399353
C            2.69303679216448        1.40397610822335       -1.47697150930679
C            1.53780203556163        1.15343792247155       -2.20425510903198
C            1.60711170808039        0.28883832461413       -3.27815406898590
C            2.80981093827513       -0.32180619325991       -3.62800062155015
C            3.97355073528058       -0.08319759387652       -2.92271061010763
C            3.91314702115587        0.78806745311433       -1.84304303003521
C            2.59264475260682       -0.67518836341228        1.67102040008919
C            1.37947010818894       -0.02521903951754        1.54924804707342
N           -0.91960840570421        1.64701092048282        0.69956822054759
C           -2.22381609614642        1.96405329784210        0.44809341489183
C           -2.73349710175756        3.30468216265667        0.70425166036918
C           -1.87303248815705        4.39762259287398        0.61370952519929
C           -2.33183389990975        5.67649556202944        0.86517613544889
C           -3.65670918125717        5.88481367893096        1.21290898296754
C           -4.51654333902230        4.80314350520222        1.31815408709484
C           -4.06112882278640        3.52175396225686        1.07051306774264
C           -2.89032093140870        0.84133274539963       -0.00622642904105
C           -4.27397609907969        0.64961390507926       -0.42406964109810
C           -5.04416980486200       -0.39107770676815        0.09268660393990
C           -6.35438332285321       -0.55869722499676       -0.31685749825974
C           -6.91186019781321        0.30635685042905       -1.24391378392483
C           -6.15417594359092        1.34692546705381       -1.75827525209328
C           -4.84414318374545        1.51920303830634       -1.35375465540622
C           -1.81386460103998       -2.51997446694278        0.54418635853144
H           -2.86959124636546       -5.21037629417789       -1.22736937483910
H           -3.55679220523842       -3.41283770237486       -2.78167923851300
H           -3.11119468200627       -1.05509228012601       -2.21935887384406
H            0.20427267608271       -1.57587801556470       -1.21589475910585
H            2.34851221088171       -2.73747471341244       -0.98462652911464
H            5.90007368976084       -2.81623512379698        1.49122477278764
H            4.87041337954866       -1.93711110850502        2.64444126355627
H            5.08634075715996        0.12021136452656        1.27702192242297
H            6.66966238527790       -0.46209923404437        1.80020816750327
H            7.25292100872723       -1.15516696655324       -0.40538381211899
H            5.55942665626114       -1.36305167461361       -0.86527606872217
H            6.62596674413133        0.59828252702824       -1.98898224193455
H            6.88687148714071        1.34948970248453       -0.40617769734215
H            6.02631690386424        2.69888671644935        1.15847005595785
H            4.62150512568511        4.14441071978523        2.55559239762002
H            2.20892053311817        4.33683748404726        2.16454645840476
H            1.13162666583902        3.08557140012572        0.31500171109959
H            0.60873371918660        1.62992932036008       -1.92778565014037
H            0.72054487631092        0.07981351910169       -3.85994002824410
H            2.83273195144189       -0.99562823161232       -4.47270309079621
H            4.89710166542013       -0.56056430841865       -3.21388606399391
H            3.24450960800584       -0.40629679145249        2.48695143162993
H            1.10835772046323        0.74587170281417        2.25345381402852
H           -0.84273280198215        4.22806190390672        0.34196751168516
H           -1.65375125004206        6.51444572504251        0.78829048555106
H           -4.01685607972157        6.88457747204420        1.40753216093664
H           -5.54789135445816        4.95799264890304        1.60148276161557
H           -4.73320907484451        2.68277141909178        1.17367734545968
H           -4.62002442076873       -1.05857599135102        0.82947476240858
H           -6.94259959946037       -1.36634812725818        0.09368172965055
H           -7.93501294682521        0.17249815554257       -1.56208313858270
H           -6.58526119954591        2.02593659071593       -2.47921835328086
H           -4.24952814194277        2.32833205215966       -1.75251377098336
H           -1.33329367681895       -2.26915096154500        1.47734922491658

          :  Hamiltonian                  GFN2-xTB          :
         :: gradient norm              0.000031369558 Eh/a0 ::
         :: HOMO-LUMO gap              2.286600336379 eV    ::
         :: SCC energy              -140.938347615440 Eh    ::
         :: -> dispersion             -0.128259984102 Eh    ::
         :: -> Gsolv                  -0.048402120082 Eh    ::
         :: repulsion energy           2.212617861415 Eh    ::

    * Orbital Energies and Occupations

         #    Occupation            Energy/Eh            Energy/eV
      -------------------------------------------------------------
         1        2.0000           -0.8903928             -24.2288
       ...           ...                  ...                  ...
       114        2.0000           -0.4161437             -11.3238
       115        2.0000           -0.4134299             -11.2500
       116        2.0000           -0.4126481             -11.2287
       117        2.0000           -0.4119200             -11.2089
       118        2.0000           -0.4103630             -11.1665
       119        2.0000           -0.4051337             -11.0242
       120        2.0000           -0.4016086             -10.9283
       121        2.0000           -0.3983772             -10.8404
       122        2.0000           -0.3881317             -10.5616
       123        2.0000           -0.3827034             -10.4139
       124        2.0000           -0.3720425             -10.1238
       125        2.0000           -0.3648095              -9.9270
       126        2.0000           -0.3573354              -9.7236 (HOMO)
       127                         -0.2733044              -7.4370 (LUMO)
       128                         -0.2674498              -7.2777
       129                         -0.2492629              -6.7828
       130                         -0.2414858              -6.5712
       131                         -0.2390652              -6.5053
       132                         -0.2307303              -6.2785
       133                         -0.2297391              -6.2515
       134                         -0.2217570              -6.0343
       135                         -0.2195432              -5.9741
       136                         -0.2157220              -5.8701
       137                         -0.1890499              -5.1443
       ...                                ...                  ...
       238                          0.7531061              20.4931
      -------------------------------------------------------------
                  HL-Gap            0.0840310 Eh            2.2866 eV

     #   Z          covCN         q      C6AA      α(0)
     1   9 F        0.791    -0.214    11.385     3.986
     2   6 C        3.337     0.486    17.269     6.580
     3   9 F        0.791    -0.214    11.383     3.985
     4   9 F        0.791    -0.219    11.433     3.994
     5   6 C        2.977    -0.022    28.540     8.763
     6   6 C        2.920    -0.023    28.579     8.767
     7   6 C        2.920    -0.017    28.438     8.745
     8   6 C        2.921    -0.030    28.745     8.792
     9   6 C        2.913     0.077    26.281     8.406
    10   7 N        2.851    -0.042    22.050     6.974
    11   6 C        3.145     0.132    24.874     8.160
    12   6 C        2.972    -0.011    28.293     8.725
    13   6 C        2.922    -0.035    28.869     8.811
    14   6 C        2.920    -0.055    29.377     8.888
    15   6 C        2.858     0.148    24.780     8.159
    16   8 O        1.705    -0.285    18.739     5.845
    17   6 C        3.688     0.075    19.511     6.322
    18   6 C        3.800    -0.070    21.843     6.654
    19   6 C        3.802    -0.065    21.746     6.639
    20   6 C        3.740    -0.001    20.683     6.489
    21   7 N        2.796    -0.054    22.278     7.010
    22   6 C        3.080     0.044    26.921     8.506
    23   6 C        2.910    -0.057    29.411     8.893
    24   6 C        2.923    -0.037    28.925     8.820
    25   6 C        2.920    -0.044    29.086     8.844
    26   6 C        2.912    -0.035    28.867     8.810
    27   6 C        3.071    -0.021    28.452     8.746
    28   6 C        3.071    -0.021    28.454     8.746
    29   6 C        2.912    -0.034    28.856     8.809
    30   6 C        2.920    -0.046    29.139     8.852
    31   6 C        2.923    -0.038    28.935     8.821
    32   6 C        2.910    -0.054    29.353     8.884
    33   6 C        3.083     0.046    26.883     8.500
    34   6 C        2.916    -0.063    29.578     8.918
    35   6 C        2.928    -0.029    28.721     8.789
    36   7 N        1.911    -0.305    28.740     7.948
    37   6 C        3.160     0.055    26.450     8.408
    38   6 C        2.972     0.007    27.862     8.658
    39   6 C        2.927    -0.030    28.751     8.793
    40   6 C        2.918    -0.031    28.764     8.795
    41   6 C        2.919    -0.033    28.813     8.802
    42   6 C        2.919    -0.031    28.770     8.796
    43   6 C        2.924    -0.038    28.953     8.824
    44   6 C        3.061     0.013    27.667     8.626
    45   6 C        2.971     0.006    27.895     8.663
    46   6 C        2.923    -0.036    28.885     8.814
    47   6 C        2.918    -0.029    28.726     8.789
    48   6 C        2.920    -0.030    28.744     8.792
    49   6 C        2.918    -0.027    28.688     8.783
    50   6 C        2.925    -0.032    28.806     8.802
    51   6 C        2.923    -0.034    28.855     8.809
    52   1 H        0.926     0.070     2.084     2.257
    53   1 H        0.926     0.076     2.016     2.220
    54   1 H        0.926     0.068     2.105     2.269
    55   1 H        0.926     0.033     2.543     2.494
    56   1 H        0.926     0.047     2.357     2.401
    57   1 H        0.924     0.059     2.209     2.324
    58   1 H        0.924     0.036     2.509     2.477
    59   1 H        0.924     0.050     2.316     2.380
    60   1 H        0.924     0.047     2.352     2.398
    61   1 H        0.924     0.048     2.340     2.392
    62   1 H        0.924     0.053     2.285     2.364
    63   1 H        0.924     0.052     2.297     2.370
    64   1 H        0.924     0.057     2.235     2.338
    65   1 H        0.926     0.028     2.618     2.530
    66   1 H        0.926     0.027     2.629     2.536
    67   1 H        0.926     0.025     2.665     2.553
    68   1 H        0.926     0.040     2.447     2.446
    69   1 H        0.926     0.020     2.730     2.584
    70   1 H        0.926     0.021     2.720     2.579
    71   1 H        0.926     0.027     2.627     2.535
    72   1 H        0.926     0.029     2.599     2.521
    73   1 H        0.926     0.046     2.376     2.411
    74   1 H        0.926     0.050     2.319     2.382
    75   1 H        0.926     0.042     2.428     2.437
    76   1 H        0.926     0.033     2.544     2.494
    77   1 H        0.926     0.032     2.556     2.500
    78   1 H        0.926     0.031     2.572     2.508
    79   1 H        0.926     0.026     2.650     2.545
    80   1 H        0.926     0.023     2.681     2.560
    81   1 H        0.926     0.036     2.500     2.473
    82   1 H        0.926     0.038     2.470     2.458
    83   1 H        0.926     0.039     2.467     2.456
    84   1 H        0.926     0.033     2.547     2.496
    85   1 H        0.926     0.061     2.188     2.313

molecular dipole:
                 x           y           z       tot (Debye)
 q only:        0.497       0.369      -1.157
   full:        0.321       0.046      -1.075       2.854

 projected vibrational frequencies (cm⁻¹)
eigval :       -0.00    -0.00    -0.00    -0.00     0.00     0.00
eigval :       10.53    14.15    18.86    19.66    21.94    27.75
eigval :       31.71    34.57    40.29    47.52    48.55    56.88
eigval :       59.72    70.08    77.09    94.37    96.28   108.19
eigval :      112.97   120.30   136.39   152.02   153.80   159.62
eigval :      172.41   194.02   208.98   212.00   217.14   227.97
eigval :      232.91   241.19   259.37   262.18   277.31   280.07
eigval :      300.11   312.69   315.32   329.49   338.76   357.88
eigval :      369.72   373.26   379.28   381.89   389.01   396.43
eigval :      409.46   423.55   428.76   429.88   439.36   466.94
eigval :      472.51   482.01   484.37   503.13   520.09   523.84
eigval :      529.61   533.82   543.44   548.64   555.59   579.61
eigval :      581.76   586.30   592.20   592.88   598.30   605.38
eigval :      618.44   636.90   642.98   655.97   665.75   666.53
eigval :      674.64   675.12   684.33   689.05   693.93   709.49
eigval :      721.89   726.28   758.68   760.50   762.28   765.72
eigval :      776.12   778.07   800.08   802.48   814.81   829.70
eigval :      846.97   859.86   864.56   867.78   872.99   876.97
eigval :      881.58   885.97   897.62   899.22   900.51   901.73
eigval :      905.34   910.09   918.16   920.77   921.25   922.96
eigval :      926.42   928.21   929.11   930.77   933.94   942.16
eigval :      957.57   972.27   975.50   991.81   998.25  1002.96
eigval :     1014.85  1021.48  1032.00  1042.10  1062.69  1070.38
eigval :     1074.76  1077.00  1081.06  1082.34  1087.36  1092.31
eigval :     1109.68  1115.14  1117.48  1119.07  1128.35  1140.67
eigval :     1153.65  1158.09  1161.38  1169.32  1177.60  1178.03
eigval :     1180.15  1182.19  1184.95  1188.14  1193.38  1198.65
eigval :     1199.27  1202.91  1227.78  1233.98  1240.49  1241.52
eigval :     1246.40  1260.56  1266.43  1270.30  1274.46  1280.54
eigval :     1283.50  1301.30  1311.62  1312.82  1317.74  1319.02
eigval :     1319.36  1323.36  1324.57  1325.52  1339.41  1350.09
eigval :     1357.88  1362.60  1371.29  1375.85  1385.66  1413.44
eigval :     1427.06  1429.57  1431.10  1438.80  1439.64  1451.64
eigval :     1459.92  1463.20  1464.00  1472.34  1473.76  1475.02
eigval :     1482.37  1486.52  1489.96  1543.28  1560.62  1565.55
eigval :     1574.11  1574.64  1577.29  1580.47  1589.12  1590.29
eigval :     1595.36  1598.25  1599.64  1601.22  1618.25  2907.56
eigval :     2948.79  2968.14  2981.51  2989.38  2996.59  2999.05
eigval :     3013.02  3063.74  3066.47  3067.18  3069.88  3070.64
eigval :     3072.18  3073.78  3074.31  3079.90  3081.63  3082.23
eigval :     3084.07  3084.71  3089.13  3089.76  3092.82  3094.22
eigval :     3097.58  3100.50  3101.30  3104.61  3105.33  3105.41
eigval :     3106.40  3108.93  3114.84

   temp. (K)  partition function   enthalpy   heat capacity  entropy
                                   cal/mol     cal/K/mol   cal/K/mol   J/K/mol
 298.15  VIB  0.242E+21            25090.430    153.784    157.517
         ROT  0.768E+08              888.752      2.981     39.063
         INT  0.186E+29            25979.183    156.765    196.579
         TR   0.171E+29             1481.254      4.968     45.401
         TOT                       27460.4365   161.7328   241.9808  1012.4477

       T/K    H(0)-H(T)+PV         H(T)/Eh          T*S/Eh         G(T)/Eh
   ------------------------------------------------------------------------
    298.15    0.437610E-01    0.697139E+00    0.114973E+00    0.582166E+00
   ------------------------------------------------------------------------

         :::::::::::::::::::::::::::::::::::::::::::::::::::::
         ::                  THERMODYNAMIC                  ::
         :::::::::::::::::::::::::::::::::::::::::::::::::::::
         :: total free energy        -138.143563972212 Eh   ::
         ::.................................................::
         :: total energy             -138.725729755832 Eh   ::
         :: zero point energy           0.653377682640 Eh   ::
         :: G(RRHO) w/o ZPVE           -0.071211899020 Eh   ::
         :: G(RRHO) contrib.            0.582165783620 Eh   ::
         :::::::::::::::::::::::::::::::::::::::::::::::::::::

           -------------------------------------------------
          | TOTAL ENERGY             -138.725729755832 Eh   |
          | TOTAL ENTHALPY           -138.028591082140 Eh   |
          | TOTAL FREE ENERGY        -138.143563972212 Eh   |
          | GRADIENT NORM               0.000031362741 Eh/α |
          | HOMO-LUMO GAP               2.286600314959 eV   |
           -------------------------------------------------

 * finished run on 2025/09/13 at 04:46:17.498
