   * xtb version 6.7.1 (edcfbbe) compiled by 'albert@albert-system' on 2024-07-22

   ID    Z sym.   atoms
    1    9 F      1, 3, 4
    2    6 C      2, 5-9, 11-15, 17-20, 22-35, 37-51
    3    7 N      10, 21, 36
    4    8 O      16
    5    1 H      52-85

          program call               : xtb data2507/toluene/BICFOCz/BICFOCz.xyz --gfn 2 --gbsa toluene --ohess vtight --parallel 40 --molden --ceasefiles --namespace data2507/toluene/BICFOCz/BICFOCz_toluene_S0_preOpt
      * Solvation model:               GBSA
        Solvent                        toluene
        Solvent mass                       9.2140E+01 g/mol
          :  Hamiltonian                  GFN2-xTB          :
 * total energy  :  -138.7016412 Eh     change       -0.4112479E-08 Eh
 * total energy  :  -138.7137581 Eh     change       -0.1211691E-01 Eh
 * total energy  :  -138.7163589 Eh     change       -0.2600742E-02 Eh
 * total energy  :  -138.7169283 Eh     change       -0.5694802E-03 Eh
 * total energy  :  -138.7174618 Eh     change       -0.5334804E-03 Eh
 * total energy  :  -138.7178475 Eh     change       -0.3856430E-03 Eh
 * total energy  :  -138.7182438 Eh     change       -0.3962941E-03 Eh
 * total energy  :  -138.7186244 Eh     change       -0.3806401E-03 Eh
 * total energy  :  -138.7188787 Eh     change       -0.2542764E-03 Eh
 * total energy  :  -138.7190485 Eh     change       -0.1698113E-03 Eh
 * total energy  :  -138.7202056 Eh     change       -0.5396918E-06 Eh
 * total energy  :  -138.7202062 Eh     change       -0.5500812E-06 Eh
 * total energy  :  -138.7202070 Eh     change       -0.7591280E-06 Eh
 * total energy  :  -138.7202081 Eh     change       -0.1117522E-05 Eh
 * total energy  :  -138.7202092 Eh     change       -0.1117217E-05 Eh
 * total energy  :  -138.7202099 Eh     change       -0.7614337E-06 Eh
 * total energy  :  -138.7202104 Eh     change       -0.4459567E-06 Eh
 * total energy  :  -138.7202106 Eh     change       -0.2198501E-06 Eh
 * total energy  :  -138.7202106 Eh     change       -0.1857362E-07 Eh
   *** GEOMETRY OPTIMIZATION CONVERGED AFTER 137 ITERATIONS ***

 final structure:
================
85
 xtb: 6.7.1 (edcfbbe)
F           -8.04973089684369        4.07731470655748       -0.48908875454130
C           -6.91544319480561        4.04113156251102       -1.22371025395587
F           -7.21026078166000        3.31777773982634       -2.31614712961721
F           -6.72215432519249        5.30263134790987       -1.65100138385145
C           -5.75208382929976        3.50280973499767       -0.44425888150281
C           -5.07167117745012        4.34228156373848        0.42907662982779
C           -4.01835242830582        3.83359824413404        1.17063784176650
C           -3.65829073860900        2.50358526022187        1.05652928030606
C           -4.34560349683494        1.66683424814926        0.17987344978411
N           -3.99931441343757        0.31293651774934        0.07766774852192
C           -2.74730184544507       -0.22673622385432       -0.10575543527311
C           -1.53058451662605        0.53543573392920       -0.33049941396135
C           -1.51389105163193        1.72846272987946       -1.05542481770798
C           -0.33212070879920        2.40447020442460       -1.25787437682901
C            0.87393863952957        1.91056824742109       -0.75180142545494
O            1.96554688316908        2.68260619921835       -0.99432763232875
C            3.25282533466289        2.24381831320202       -0.59456797311645
C            3.82935198607106        1.19293705949949       -1.54815921520965
C            5.29278431232842        0.86757810728805       -1.25644019026067
C            5.48826338683165        0.09845497706046        0.05739228738892
N            6.86403873449008       -0.27524563435446        0.24842537040290
C            7.45491481085991       -1.42898833105410       -0.20974506293616
C            6.89362083612099       -2.51009376585672       -0.87703809549478
C            7.72055513425731       -3.56462771825017       -1.21323178152907
C            9.07870557194867       -3.55363646402819       -0.90039689022607
C            9.64569414235552       -2.48151435958025       -0.24039266830854
C            8.83469281807795       -1.40920852481551        0.10914519436982
C            9.07661831502236       -0.16270845453130        0.77843773295864
C           10.21015667257122        0.42892772022016        1.32128717829072
C           10.09241304950339        1.67466143930574        1.90511930157948
C            8.86352346390186        2.33056630523291        1.95094976497566
C            7.72218358516532        1.76334068481543        1.41759166690865
C            7.83093631594226        0.50895776648989        0.83133474620885
C            0.86428028564076        0.70795816399860       -0.04901124147006
C           -0.32438774920890        0.03358575080408        0.15188049494244
N           -2.79714119327654       -1.53332854187732       -0.10204017153012
C           -4.10185150434456       -1.88914701440276        0.08408545969534
C           -4.48260330596204       -3.29198482817035        0.16807259554263
C           -5.61593461579927       -3.70968605035527        0.86376561988843
C           -5.94627305450417       -5.05115338535089        0.91674212001841
C           -5.15005650118189       -5.99428721925231        0.28709155936221
C           -4.01025553466091       -5.58914444809397       -0.38928306641961
C           -3.67654844030301       -4.24977390357778       -0.44716788406776
C           -4.87811435098943       -0.74944089749541        0.18687099553348
C           -6.31327507109530       -0.56573238360813        0.37515056114007
C           -7.21497645046184       -1.20699779200487       -0.47353212426434
C           -8.57524452279596       -1.02257747556412       -0.31299369309901
C           -9.05396466302807       -0.19632987989412        0.69175430264925
C           -8.16503844847647        0.43829531002006        1.54338390319792
C           -6.80285602504336        0.25721946520390        1.38825859269027
C           -5.39791140150639        2.16917452693399       -0.57933119260916
H           -5.36340021021456        5.37682881197246        0.51932500172812
H           -3.48251673231760        4.47694577871221        1.85003438469784
H           -2.84568845303137        2.10349664377875        1.64340090588805
H           -2.42432828834363        2.11969992255338       -1.48379981154025
H           -0.31190741718703        3.32657550546413       -1.81753840077048
H            3.22658419632836        1.88152804830942        0.43844922528057
H            3.86625172643656        3.14889476292466       -0.63177997060325
H            3.23078711212326        0.28120128913917       -1.50113331740307
H            3.74695619346429        1.58797194391541       -2.56299605965150
H            5.68624864907006        0.25633303752947       -2.07138867437631
H            5.87746018244122        1.78902113301472       -1.22161282879223
H            4.88119092918513       -0.81087233258104        0.04956749640609
H            5.18094475433770        0.70972521917841        0.90896314314056
H            5.84510836137175       -2.53583156104790       -1.13273629939929
H            7.30632227322158       -4.41681061102505       -1.73279964098473
H            9.69246284276755       -4.39709041784364       -1.18190533871589
H           10.69862709589142       -2.47308641681141        0.00035346584851
H           11.16322814008078       -0.07804566769520        1.28506375968481
H           10.96229935887029        2.15218125888465        2.33247788211098
H            8.80375897385056        3.30615117739059        2.41194709205965
H            6.78008546875313        2.28891706532445        1.45892760864032
H            1.77225094203069        0.28599798043063        0.35021653276438
H           -0.33285692970127       -0.90050768923684        0.69212873797253
H           -6.23312429921467       -2.98361492912244        1.37159618156442
H           -6.82882522886069       -5.36262925588941        1.45722020271763
H           -5.41371160320525       -7.04115484384123        0.32921633021362
H           -3.38073863510121       -6.32153460055975       -0.87422823556306
H           -2.79044054999647       -3.92022067947266       -0.96808917657143
H           -6.83786747759689       -1.84661927746873       -1.25841266493341
H           -9.26471747527071       -1.52104649831416       -0.97838017476826
H          -10.11695406062082       -0.04970923170243        0.81216708272063
H           -8.53294605238835        1.07780527910443        2.33224564219343
H           -6.11447223682024        0.74408901032274        2.06437341810431
H           -5.92788359115044        1.52983580982147       -1.26817514207938

          :  Hamiltonian                  GFN2-xTB          :
         :: gradient norm              0.000177274185 Eh/a0 ::
         :: HOMO-LUMO gap              2.322254144377 eV    ::
         :: SCC energy              -140.931067849715 Eh    ::
         :: -> dispersion             -0.110806042523 Eh    ::
         :: -> Gsolv                  -0.055091174635 Eh    ::
         :: repulsion energy           2.210857217625 Eh    ::

    * Orbital Energies and Occupations

         #    Occupation            Energy/Eh            Energy/eV
      -------------------------------------------------------------
         1        2.0000           -0.8908232             -24.2405
       ...           ...                  ...                  ...
       114        2.0000           -0.4187770             -11.3955
       115        2.0000           -0.4165040             -11.3336
       116        2.0000           -0.4150692             -11.2946
       117        2.0000           -0.4149096             -11.2903
       118        2.0000           -0.4127944             -11.2327
       119        2.0000           -0.4056065             -11.0371
       120        2.0000           -0.4020534             -10.9404
       121        2.0000           -0.4013927             -10.9224
       122        2.0000           -0.3893748             -10.5954
       123        2.0000           -0.3833538             -10.4316
       124        2.0000           -0.3750639             -10.2060
       125        2.0000           -0.3655394              -9.9468
       126        2.0000           -0.3599409              -9.7945 (HOMO)
       127                         -0.2745997              -7.4722 (LUMO)
       128                         -0.2674087              -7.2766
       129                         -0.2498241              -6.7981
       130                         -0.2430273              -6.6131
       131                         -0.2417775              -6.5791
       132                         -0.2322598              -6.3201
       133                         -0.2312596              -6.2929
       134                         -0.2223324              -6.0500
       135                         -0.2193130              -5.9678
       136                         -0.2188006              -5.9539
       137                         -0.1911504              -5.2015
       ...                                ...                  ...
       238                          0.7483980              20.3649
      -------------------------------------------------------------
                  HL-Gap            0.0853413 Eh            2.3223 eV

     #   Z          covCN         q      C6AA      α(0)
     1   9 F        0.791    -0.220    11.441     3.996
     2   6 C        3.337     0.487    17.268     6.579
     3   9 F        0.791    -0.214    11.384     3.986
     4   9 F        0.791    -0.214    11.382     3.985
     5   6 C        2.977    -0.022    28.551     8.765
     6   6 C        2.920    -0.023    28.576     8.766
     7   6 C        2.920    -0.017    28.430     8.744
     8   6 C        2.921    -0.030    28.760     8.794
     9   6 C        2.913     0.076    26.295     8.409
    10   7 N        2.850    -0.040    22.019     6.969
    11   6 C        3.147     0.127    24.985     8.177
    12   6 C        2.972    -0.013    28.344     8.733
    13   6 C        2.921    -0.035    28.882     8.813
    14   6 C        2.920    -0.055    29.376     8.888
    15   6 C        2.858     0.147    24.804     8.163
    16   8 O        1.705    -0.284    18.711     5.840
    17   6 C        3.689     0.073    19.541     6.327
    18   6 C        3.800    -0.069    21.815     6.650
    19   6 C        3.802    -0.066    21.773     6.643
    20   6 C        3.740    -0.003    20.716     6.494
    21   7 N        2.797    -0.050    22.196     6.997
    22   6 C        3.081     0.044    26.922     8.506
    23   6 C        2.910    -0.055    29.355     8.884
    24   6 C        2.923    -0.036    28.900     8.816
    25   6 C        2.919    -0.045    29.109     8.848
    26   6 C        2.912    -0.035    28.880     8.812
    27   6 C        3.069    -0.021    28.453     8.746
    28   6 C        3.069    -0.021    28.450     8.746
    29   6 C        2.912    -0.035    28.879     8.812
    30   6 C        2.919    -0.045    29.111     8.848
    31   6 C        2.923    -0.036    28.904     8.816
    32   6 C        2.910    -0.055    29.362     8.885
    33   6 C        3.081     0.044    26.927     8.507
    34   6 C        2.916    -0.065    29.623     8.925
    35   6 C        2.928    -0.030    28.760     8.795
    36   7 N        1.912    -0.304    28.716     7.945
    37   6 C        3.160     0.055    26.467     8.410
    38   6 C        2.973     0.007    27.869     8.659
    39   6 C        2.923    -0.039    28.965     8.826
    40   6 C        2.919    -0.031    28.775     8.797
    41   6 C        2.919    -0.033    28.816     8.803
    42   6 C        2.918    -0.031    28.768     8.795
    43   6 C        2.927    -0.031    28.783     8.798
    44   6 C        3.062     0.012    27.676     8.627
    45   6 C        2.971     0.005    27.910     8.666
    46   6 C        2.925    -0.033    28.824     8.804
    47   6 C        2.918    -0.028    28.699     8.785
    48   6 C        2.920    -0.030    28.751     8.793
    49   6 C        2.918    -0.030    28.745     8.792
    50   6 C        2.924    -0.037    28.922     8.819
    51   6 C        2.923    -0.034    28.843     8.807
    52   1 H        0.926     0.070     2.082     2.257
    53   1 H        0.926     0.077     2.014     2.219
    54   1 H        0.926     0.067     2.118     2.276
    55   1 H        0.926     0.033     2.550     2.497
    56   1 H        0.926     0.050     2.314     2.379
    57   1 H        0.924     0.039     2.462     2.454
    58   1 H        0.924     0.059     2.214     2.327
    59   1 H        0.924     0.049     2.339     2.391
    60   1 H        0.924     0.053     2.280     2.362
    61   1 H        0.924     0.051     2.306     2.375
    62   1 H        0.924     0.047     2.358     2.401
    63   1 H        0.924     0.056     2.249     2.345
    64   1 H        0.924     0.052     2.292     2.367
    65   1 H        0.926     0.030     2.588     2.516
    66   1 H        0.926     0.027     2.625     2.534
    67   1 H        0.926     0.024     2.679     2.559
    68   1 H        0.926     0.026     2.643     2.542
    69   1 H        0.926     0.026     2.643     2.542
    70   1 H        0.926     0.024     2.679     2.559
    71   1 H        0.926     0.027     2.626     2.534
    72   1 H        0.926     0.029     2.602     2.523
    73   1 H        0.926     0.050     2.315     2.379
    74   1 H        0.926     0.053     2.282     2.362
    75   1 H        0.926     0.026     2.645     2.543
    76   1 H        0.926     0.030     2.580     2.512
    77   1 H        0.926     0.032     2.561     2.502
    78   1 H        0.926     0.033     2.546     2.495
    79   1 H        0.926     0.045     2.381     2.413
    80   1 H        0.926     0.033     2.542     2.493
    81   1 H        0.926     0.038     2.478     2.462
    82   1 H        0.926     0.037     2.486     2.466
    83   1 H        0.926     0.036     2.499     2.472
    84   1 H        0.926     0.027     2.623     2.533
    85   1 H        0.926     0.063     2.161     2.299

molecular dipole:
                 x           y           z       tot (Debye)
 q only:        0.953       0.343       0.928
   full:        0.572       0.590       0.973       3.238

 projected vibrational frequencies (cm⁻¹)
eigval :       -0.00    -0.00    -0.00     0.00     0.00     0.00
eigval :        3.79     6.58    10.90    13.43    17.63    18.37
eigval :       21.64    30.14    32.68    33.38    38.52    46.61
eigval :       56.22    61.59    71.85    75.61    95.08   100.11
eigval :      101.75   111.30   125.96   137.96   145.23   156.88
eigval :      168.84   190.01   203.85   207.68   226.54   230.92
eigval :      233.39   245.75   253.93   263.38   271.72   276.81
eigval :      285.48   296.73   304.33   324.46   332.12   344.99
eigval :      351.44   370.65   374.31   383.44   387.72   390.18
eigval :      394.26   414.99   425.40   425.76   435.26   456.96
eigval :      466.93   479.21   480.56   503.28   518.73   524.81
eigval :      529.13   530.12   541.22   552.52   559.24   580.25
eigval :      585.84   590.24   591.68   599.37   603.44   611.78
eigval :      622.33   637.47   642.67   657.18   664.19   666.40
eigval :      674.21   676.51   683.65   687.10   693.82   709.78
eigval :      730.32   743.68   760.66   762.06   763.21   764.49
eigval :      774.37   783.08   790.30   801.94   810.64   812.99
eigval :      827.51   857.69   861.72   864.23   868.96   875.31
eigval :      877.00   882.03   896.89   897.84   900.64   901.50
eigval :      903.42   908.59   917.34   918.39   922.74   927.28
eigval :      928.59   929.56   930.20   930.72   941.54   947.54
eigval :      951.04   959.64   973.35   989.98   996.53  1001.42
eigval :     1016.13  1030.86  1041.95  1052.54  1053.72  1070.32
eigval :     1073.57  1077.65  1080.79  1082.31  1084.23  1107.96
eigval :     1109.17  1117.05  1120.15  1126.07  1128.14  1136.99
eigval :     1153.43  1158.16  1161.48  1170.79  1178.72  1180.07
eigval :     1180.50  1181.77  1182.75  1184.07  1193.10  1199.27
eigval :     1204.09  1212.38  1230.57  1235.83  1238.23  1242.64
eigval :     1260.38  1260.68  1268.39  1269.79  1270.60  1280.61
eigval :     1283.51  1294.53  1298.45  1304.04  1312.35  1318.65
eigval :     1319.04  1325.38  1325.89  1333.75  1350.92  1353.35
eigval :     1354.65  1356.38  1362.52  1374.37  1387.58  1411.92
eigval :     1426.88  1428.49  1431.37  1435.72  1440.14  1451.24
eigval :     1460.90  1464.69  1470.19  1472.64  1482.35  1482.71
eigval :     1486.08  1487.79  1488.37  1541.18  1560.93  1563.90
eigval :     1572.84  1574.88  1577.28  1580.12  1588.45  1589.45
eigval :     1595.26  1597.97  1598.58  1598.86  1616.04  2923.93
eigval :     2959.58  2960.75  2973.16  2979.32  2982.68  2995.09
eigval :     2995.81  3066.54  3067.11  3067.72  3070.70  3072.24
eigval :     3072.52  3073.46  3075.09  3080.18  3080.84  3081.11
eigval :     3081.51  3085.45  3085.83  3087.49  3090.21  3091.22
eigval :     3094.97  3096.97  3097.39  3098.80  3104.10  3104.75
eigval :     3108.12  3110.20  3114.25

   temp. (K)  partition function   enthalpy   heat capacity  entropy
                                   cal/mol     cal/K/mol   cal/K/mol   J/K/mol
 298.15  VIB  0.651E+23            25451.305    152.708    163.258
         ROT  0.165E+09              888.752      2.981     40.577
         INT  0.107E+32            26340.057    155.689    203.835
         TR   0.171E+29             1481.254      4.968     45.401
         TOT                       27821.3110   160.6574   249.2368  1042.8066

       T/K    H(0)-H(T)+PV         H(T)/Eh          T*S/Eh         G(T)/Eh
   ------------------------------------------------------------------------
    298.15    0.443361E-01    0.696814E+00    0.118420E+00    0.578394E+00
   ------------------------------------------------------------------------

         :::::::::::::::::::::::::::::::::::::::::::::::::::::
         ::                  THERMODYNAMIC                  ::
         :::::::::::::::::::::::::::::::::::::::::::::::::::::
         :: total free energy        -138.141817043659 Eh   ::
         ::.................................................::
         :: total energy             -138.720210631996 Eh   ::
         :: zero point energy           0.652477934311 Eh   ::
         :: G(RRHO) w/o ZPVE           -0.074084345974 Eh   ::
         :: G(RRHO) contrib.            0.578393588337 Eh   ::
         :::::::::::::::::::::::::::::::::::::::::::::::::::::

           -------------------------------------------------
          | TOTAL ENERGY             -138.720210631996 Eh   |
          | TOTAL ENTHALPY           -138.023396616456 Eh   |
          | TOTAL FREE ENERGY        -138.141817043659 Eh   |
          | GRADIENT NORM               0.000177267360 Eh/α |
          | HOMO-LUMO GAP               2.322254460964 eV   |
           -------------------------------------------------

 * finished run on 2025/09/13 at 04:24:57.260
