   * xtb version 6.7.1 (edcfbbe) compiled by 'albert@albert-system' on 2024-07-22

   ID    Z sym.   atoms
    1    9 F      1, 3, 4
    2    6 C      2, 5-9, 11-15, 17-20, 22-35, 37-51
    3    7 N      10, 21, 36
    4    8 O      16
    5    1 H      52-85

          program call               : xtb data2507/toluene/BICFOCz/BICFOCz_toluene_S0_finalOpt.xtbopt.xyz --gfn 2 --uhf 2 --gbsa toluene --ohess vtight --parallel 40 --molden --ceasefiles --namespace data2507/toluene/BICFOCz/BICFOCz_toluene_T1_preOpt
      * Solvation model:               GBSA
        Solvent                        toluene
        Solvent mass                       9.2140E+01 g/mol
          :  Hamiltonian                  GFN2-xTB          :
 * total energy  :  -138.6225422 Eh     change        0.1357989E-09 Eh
 * total energy  :  -138.6286701 Eh     change       -0.6127893E-02 Eh
 * total energy  :  -138.6312837 Eh     change       -0.2613617E-02 Eh
 * total energy  :  -138.6320436 Eh     change       -0.7598671E-03 Eh
 * total energy  :  -138.6328000 Eh     change       -0.7564445E-03 Eh
 * total energy  :  -138.6332307 Eh     change       -0.4306431E-03 Eh
 * total energy  :  -138.6335492 Eh     change       -0.3184976E-03 Eh
 * total energy  :  -138.6337926 Eh     change       -0.2434057E-03 Eh
 * total energy  :  -138.6339824 Eh     change       -0.1898222E-03 Eh
 * total energy  :  -138.6341267 Eh     change       -0.1443220E-03 Eh
 * total energy  :  -138.6357220 Eh     change       -0.5489514E-06 Eh
 * total energy  :  -138.6357227 Eh     change       -0.6818657E-06 Eh
 * total energy  :  -138.6357233 Eh     change       -0.6039903E-06 Eh
 * total energy  :  -138.6357239 Eh     change       -0.5634380E-06 Eh
 * total energy  :  -138.6357246 Eh     change       -0.6777180E-06 Eh
 * total energy  :  -138.6357251 Eh     change       -0.5521011E-06 Eh
 * total energy  :  -138.6357258 Eh     change       -0.6580393E-06 Eh
 * total energy  :  -138.6357263 Eh     change       -0.5554478E-06 Eh
 * total energy  :  -138.6357264 Eh     change       -0.9581925E-07 Eh
   *** GEOMETRY OPTIMIZATION CONVERGED AFTER 380 ITERATIONS ***

 final structure:
================
85
 xtb: 6.7.1 (edcfbbe)
F           -2.50853574382921       -5.82713782804914        1.84771665696438
C           -1.60734732816449       -4.84287470153013        1.64888324971439
F           -1.32458079874785       -4.35321630246441        2.86935802424279
F           -0.47888298784616       -5.47326593711848        1.24211630436091
C           -2.06936698043098       -3.80956334121578        0.67195400712542
C           -2.73752917665154       -4.22516613994208       -0.48245385624652
C           -3.14373127125020       -3.26262255972416       -1.40037107018946
C           -2.89375358092897       -1.92702358552317       -1.18360489833619
C           -2.21810536071706       -1.50976702189162       -0.02023679691818
N           -1.95354664124325       -0.17288283561711        0.22074012600589
C           -0.73400640943313        0.36477116998419        0.70331461707987
C            0.50596170218609       -0.29283352540654        0.83173734310115
C            0.85213453803452       -1.50700872846382        0.18416520066197
C            2.08799081706320       -2.06335945095597        0.35850209951116
C            3.05509965911835       -1.45843303869803        1.17937262020327
O            4.22521057418918       -2.13191650146769        1.28757544166263
C            5.36447447137710       -1.51402192814252        1.86284392655383
C            5.90125468932417       -0.36723284540051        1.00147575931447
C            6.18433868663652       -0.82361184587610       -0.43213960881297
C            6.04295623752536        0.32730501825431       -1.43772098633866
N            4.69175362513139        0.82235578428804       -1.48522500319211
C            4.20301822433461        1.92500865528118       -0.82302131827365
C            4.87190777196809        2.89052183885242       -0.07897292079311
C            4.12572976894254        3.90727231316829        0.48540422284906
C            2.74338135513600        3.97477369568624        0.32205288796654
C            2.07165738163720        3.02564583229938       -0.42328296108085
C            2.80065318486278        1.99817675036047       -1.00422509059698
C            2.43890181011874        0.87657744512807       -1.82188090715389
C            1.23634747023421        0.42747614418707       -2.34804298774160
C            1.23904924945276       -0.71532983684664       -3.12379227856880
C            2.42256175765052       -1.40625644774098       -3.37462651346108
C            3.63250133361849       -0.97696977481817       -2.86379088727420
C            3.63826741299765        0.17251956733238       -2.08417641584416
C            2.73914383771423       -0.24279977086924        1.80500600600026
C            1.50823180002766        0.32759095189661        1.62090349184006
N           -0.87657942247660        1.67420776355524        0.95125943181531
C           -2.09641063382852        2.03766995914726        0.58799779263759
C           -2.56385695365542        3.38414333229364        0.82655851336866
C           -1.63168525462052        4.42985000413747        0.84534870658349
C           -2.03225207510234        5.72587426325968        1.09032420073008
C           -3.36875776937942        6.00759179665348        1.34059125226966
C           -4.29566575373502        4.97620438787026        1.36094456352514
C           -3.90416827020788        3.67622307062281        1.10930792742391
C           -2.82533198069067        0.89390465691108        0.08245646880260
C           -4.16499779852960        0.83012829133496       -0.39438830316000
C           -5.02578068372179       -0.24914373763368       -0.09522592355862
C           -6.31785601953495       -0.26699850207026       -0.56786522848621
C           -6.79872721014505        0.76876460065504       -1.36149798787123
C           -5.96680189264493        1.84276288145498       -1.66300680220303
C           -4.67728912938144        1.88233875388004       -1.18761824388298
C           -1.80733243836989       -2.47580553448972        0.91113475315259
H           -2.93300110970536       -5.27209008078351       -0.64731508577196
H           -3.65439466071636       -3.57141246448025       -2.29919286817041
H           -3.19393945039436       -1.19109200007306       -1.91260928466164
H            0.16466800493596       -1.97260079569093       -0.50116443650438
H            2.35166985960210       -2.98112017632163       -0.14406587338626
H            6.09797980353291       -2.32246597848773        1.92230167102941
H            5.14469607623229       -1.16287906365390        2.87782817393341
H            5.15431471503043        0.42667755024573        0.98112539432675
H            6.80387144929150        0.02537508208038        1.47045069064549
H            7.18717892199396       -1.24515311054207       -0.50772811677673
H            5.46831472592619       -1.60304203334641       -0.70010941327079
H            6.32407987826078       -0.02174948992352       -2.43603755267010
H            6.70484146690733        1.15105899813934       -1.16421316220800
H            5.94133928302013        2.85622945446070        0.06498354006893
H            4.62575107475922        4.66608336157973        1.06980191848372
H            2.19682773317183        4.78166582370806        0.78759703829385
H            1.00043372732481        3.06212025964537       -0.54648594259828
H            0.32114557248888        0.96722483879088       -2.15371127638156
H            0.31450124289253       -1.08222021360021       -3.54558437175117
H            2.39243047995629       -2.29734767559848       -3.98491450562763
H            4.53951899817069       -1.52262082066414       -3.07490646801585
H            3.45066013460329        0.25011539098408        2.44839831163453
H            1.26164252629277        1.26143351730387        2.09968576582012
H           -0.59631464061860        4.19580924277138        0.65587454684354
H           -1.30438846349075        6.52413592657801        1.08642170431253
H           -3.68329253425346        7.02300645633102        1.53066588493538
H           -5.33215811460226        5.18613691066491        1.58181860584672
H           -4.62829437074922        2.87826585875003        1.16398899900391
H           -4.68248863879938       -1.03890970497744        0.55540291104323
H           -6.96542989898052       -1.09309366944411       -0.31152360143618
H           -7.81017548103618        0.74135034598647       -1.73703388121612
H           -6.33288343962575        2.64920932104974       -2.28176768292387
H           -4.02732652991321        2.70457301138127       -1.44716961655218
H           -1.30469952445164       -2.17039920812493        1.81592815387345

          :  Hamiltonian                  GFN2-xTB          :
         :: gradient norm              0.000103759112 Eh/a0 ::
         :: HOMO-LUMO gap              0.587853179742 eV    ::
         :: SCC energy              -140.826554021318 Eh    ::
         :: -> dispersion             -0.128591467436 Eh    ::
         :: -> Gsolv                  -0.048504535173 Eh    ::
         :: repulsion energy           2.190827583819 Eh    ::

    * Orbital Energies and Occupations

         #    Occupation            Energy/Eh            Energy/eV
      -------------------------------------------------------------
         1        2.0000           -0.8832176             -24.0336
       ...           ...                  ...                  ...
       115        2.0000           -0.4169220             -11.3450
       116        2.0000           -0.4158476             -11.3158
       117        2.0000           -0.4129403             -11.2367
       118        2.0000           -0.4113162             -11.1925
       119        2.0000           -0.4070653             -11.0768
       120        2.0000           -0.4038418             -10.9891
       121        2.0000           -0.3976145             -10.8196
       122        2.0000           -0.3920807             -10.6691
       123        2.0000           -0.3865500             -10.5186
       124        2.0000           -0.3773606             -10.2685
       125        1.9409           -0.3626966              -9.8695
       126        1.0591           -0.3574363              -9.7263
       127        1.0000           -0.2757314              -7.5030 (HOMO)
       128        0.0000           -0.2541283              -6.9152 (LUMO)
       129        0.0000           -0.2529074              -6.8820
       130                         -0.2440348              -6.6405
       131                         -0.2407110              -6.5501
       132                         -0.2284206              -6.2156
       133                         -0.2276189              -6.1938
       134                         -0.2224846              -6.0541
       135                         -0.2210029              -6.0138
       136                         -0.2201908              -5.9917
       137                         -0.1941289              -5.2825
       138                         -0.1852786              -5.0417
       ...                                ...                  ...
       238                          0.7474345              20.3387
      -------------------------------------------------------------
                  HL-Gap            0.0216032 Eh            0.5879 eV

     #   Z          covCN         q      C6AA      α(0)
     1   9 F        0.791    -0.222    11.461     3.999
     2   6 C        3.337     0.484    17.288     6.581
     3   9 F        0.791    -0.220    11.448     3.997
     4   9 F        0.791    -0.226    11.512     4.008
     5   6 C        2.973    -0.035    28.856     8.811
     6   6 C        2.918    -0.045    29.116     8.849
     7   6 C        2.917    -0.025    28.626     8.774
     8   6 C        2.917    -0.043    29.058     8.840
     9   6 C        2.908     0.055    26.756     8.482
    10   7 N        2.805    -0.052    22.252     7.006
    11   6 C        3.107     0.124    25.149     8.217
    12   6 C        2.968    -0.007    28.183     8.708
    13   6 C        2.915    -0.038    28.949     8.823
    14   6 C        2.914    -0.051    29.254     8.869
    15   6 C        2.857     0.147    24.806     8.163
    16   8 O        1.705    -0.266    18.411     5.793
    17   6 C        3.689     0.072    19.550     6.328
    18   6 C        3.800    -0.071    21.857     6.656
    19   6 C        3.802    -0.066    21.762     6.642
    20   6 C        3.740    -0.004    20.730     6.496
    21   7 N        2.796    -0.043    22.062     6.976
    22   6 C        3.080     0.044    26.928     8.507
    23   6 C        2.910    -0.054    29.340     8.882
    24   6 C        2.923    -0.035    28.881     8.813
    25   6 C        2.920    -0.041    29.009     8.832
    26   6 C        2.912    -0.030    28.759     8.794
    27   6 C        3.071    -0.019    28.417     8.741
    28   6 C        3.070    -0.020    28.426     8.742
    29   6 C        2.912    -0.032    28.803     8.800
    30   6 C        2.920    -0.043    29.059     8.840
    31   6 C        2.923    -0.036    28.889     8.814
    32   6 C        2.910    -0.052    29.289     8.874
    33   6 C        3.083     0.045    26.897     8.502
    34   6 C        2.910    -0.060    29.490     8.905
    35   6 C        2.927    -0.031    28.765     8.795
    36   7 N        1.886    -0.291    28.383     7.898
    37   6 C        3.123     0.080    26.038     8.356
    38   6 C        2.973     0.008    27.842     8.655
    39   6 C        2.926    -0.027    28.682     8.783
    40   6 C        2.916    -0.028    28.696     8.784
    41   6 C        2.919    -0.027    28.680     8.782
    42   6 C        2.917    -0.028    28.706     8.786
    43   6 C        2.921    -0.033    28.815     8.803
    44   6 C        3.017     0.023    27.471     8.598
    45   6 C        2.966    -0.001    28.052     8.687
    46   6 C        2.919    -0.037    28.911     8.817
    47   6 C        2.915    -0.029    28.721     8.788
    48   6 C        2.918    -0.034    28.842     8.807
    49   6 C        2.914    -0.029    28.735     8.790
    50   6 C        2.923    -0.034    28.847     8.808
    51   6 C        2.921    -0.043    29.068     8.841
    52   1 H        0.926     0.047     2.363     2.404
    53   1 H        0.926     0.055     2.255     2.348
    54   1 H        0.926     0.050     2.325     2.385
    55   1 H        0.926     0.037     2.486     2.466
    56   1 H        0.926     0.048     2.343     2.393
    57   1 H        0.924     0.064     2.156     2.296
    58   1 H        0.924     0.042     2.418     2.432
    59   1 H        0.924     0.053     2.281     2.362
    60   1 H        0.924     0.052     2.295     2.369
    61   1 H        0.924     0.052     2.297     2.370
    62   1 H        0.924     0.054     2.269     2.355
    63   1 H        0.924     0.055     2.254     2.348
    64   1 H        0.924     0.061     2.190     2.314
    65   1 H        0.926     0.034     2.533     2.489
    66   1 H        0.926     0.033     2.550     2.497
    67   1 H        0.926     0.030     2.592     2.518
    68   1 H        0.926     0.032     2.560     2.502
    69   1 H        0.926     0.019     2.743     2.590
    70   1 H        0.926     0.024     2.673     2.557
    71   1 H        0.926     0.031     2.579     2.511
    72   1 H        0.926     0.034     2.527     2.486
    73   1 H        0.926     0.051     2.309     2.376
    74   1 H        0.926     0.060     2.201     2.320
    75   1 H        0.926     0.051     2.304     2.374
    76   1 H        0.926     0.041     2.442     2.444
    77   1 H        0.926     0.040     2.451     2.448
    78   1 H        0.926     0.038     2.479     2.462
    79   1 H        0.926     0.034     2.527     2.486
    80   1 H        0.926     0.024     2.672     2.556
    81   1 H        0.926     0.033     2.550     2.497
    82   1 H        0.926     0.034     2.527     2.486
    83   1 H        0.926     0.035     2.513     2.479
    84   1 H        0.926     0.032     2.565     2.504
    85   1 H        0.926     0.045     2.381     2.413

molecular dipole:
                 x           y           z       tot (Debye)
 q only:        2.163       2.328      -1.019
   full:        1.894       1.958      -0.992       7.369

 projected vibrational frequencies (cm⁻¹)
eigval :       -0.00    -0.00     0.00     0.00     0.00     0.00
eigval :        8.34    15.13    18.61    20.31    20.87    26.74
eigval :       32.74    35.13    39.42    47.20    50.73    53.61
eigval :       65.64    69.81    87.43    98.61   103.53   105.27
eigval :      110.45   123.97   142.84   147.76   161.63   163.02
eigval :      173.32   191.27   209.38   213.24   217.39   226.53
eigval :      231.02   246.37   250.79   261.52   273.13   278.35
eigval :      294.84   308.98   314.08   320.91   332.63   337.82
eigval :      353.86   370.84   378.91   381.54   386.62   390.77
eigval :      398.86   417.36   424.83   427.27   434.55   449.27
eigval :      458.54   468.28   472.20   485.03   490.09   518.85
eigval :      522.81   530.79   539.77   545.14   555.29   571.92
eigval :      579.29   582.31   585.04   587.82   592.08   594.27
eigval :      603.20   610.21   628.35   639.69   644.24   651.12
eigval :      662.62   666.99   671.17   673.46   680.51   709.02
eigval :      720.42   725.50   741.51   755.93   757.14   763.20
eigval :      764.14   770.37   776.06   794.01   803.30   816.13
eigval :      830.57   846.04   846.91   856.10   858.20   864.98
eigval :      865.93   872.95   880.73   886.02   894.76   896.72
eigval :      899.86   901.99   908.74   914.63   917.47   918.49
eigval :      919.92   921.95   922.11   924.02   925.95   928.50
eigval :      938.49   959.39   967.96   977.56   981.55   982.66
eigval :      994.43  1002.90  1019.12  1027.90  1056.38  1061.47
eigval :     1070.09  1071.89  1074.61  1076.26  1077.98  1084.48
eigval :     1087.24  1105.20  1113.68  1117.42  1120.25  1127.29
eigval :     1137.32  1150.14  1157.90  1158.36  1162.55  1173.04
eigval :     1175.71  1176.53  1178.60  1181.70  1184.91  1191.35
eigval :     1197.51  1198.38  1221.69  1223.12  1230.86  1231.96
eigval :     1238.25  1245.17  1260.82  1262.03  1269.89  1273.48
eigval :     1275.85  1287.02  1299.99  1309.00  1317.37  1320.18
eigval :     1321.89  1322.96  1324.44  1328.35  1331.94  1336.17
eigval :     1346.78  1360.66  1365.59  1368.11  1370.98  1385.34
eigval :     1401.91  1412.88  1420.04  1423.30  1424.30  1430.24
eigval :     1434.14  1437.62  1453.70  1456.89  1459.46  1461.89
eigval :     1469.67  1472.83  1476.58  1477.01  1481.08  1488.19
eigval :     1510.16  1525.72  1552.16  1554.99  1561.96  1570.92
eigval :     1575.57  1586.61  1592.74  1596.87  1613.12  2913.58
eigval :     2951.79  2971.60  2983.84  2991.77  2999.40  3002.35
eigval :     3013.82  3068.64  3071.02  3072.92  3073.77  3073.91
eigval :     3074.06  3076.67  3078.35  3082.34  3086.97  3087.49
eigval :     3089.72  3090.68  3091.29  3093.93  3096.80  3097.08
eigval :     3097.34  3098.90  3100.28  3100.64  3105.71  3111.43
eigval :     3113.46  3115.32  3124.47

   temp. (K)  partition function   enthalpy   heat capacity  entropy
                                   cal/mol     cal/K/mol   cal/K/mol   J/K/mol
 298.15  VIB  0.294E+21            25349.288    155.992    158.713
         ROT  0.759E+08              888.752      2.981     39.040
         INT  0.223E+29            26238.040    158.973    197.752
         TR   0.171E+29             1481.254      4.968     45.401
         TOT                       27719.2941   163.9409   243.1536  1017.3548

       T/K    H(0)-H(T)+PV         H(T)/Eh          T*S/Eh         G(T)/Eh
   ------------------------------------------------------------------------
    298.15    0.441735E-01    0.693065E+00    0.115530E+00    0.577535E+00
   ------------------------------------------------------------------------

         :::::::::::::::::::::::::::::::::::::::::::::::::::::
         ::                  THERMODYNAMIC                  ::
         :::::::::::::::::::::::::::::::::::::::::::::::::::::
         :: total free energy        -138.058191569674 Eh   ::
         ::.................................................::
         :: total energy             -138.635726438126 Eh   ::
         :: zero point energy           0.648891497029 Eh   ::
         :: G(RRHO) w/o ZPVE           -0.071356628577 Eh   ::
         :: G(RRHO) contrib.            0.577534868452 Eh   ::
         :::::::::::::::::::::::::::::::::::::::::::::::::::::

           -------------------------------------------------
          | TOTAL ENERGY             -138.635726438126 Eh   |
          | TOTAL ENTHALPY           -137.942661434128 Eh   |
          | TOTAL FREE ENERGY        -138.058191569674 Eh   |
          | GRADIENT NORM               0.000104392597 Eh/α |
          | HOMO-LUMO GAP               0.587852078777 eV   |
           -------------------------------------------------

 * finished run on 2025/09/13 at 04:46:49.092
