   * xtb version 6.7.1 (edcfbbe) compiled by 'albert@albert-system' on 2024-07-22

   ID    Z sym.   atoms
    1    6 C      1-6, 8-26
    2    7 N      7
    3    1 H      27-43

          program call               : xtb data2507/toluene/SpiroAc/SpiroAc_toluene_S0_finalOpt.xtbopt.xyz --gfn 2 --uhf 2 --gbsa toluene --ohess vtight --parallel 40 --molden --ceasefiles --namespace data2507/toluene/SpiroAc/SpiroAc_toluene_T1_preOpt
      * Solvation model:               GBSA
        Solvent                        toluene
        Solvent mass                       9.2140E+01 g/mol
          :  Hamiltonian                  GFN2-xTB          :
 * total energy  :   -65.0599443 Eh     change       -0.1449635E-08 Eh
 * total energy  :   -65.0648122 Eh     change       -0.4867908E-02 Eh
 * total energy  :   -65.0667250 Eh     change       -0.1912776E-02 Eh
 * total energy  :   -65.0671470 Eh     change       -0.4219705E-03 Eh
 * total energy  :   -65.0683363 Eh     change       -0.1189296E-02 Eh
 * total energy  :   -65.0686889 Eh     change       -0.3526414E-03 Eh
 * total energy  :   -65.0688177 Eh     change       -0.1288293E-03 Eh
 * total energy  :   -65.0688211 Eh     change       -0.3354342E-05 Eh
 * total energy  :   -65.0688217 Eh     change       -0.5893763E-06 Eh
 * total energy  :   -65.0688215 Eh     change        0.1688842E-06 Eh
 * total energy  :   -65.0688227 Eh     change       -0.3684817E-06 Eh
 * total energy  :   -65.0688233 Eh     change       -0.5558823E-06 Eh
 * total energy  :   -65.0688240 Eh     change       -0.7532529E-06 Eh
 * total energy  :   -65.0688248 Eh     change       -0.7781810E-06 Eh
 * total energy  :   -65.0688254 Eh     change       -0.6058307E-06 Eh
 * total energy  :   -65.0688258 Eh     change       -0.4078763E-06 Eh
 * total energy  :   -65.0688261 Eh     change       -0.3261031E-06 Eh
 * total energy  :   -65.0688265 Eh     change       -0.3868205E-06 Eh
 * total energy  :   -65.0688265 Eh     change       -0.3167841E-08 Eh
   *** GEOMETRY OPTIMIZATION CONVERGED AFTER 22 ITERATIONS ***

 final structure:
================
43
 xtb: 6.7.1 (edcfbbe)
C           -2.33778941046835        3.66076374464791        0.15126952499266
C           -0.95026619796932        3.68839512271433        0.11262951541844
C           -0.23783777542757        2.50306771594012        0.06191895875232
C           -0.88659571738345        1.27711344273362        0.04739174597634
C           -2.28714304968583        1.25496719330136        0.08448810235715
C           -3.00362667489444        2.45343656157330        0.13710891412749
N           -2.95841570550173        0.05750728349856        0.06729220788285
C           -2.33434998037032       -1.16364044618102        0.00417888486053
C           -3.09671162437941       -2.33435020038896       -0.02194587505778
C           -2.47789998201459       -3.56492355827171       -0.08482567416092
C           -1.09231011839532       -3.64380358838670       -0.12337907264351
C           -0.33459684898058       -2.48615969452849       -0.09754821271631
C           -0.93563163278695       -1.23760873018194       -0.03423772222709
C           -0.07846245646764        0.00377794976260       -0.00386042886303
C            0.89770390289289       -0.05408692673468        1.16162211584026
C            0.62629328260839       -0.09684384024903        2.49199661631611
C            1.69476888770268       -0.14858374242452        3.40859275157628
C            3.02716168503670       -0.15598527851083        2.94823060552682
C            3.32753463469062       -0.11498487982240        1.61834927115534
C            2.26025380455826       -0.06224544823614        0.66597691726211
C            2.24754250005604       -0.01648553188483       -0.71869152928345
C            3.29707793590979       -0.00543930758452       -1.69196378631121
C            2.97203085074095        0.03908976634345       -3.01602112336779
C            1.63153993376354        0.07574592426065       -3.45030289283371
C            0.58014411420376        0.06746790434870       -2.51262001254816
C            0.87621728842539        0.02316714970996       -1.18760971986737
H           -2.89794089759368        4.58284764983627        0.19128052996928
H           -0.42574585450380        4.63159602394693        0.12265872788649
H            0.84169803909837        2.52127968757048        0.03264172285105
H           -4.08356750025023        2.42185515898014        0.16566806983271
H           -3.96897879501966        0.07644821274286        0.09254033501134
H           -4.17469888354286       -2.26294493100867        0.00780431567698
H           -3.07327044183358       -4.46533857596615       -0.10461502140029
H           -0.60464458544502       -4.60536995173068       -0.17273322867304
H            0.74357061922021       -2.54390707807980       -0.12639068337406
H           -0.39222430904200       -0.09219173157945        2.85601038128879
H            1.49293203467822       -0.18160191926306        4.46769675182730
H            3.82420119972465       -0.19568239709872        3.67860745904811
H            4.35007487822712       -0.12129650046847        1.27126361062277
H            4.32585959172766       -0.03345342759346       -1.36500137838635
H            3.75541393006729        0.04678840141229       -3.76204058050866
H            1.41011164469453        0.11000020172605       -4.50545244154483
H           -0.44502975811047        0.09631691124838       -2.85628843676946

          :  Hamiltonian                  GFN2-xTB          :
         :: gradient norm              0.000059017836 Eh/a0 ::
         :: HOMO-LUMO gap              0.457196569522 eV    ::
         :: SCC energy               -66.293565412835 Eh    ::
         :: -> dispersion             -0.060246938193 Eh    ::
         :: -> Gsolv                  -0.026785557825 Eh    ::
         :: repulsion energy           1.224738886142 Eh    ::

    * Orbital Energies and Occupations

         #    Occupation            Energy/Eh            Energy/eV
      -------------------------------------------------------------
         1        2.0000           -0.6815895             -18.5470
       ...           ...                  ...                  ...
        50        2.0000           -0.4283885             -11.6570
        51        2.0000           -0.4181093             -11.3773
        52        2.0000           -0.4154223             -11.3042
        53        2.0000           -0.4152434             -11.2993
        54        2.0000           -0.4115068             -11.1977
        55        2.0000           -0.4107003             -11.1757
        56        2.0000           -0.4085738             -11.1179
        57        2.0000           -0.3968960             -10.8001
        58        2.0000           -0.3946155             -10.7380
        59        2.0000           -0.3915493             -10.6546
        60        1.7197           -0.3599287              -9.7942
        61        1.2803           -0.3581373              -9.7454
        62        0.9999           -0.2551461              -6.9429 (HOMO)
        63        0.0001           -0.2383448              -6.4857 (LUMO)
        64                         -0.2303947              -6.2694
        65                         -0.2294019              -6.2423
        66                         -0.2108538              -5.7376
        67                         -0.2038099              -5.5460
        68                         -0.2009114              -5.4671
        69                         -0.1806192              -4.9149
        70                         -0.1070946              -2.9142
        71                         -0.1028951              -2.7999
        72                         -0.0906065              -2.4655
        73                         -0.0527393              -1.4351
       ...                                ...                  ...
       121                          0.7440960              20.2479
      -------------------------------------------------------------
                  HL-Gap            0.0168013 Eh            0.4572 eV

     #   Z          covCN         q      C6AA      α(0)
     1   6 C        2.918    -0.029    28.715     8.787
     2   6 C        2.918    -0.035    28.881     8.813
     3   6 C        2.923    -0.031    28.782     8.798
     4   6 C        2.981     0.001    28.004     8.680
     5   6 C        2.917     0.066    26.523     8.445
     6   6 C        2.922    -0.057    29.406     8.893
     7   7 N        2.704    -0.110    23.396     7.184
     8   6 C        2.917     0.066    26.522     8.445
     9   6 C        2.922    -0.057    29.407     8.893
    10   6 C        2.918    -0.029    28.715     8.787
    11   6 C        2.918    -0.035    28.881     8.813
    12   6 C        2.923    -0.031    28.782     8.798
    13   6 C        2.981     0.001    28.003     8.680
    14   6 C        3.938     0.013    20.289     6.401
    15   6 C        3.048    -0.005    28.108     8.695
    16   6 C        2.904    -0.039    28.970     8.825
    17   6 C        2.918    -0.050    29.246     8.868
    18   6 C        2.910    -0.034    28.840     8.806
    19   6 C        2.905    -0.046    29.135     8.851
    20   6 C        3.020    -0.011    28.264     8.721
    21   6 C        3.020    -0.011    28.263     8.720
    22   6 C        2.905    -0.046    29.138     8.851
    23   6 C        2.910    -0.034    28.839     8.806
    24   6 C        2.918    -0.050    29.245     8.868
    25   6 C        2.904    -0.039    28.968     8.825
    26   6 C        3.048    -0.005    28.109     8.695
    27   1 H        0.926     0.043     2.407     2.426
    28   1 H        0.926     0.039     2.464     2.455
    29   1 H        0.926     0.036     2.504     2.474
    30   1 H        0.926     0.040     2.447     2.446
    31   1 H        0.860     0.175     1.244     1.747
    32   1 H        0.926     0.040     2.447     2.446
    33   1 H        0.926     0.043     2.407     2.426
    34   1 H        0.926     0.039     2.464     2.455
    35   1 H        0.926     0.036     2.505     2.475
    36   1 H        0.925     0.015     2.811     2.622
    37   1 H        0.926     0.019     2.752     2.594
    38   1 H        0.925     0.020     2.737     2.587
    39   1 H        0.926     0.019     2.742     2.590
    40   1 H        0.926     0.019     2.744     2.590
    41   1 H        0.925     0.020     2.738     2.588
    42   1 H        0.926     0.019     2.752     2.594
    43   1 H        0.925     0.015     2.811     2.622

molecular dipole:
                 x           y           z       tot (Debye)
 q only:       -2.069       0.041       0.035
   full:       -2.172       0.041       0.038       5.523

 projected vibrational frequencies (cm⁻¹)
eigval :       -0.00    -0.00    -0.00     0.00     0.00     0.00
eigval :      -11.99    41.76    44.20    67.46    73.69   110.31
eigval :      118.46   149.71   193.53   210.17   225.05   227.88
eigval :      278.28   283.95   312.01   324.55   387.66   390.81
eigval :      392.68   406.94   417.23   430.53   433.75   469.36
eigval :      490.53   490.80   508.13   519.57   528.41   555.53
eigval :      582.71   594.78   595.73   639.51   640.28   656.24
eigval :      679.01   683.29   688.94   694.97   695.15   728.16
eigval :      760.59   768.49   774.79   789.15   821.74   862.34
eigval :      863.32   864.41   871.44   879.17   879.76   896.70
eigval :      897.70   898.35   912.15   913.98   914.67   919.96
eigval :      922.49   955.93  1023.52  1033.28  1065.24  1088.10
eigval :     1091.99  1094.01  1123.56  1136.23  1137.79  1146.77
eigval :     1162.77  1166.75  1176.69  1177.42  1195.79  1196.39
eigval :     1220.09  1236.02  1248.45  1255.57  1270.55  1273.04
eigval :     1294.48  1297.64  1325.11  1331.81  1333.99  1353.14
eigval :     1356.98  1368.18  1374.43  1436.07  1441.24  1463.16
eigval :     1473.51  1488.66  1493.87  1542.03  1552.01  1558.31
eigval :     1569.47  1575.70  1589.70  1632.30  3055.38  3055.76
eigval :     3056.89  3057.95  3070.08  3070.55  3075.21  3077.36
eigval :     3082.22  3083.81  3088.31  3089.06  3091.47  3092.40
eigval :     3098.39  3099.27  3407.82

   temp. (K)  partition function   enthalpy   heat capacity  entropy
                                   cal/mol     cal/K/mol   cal/K/mol   J/K/mol
 298.15  VIB  0.160E+08            10776.743     74.959     64.173
         ROT  0.834E+07              888.752      2.981     34.652
         INT  0.134E+15            11665.495     77.940     98.825
         TR   0.584E+28             1481.254      4.968     43.270
         TOT                       13146.7489    82.9077   142.0947   594.5242

       T/K    H(0)-H(T)+PV         H(T)/Eh          T*S/Eh         G(T)/Eh
   ------------------------------------------------------------------------
    298.15    0.209507E-01    0.349837E+00    0.675138E-01    0.282324E+00
   ------------------------------------------------------------------------

         :::::::::::::::::::::::::::::::::::::::::::::::::::::
         ::                  THERMODYNAMIC                  ::
         :::::::::::::::::::::::::::::::::::::::::::::::::::::
         :: total free energy         -64.786502929570 Eh   ::
         ::.................................................::
         :: total energy              -65.068826526094 Eh   ::
         :: zero point energy           0.328886689574 Eh   ::
         :: G(RRHO) w/o ZPVE           -0.046563093050 Eh   ::
         :: G(RRHO) contrib.            0.282323596524 Eh   ::
         :::::::::::::::::::::::::::::::::::::::::::::::::::::

           -------------------------------------------------
          | TOTAL ENERGY              -65.068826526094 Eh   |
          | TOTAL ENTHALPY            -64.718989158596 Eh   |
          | TOTAL FREE ENERGY         -64.786502929570 Eh   |
          | GRADIENT NORM               0.000058720373 Eh/α |
          | HOMO-LUMO GAP               0.457187937004 eV   |
           -------------------------------------------------

 * finished run on 2025/07/19 at 19:04:04.267
