   * xtb version 6.7.1 (edcfbbe) compiled by 'albert@albert-system' on 2024-07-22

   ID    Z sym.   atoms
    1    6 C      1-6, 8-26
    2    7 N      7
    3    1 H      27-43

          program call               : xtb data2507/toluene/SpiroAc/SpiroAc_toluene_T1_crest.xyz --gfn 2 --uhf 2 --gbsa toluene --ohess vtight --parallel 40 --molden --ceasefiles --namespace data2507/toluene/SpiroAc/SpiroAc_toluene_T1_finalOpt
      * Solvation model:               GBSA
        Solvent                        toluene
        Solvent mass                       9.2140E+01 g/mol
          :  Hamiltonian                  GFN2-xTB          :
 * total energy  :   -65.0687469 Eh     change       -0.3664553E-09 Eh
 * total energy  :   -65.0687751 Eh     change       -0.2816120E-04 Eh
 * total energy  :   -65.0687837 Eh     change       -0.8614598E-05 Eh
 * total energy  :   -65.0687866 Eh     change       -0.2857520E-05 Eh
 * total energy  :   -65.0687896 Eh     change       -0.3069178E-05 Eh
 * total energy  :   -65.0687921 Eh     change       -0.2475292E-05 Eh
 * total energy  :   -65.0687945 Eh     change       -0.2417209E-05 Eh
 * total energy  :   -65.0687965 Eh     change       -0.1937866E-05 Eh
 * total energy  :   -65.0687977 Eh     change       -0.1270091E-05 Eh
 * total energy  :   -65.0687987 Eh     change       -0.9423616E-06 Eh
 * total energy  :   -65.0688029 Eh     change       -0.1282278E-05 Eh
 * total energy  :   -65.0688042 Eh     change       -0.1247678E-05 Eh
 * total energy  :   -65.0688052 Eh     change       -0.1003612E-05 Eh
 * total energy  :   -65.0688060 Eh     change       -0.8405424E-06 Eh
 * total energy  :   -65.0688069 Eh     change       -0.9085648E-06 Eh
 * total energy  :   -65.0688078 Eh     change       -0.8984409E-06 Eh
 * total energy  :   -65.0688085 Eh     change       -0.7318323E-06 Eh
 * total energy  :   -65.0688090 Eh     change       -0.4625180E-06 Eh
 * total energy  :   -65.0688090 Eh     change       -0.3193279E-08 Eh
   *** GEOMETRY OPTIMIZATION CONVERGED AFTER 22 ITERATIONS ***

 final structure:
================
43
 xtb: 6.7.1 (edcfbbe)
C           -2.38584071356156        3.61729091260770       -0.29925185429653
C           -0.99973926694406        3.66244930337349       -0.36549880590329
C           -0.26761649371033        2.48929050568524       -0.31253679267872
C           -0.89526409977861        1.25741536496030       -0.20049122703111
C           -2.29513478720208        1.21717078642970       -0.14056124081562
C           -3.03124399853619        2.40363734266861       -0.18935548239691
N           -2.94541610194027        0.01230875877352       -0.03761978401487
C           -2.30531856529904       -1.20171900701067       -0.07527772599630
C           -3.05120239127039       -2.38295179085025       -0.05966160164175
C           -2.41598594843687       -3.60591896383911       -0.10725431970496
C           -1.03042564334014       -3.66597639814190       -0.17433916006024
C           -0.28852591073646       -2.49780095148061       -0.18410609178398
C           -0.90590453474899       -1.25672945464698       -0.13363901288965
C           -0.07014552696289       -0.00123827202613       -0.08854494334369
C            0.72477890184751        0.03211358022375        1.21043733241637
C            0.26158233965365        0.06591640707010        2.48766942192600
C            1.18409542755406        0.09646259731851        3.55027171934556
C            2.57033634681281        0.09134864120850        3.28990083769966
C            3.06117207492071        0.05603505749134        2.01826039989646
C            2.14493688254292        0.02342542045901        0.91968850833344
C            2.33487612258760       -0.01829971090999       -0.45238852359013
C            3.51637181448629       -0.04881597991788       -1.25895324981266
C            3.39019493002358       -0.09517606732695       -2.61682946204813
C            2.12861133111572       -0.11148311512052       -3.24390116026722
C            0.95006449049441       -0.08088691094049       -2.47223203032619
C            1.04671357480340       -0.03557047343534       -1.11755699974412
H           -2.96077045875521        4.53037757512637       -0.33525375973154
H           -0.49144559068182        4.61047759628372       -0.45373426388246
H            0.81100915605756        2.52224946169878       -0.35578148233639
H           -4.10994848310831        2.35814308774807       -0.14041936387847
H           -3.95594798024016        0.01736488806073       -0.00332179614664
H           -4.12940539142837       -2.32590909163546       -0.01150106289868
H           -2.99837805799031       -4.51488068842059       -0.09398769302032
H           -0.53021894480527       -4.62155058526480       -0.21429488343625
H            0.78969271503703       -2.54178991802979       -0.22878863571246
H           -0.79917695550333        0.07084715838643        2.69893882231389
H            0.83032577655240        0.12439567407847        4.56888388105598
H            3.25193246322687        0.11634270716849        4.12949862948018
H            4.12344727303233        0.05177606099048        1.82425811518039
H            4.48569441800281       -0.03694322191390       -0.78326977755000
H            4.27520818785057       -0.12020939940081       -3.23847798267548
H            2.06536103553851       -0.14756718947389       -4.32011945568515
H           -0.01314623796039       -0.09406654562548       -2.96408552064816

          :  Hamiltonian                  GFN2-xTB          :
         :: gradient norm              0.000052369704 Eh/a0 ::
         :: HOMO-LUMO gap              0.460937815725 eV    ::
         :: SCC energy               -66.293326176856 Eh    ::
         :: -> dispersion             -0.060277481903 Eh    ::
         :: -> Gsolv                  -0.026723738339 Eh    ::
         :: repulsion energy           1.224517174821 Eh    ::

    * Orbital Energies and Occupations

         #    Occupation            Energy/Eh            Energy/eV
      -------------------------------------------------------------
         1        2.0000           -0.6815763             -18.5466
       ...           ...                  ...                  ...
        50        2.0000           -0.4288111             -11.6685
        51        2.0000           -0.4180944             -11.3769
        52        2.0000           -0.4151477             -11.2967
        53        2.0000           -0.4147214             -11.2851
        54        2.0000           -0.4116054             -11.2004
        55        2.0000           -0.4111882             -11.1890
        56        2.0000           -0.4081827             -11.1072
        57        2.0000           -0.3969684             -10.8021
        58        2.0000           -0.3946761             -10.7397
        59        2.0000           -0.3915749             -10.6553
        60        1.7134           -0.3599681              -9.7952
        61        1.2866           -0.3582350              -9.7481
        62        0.9999           -0.2552417              -6.9455 (HOMO)
        63        0.0001           -0.2383030              -6.4846 (LUMO)
        64                         -0.2301703              -6.2633
        65                         -0.2292852              -6.2392
        66                         -0.2108522              -5.7376
        67                         -0.2039298              -5.5492
        68                         -0.2010844              -5.4718
        69                         -0.1806369              -4.9154
        70                         -0.1075227              -2.9258
        71                         -0.1024167              -2.7869
        72                         -0.0905958              -2.4652
        73                         -0.0527550              -1.4355
       ...                                ...                  ...
       121                          0.7437110              20.2374
      -------------------------------------------------------------
                  HL-Gap            0.0169387 Eh            0.4609 eV

     #   Z          covCN         q      C6AA      α(0)
     1   6 C        2.918    -0.029    28.722     8.788
     2   6 C        2.918    -0.035    28.879     8.812
     3   6 C        2.923    -0.032    28.789     8.799
     4   6 C        2.981     0.001    28.008     8.681
     5   6 C        2.917     0.066    26.525     8.446
     6   6 C        2.922    -0.057    29.405     8.892
     7   7 N        2.704    -0.109    23.394     7.183
     8   6 C        2.917     0.066    26.524     8.445
     9   6 C        2.922    -0.057    29.405     8.893
    10   6 C        2.918    -0.029    28.721     8.788
    11   6 C        2.918    -0.035    28.879     8.812
    12   6 C        2.923    -0.032    28.788     8.799
    13   6 C        2.981     0.001    28.008     8.681
    14   6 C        3.937     0.013    20.285     6.400
    15   6 C        3.050    -0.005    28.100     8.694
    16   6 C        2.904    -0.039    28.975     8.826
    17   6 C        2.918    -0.050    29.250     8.869
    18   6 C        2.910    -0.034    28.849     8.807
    19   6 C        2.905    -0.045    29.119     8.848
    20   6 C        3.020    -0.011    28.273     8.722
    21   6 C        3.020    -0.011    28.255     8.719
    22   6 C        2.905    -0.046    29.144     8.852
    23   6 C        2.910    -0.034    28.837     8.805
    24   6 C        2.918    -0.050    29.239     8.867
    25   6 C        2.904    -0.039    28.957     8.823
    26   6 C        3.045    -0.006    28.118     8.697
    27   1 H        0.926     0.043     2.410     2.427
    28   1 H        0.926     0.039     2.464     2.455
    29   1 H        0.926     0.036     2.502     2.474
    30   1 H        0.926     0.040     2.449     2.447
    31   1 H        0.860     0.175     1.244     1.747
    32   1 H        0.926     0.040     2.449     2.447
    33   1 H        0.926     0.043     2.409     2.427
    34   1 H        0.926     0.039     2.464     2.455
    35   1 H        0.926     0.036     2.503     2.474
    36   1 H        0.925     0.015     2.808     2.621
    37   1 H        0.926     0.019     2.748     2.592
    38   1 H        0.925     0.020     2.733     2.585
    39   1 H        0.926     0.020     2.734     2.586
    40   1 H        0.926     0.019     2.749     2.593
    41   1 H        0.925     0.020     2.741     2.589
    42   1 H        0.926     0.019     2.753     2.594
    43   1 H        0.925     0.015     2.804     2.619

molecular dipole:
                 x           y           z       tot (Debye)
 q only:       -2.049       0.006      -0.119
   full:       -2.155       0.005      -0.106       5.483

 projected vibrational frequencies (cm⁻¹)
eigval :       -0.00    -0.00    -0.00     0.00     0.00     0.00
eigval :       30.12    39.82    48.20    69.38    74.03   113.97
eigval :      123.94   150.73   196.44   208.16   227.00   230.44
eigval :      277.30   286.08   311.59   325.16   387.96   390.92
eigval :      393.50   407.34   419.87   428.59   436.07   469.27
eigval :      490.71   495.16   509.23   523.31   529.06   556.12
eigval :      582.80   594.47   597.28   639.19   639.65   657.85
eigval :      678.76   682.25   690.30   694.18   694.78   728.07
eigval :      761.78   769.00   775.01   789.11   821.57   863.47
eigval :      863.78   865.51   871.92   879.20   879.26   896.35
eigval :      897.59   899.51   911.42   913.34   915.67   920.64
eigval :      922.65   956.22  1024.36  1033.55  1065.31  1086.77
eigval :     1093.16  1094.24  1123.61  1134.86  1137.81  1146.34
eigval :     1163.17  1167.08  1177.33  1177.59  1196.58  1196.97
eigval :     1219.74  1235.15  1249.14  1255.90  1270.70  1273.40
eigval :     1295.66  1299.98  1324.82  1332.04  1334.42  1353.15
eigval :     1356.66  1368.13  1375.39  1436.26  1440.34  1462.93
eigval :     1471.38  1488.39  1494.13  1540.82  1548.33  1557.47
eigval :     1566.32  1573.53  1587.93  1625.73  3055.92  3056.21
eigval :     3056.62  3057.38  3069.89  3070.27  3075.98  3078.20
eigval :     3084.15  3084.21  3089.55  3090.08  3091.78  3092.75
eigval :     3099.27  3099.99  3407.01

   temp. (K)  partition function   enthalpy   heat capacity  entropy
                                   cal/mol     cal/K/mol   cal/K/mol   J/K/mol
 298.15  VIB  0.573E+07            10719.422     75.080     63.156
         ROT  0.834E+07              888.752      2.981     34.650
         INT  0.478E+14            11608.174     78.061     97.806
         TR   0.584E+28             1481.254      4.968     43.270
         TOT                       13089.4281    83.0292   141.0756   590.2603

       T/K    H(0)-H(T)+PV         H(T)/Eh          T*S/Eh         G(T)/Eh
   ------------------------------------------------------------------------
    298.15    0.208593E-01    0.349868E+00    0.670296E-01    0.282838E+00
   ------------------------------------------------------------------------

         :::::::::::::::::::::::::::::::::::::::::::::::::::::
         ::                  THERMODYNAMIC                  ::
         :::::::::::::::::::::::::::::::::::::::::::::::::::::
         :: total free energy         -64.785970962731 Eh   ::
         ::.................................................::
         :: total energy              -65.068808997126 Eh   ::
         :: zero point energy           0.329008271157 Eh   ::
         :: G(RRHO) w/o ZPVE           -0.046170236762 Eh   ::
         :: G(RRHO) contrib.            0.282838034395 Eh   ::
         :::::::::::::::::::::::::::::::::::::::::::::::::::::

           -------------------------------------------------
          | TOTAL ENERGY              -65.068808997126 Eh   |
          | TOTAL ENTHALPY            -64.718941394595 Eh   |
          | TOTAL FREE ENERGY         -64.785970962731 Eh   |
          | GRADIENT NORM               0.000051976766 Eh/α |
          | HOMO-LUMO GAP               0.460925644323 eV   |
           -------------------------------------------------

 * finished run on 2025/07/19 at 19:05:37.122
