   * xtb version 6.7.1 (edcfbbe) compiled by 'albert@albert-system' on 2024-07-22

   ID    Z sym.   atoms
    1    6 C      1-6, 8-26
    2    7 N      7
    3    1 H      27-43

          program call               : xtb data2507/toluene/SpiroAc/SpiroAc.xyz --gfn 2 --gbsa toluene --ohess vtight --parallel 40 --molden --ceasefiles --namespace data2507/toluene/SpiroAc/SpiroAc_toluene_S0_preOpt
      * Solvation model:               GBSA
        Solvent                        toluene
        Solvent mass                       9.2140E+01 g/mol
          :  Hamiltonian                  GFN2-xTB          :
 * total energy  :   -65.1706629 Eh     change       -0.7080985E-09 Eh
 * total energy  :   -65.1777336 Eh     change       -0.7070783E-02 Eh
 * total energy  :   -65.1789915 Eh     change       -0.1257860E-02 Eh
 * total energy  :   -65.1791279 Eh     change       -0.1363937E-03 Eh
 * total energy  :   -65.1791916 Eh     change       -0.6370789E-04 Eh
 * total energy  :   -65.1792047 Eh     change       -0.1309756E-04 Eh
 * total energy  :   -65.1792074 Eh     change       -0.2681064E-05 Eh
 * total energy  :   -65.1792077 Eh     change       -0.3406917E-06 Eh
 * total energy  :   -65.1792077 Eh     change       -0.1756310E-07 Eh
   *** GEOMETRY OPTIMIZATION CONVERGED AFTER 9 ITERATIONS ***

 final structure:
================
43
 xtb: 6.7.1 (edcfbbe)
C           -2.41378762428028        3.61908157997153       -0.00011745747905
C           -1.02931893897298        3.67322243009271       -0.00016123907260
C           -0.29838392966424        2.49786963804203       -0.00011983973690
C           -0.92648110660479        1.26183208430762       -0.00003629897454
C           -2.32280928329596        1.21156021505019        0.00000897307176
C           -3.05699909681672        2.39770343530645       -0.00003301380249
N           -2.97538499483246       -0.00010823804977        0.00009740790847
C           -2.32271680716091       -1.21172686360863        0.00010709798489
C           -3.05681613614119       -2.39792614074775        0.00015551570832
C           -2.41351189322693       -3.61925539264798        0.00016430204133
C           -1.02903918727764       -3.67329054358480        0.00012710235119
C           -0.29819393779367       -2.49788207045272        0.00008001819044
C           -0.92638481398887       -1.26189217766552        0.00006820733853
C           -0.09068989593527        0.00000239419290        0.00000662660681
C            0.87189557241614        0.00008986261318        1.17275289080281
C            0.57644982575762        0.00015565998195        2.51827852602765
C            1.62570968151164        0.00023289180743        3.42833276848676
C            2.94245191031537        0.00024400448267        2.99291823552616
C            3.24445919479110        0.00018063849520        1.64004843981960
C            2.20168956238694        0.00010385534752        0.72783857790845
C            2.20166817151219        0.00003439611528       -0.72789340947031
C            3.24440968888132        0.00001691437081       -1.64013541782491
C            2.94236051355910       -0.00005129269628       -2.99299589619911
C            1.62560499714257       -0.00010134308590       -3.42837037715803
C            0.57637331188510       -0.00008667848854       -2.51828383175884
C            0.87186102871424       -0.00001867857612       -1.17276752664314
H           -2.99383856027018        4.53027700676728       -0.00015116195703
H           -0.52062630392802        4.62539955375536       -0.00022696473106
H            0.78172383331790        2.53561695706073       -0.00015125786578
H           -4.13707318083425        2.34811651992679        0.00000120809204
H           -3.98416719620558       -0.00014673971000        0.00011617365515
H           -4.13689400455993       -2.34842158268276        0.00018408239665
H           -2.99349341061500       -4.53049495518410        0.00019946992139
H           -0.52027310913719       -4.62542836617701        0.00013313813605
H            0.78191638603119       -2.53554883308772        0.00004858287337
H           -0.44922864168837        0.00014855298256        2.85865518366742
H            1.41345852069850        0.00028683405799        4.48772812756805
H            3.74332031103872        0.00030415118577        3.71854022481588
H            4.27179239469295        0.00018996634207        1.30625225196847
H            4.27175322018756        0.00005471703162       -1.30637108178430
H            3.74320669097681       -0.00006668365278       -3.71864239839327
H            1.41332130087665       -0.00015314141388       -4.48775919685408
H           -0.44931606346317       -0.00012653777535       -2.85862776316224

          :  Hamiltonian                  GFN2-xTB          :
         :: gradient norm              0.000033735951 Eh/a0 ::
         :: HOMO-LUMO gap              2.707840271050 eV    ::
         :: SCC energy               -66.425143278826 Eh    ::
         :: -> dispersion             -0.060438433763 Eh    ::
         :: -> Gsolv                  -0.025100260355 Eh    ::
         :: repulsion energy           1.245935543359 Eh    ::

    * Orbital Energies and Occupations

         #    Occupation            Energy/Eh            Energy/eV
      -------------------------------------------------------------
         1        2.0000           -0.6687717             -18.1982
       ...           ...                  ...                  ...
        49        2.0000           -0.4300406             -11.7020
        50        2.0000           -0.4248003             -11.5594
        51        2.0000           -0.4215254             -11.4703
        52        2.0000           -0.4206128             -11.4455
        53        2.0000           -0.4194280             -11.4132
        54        2.0000           -0.4113337             -11.1930
        55        2.0000           -0.4096385             -11.1468
        56        2.0000           -0.4057500             -11.0410
        57        2.0000           -0.3968293             -10.7983
        58        2.0000           -0.3945587             -10.7365
        59        2.0000           -0.3924092             -10.6780
        60        2.0000           -0.3781125             -10.2890
        61        2.0000           -0.3501078              -9.5269 (HOMO)
        62                         -0.2505965              -6.8191 (LUMO)
        63                         -0.2303652              -6.2686
        64                         -0.2237071              -6.0874
        65                         -0.2225456              -6.0558
        66                         -0.2216747              -6.0321
        67                         -0.2142694              -5.8306
        68                         -0.1904122              -5.1814
        69                         -0.1883009              -5.1239
        70                         -0.1089321              -2.9642
        71                         -0.0934123              -2.5419
        72                         -0.0807023              -2.1960
       ...                                ...                  ...
       121                          0.7294271              19.8487
      -------------------------------------------------------------
                  HL-Gap            0.0995113 Eh            2.7078 eV

     #   Z          covCN         q      C6AA      α(0)
     1   6 C        2.919    -0.033    28.821     8.804
     2   6 C        2.918    -0.045    29.119     8.849
     3   6 C        2.925    -0.036    28.895     8.815
     4   6 C        2.982    -0.008    28.202     8.711
     5   6 C        2.916     0.065    26.552     8.450
     6   6 C        2.924    -0.063    29.558     8.916
     7   7 N        2.703    -0.142    24.072     7.287
     8   6 C        2.916     0.065    26.552     8.450
     9   6 C        2.924    -0.063    29.558     8.916
    10   6 C        2.919    -0.033    28.821     8.804
    11   6 C        2.918    -0.045    29.119     8.849
    12   6 C        2.925    -0.036    28.895     8.815
    13   6 C        2.982    -0.008    28.202     8.711
    14   6 C        3.947     0.012    20.305     6.403
    15   6 C        3.057     0.002    27.927     8.666
    16   6 C        2.914    -0.034    28.844     8.807
    17   6 C        2.922    -0.033    28.822     8.804
    18   6 C        2.921    -0.034    28.841     8.807
    19   6 C        2.914    -0.036    28.885     8.813
    20   6 C        3.034     0.000    27.993     8.678
    21   6 C        3.034     0.000    27.993     8.678
    22   6 C        2.914    -0.036    28.885     8.813
    23   6 C        2.921    -0.034    28.841     8.807
    24   6 C        2.922    -0.033    28.822     8.804
    25   6 C        2.914    -0.034    28.844     8.807
    26   6 C        3.057     0.002    27.927     8.666
    27   1 H        0.926     0.032     2.551     2.498
    28   1 H        0.926     0.028     2.610     2.526
    29   1 H        0.926     0.026     2.642     2.542
    30   1 H        0.925     0.029     2.601     2.522
    31   1 H        0.860     0.163     1.313     1.795
    32   1 H        0.925     0.029     2.601     2.522
    33   1 H        0.926     0.032     2.551     2.498
    34   1 H        0.926     0.028     2.610     2.526
    35   1 H        0.926     0.026     2.642     2.542
    36   1 H        0.926     0.026     2.648     2.545
    37   1 H        0.926     0.031     2.566     2.505
    38   1 H        0.926     0.032     2.563     2.504
    39   1 H        0.926     0.032     2.557     2.500
    40   1 H        0.926     0.032     2.557     2.500
    41   1 H        0.926     0.032     2.563     2.504
    42   1 H        0.926     0.031     2.566     2.505
    43   1 H        0.926     0.026     2.648     2.545

molecular dipole:
                 x           y           z       tot (Debye)
 q only:       -0.524      -0.000       0.000
   full:       -0.645      -0.000       0.000       1.639

 projected vibrational frequencies (cm⁻¹)
eigval :       -0.00    -0.00     0.00     0.00     0.00     0.00
eigval :        5.10    39.60    45.20    63.98    81.53   110.46
eigval :      138.64   151.19   186.85   227.98   235.17   244.57
eigval :      277.77   292.36   313.49   381.79   393.01   393.82
eigval :      413.90   422.56   424.37   455.59   460.29   462.94
eigval :      500.04   508.95   512.83   539.52   559.98   587.64
eigval :      599.84   600.63   602.74   645.98   674.32   685.02
eigval :      685.70   687.31   730.09   753.14   768.32   772.32
eigval :      777.30   786.13   825.56   862.89   863.09   878.72
eigval :      879.44   880.86   891.83   908.01   909.10   910.42
eigval :      914.01   919.85   919.92   919.99   926.60   926.95
eigval :      933.13  1005.52  1073.07  1077.72  1088.19  1098.09
eigval :     1098.79  1124.86  1141.27  1145.93  1176.12  1176.36
eigval :     1179.84  1179.99  1182.63  1202.43  1203.58  1216.80
eigval :     1235.97  1239.70  1258.89  1264.06  1273.90  1276.91
eigval :     1283.11  1324.90  1332.01  1333.92  1365.51  1377.16
eigval :     1428.03  1428.91  1440.25  1460.13  1465.80  1470.03
eigval :     1492.91  1493.66  1578.02  1584.85  1588.43  1589.58
eigval :     1595.25  1600.06  1603.04  1603.45  3063.21  3063.49
eigval :     3067.28  3067.72  3071.10  3071.71  3075.80  3075.96
eigval :     3077.80  3078.71  3079.44  3079.68  3086.31  3088.26
eigval :     3092.57  3093.56  3438.45

   temp. (K)  partition function   enthalpy   heat capacity  entropy
                                   cal/mol     cal/K/mol   cal/K/mol   J/K/mol
 298.15  VIB  0.221E+08            10389.476     72.476     62.612
         ROT  0.414E+07              888.752      2.981     33.258
         INT  0.916E+14            11278.228     75.456     95.870
         TR   0.584E+28             1481.254      4.968     43.270
         TOT                       12759.4822    80.4246   139.1395   582.1598

       T/K    H(0)-H(T)+PV         H(T)/Eh          T*S/Eh         G(T)/Eh
   ------------------------------------------------------------------------
    298.15    0.203335E-01    0.354087E+00    0.661097E-01    0.287978E+00
   ------------------------------------------------------------------------

         :::::::::::::::::::::::::::::::::::::::::::::::::::::
         ::                  THERMODYNAMIC                  ::
         :::::::::::::::::::::::::::::::::::::::::::::::::::::
         :: total free energy         -64.891230051702 Eh   ::
         ::.................................................::
         :: total energy              -65.179207735476 Eh   ::
         :: zero point energy           0.333753837876 Eh   ::
         :: G(RRHO) w/o ZPVE           -0.045776154102 Eh   ::
         :: G(RRHO) contrib.            0.287977683774 Eh   ::
         :::::::::::::::::::::::::::::::::::::::::::::::::::::

           -------------------------------------------------
          | TOTAL ENERGY              -65.179207735476 Eh   |
          | TOTAL ENTHALPY            -64.825120368358 Eh   |
          | TOTAL FREE ENERGY         -64.891230051702 Eh   |
          | GRADIENT NORM               0.000033776406 Eh/α |
          | HOMO-LUMO GAP               2.707840135995 eV   |
           -------------------------------------------------

 * finished run on 2025/07/19 at 19:02:55.359
