   * xtb version 6.7.1 (edcfbbe) compiled by 'albert@albert-system' on 2024-07-22

   ID    Z sym.   atoms
    1    6 C      1-6, 8-26
    2    7 N      7
    3    1 H      27-43

          program call               : xtb data2507/toluene/SpiroAc/SpiroAc_toluene_S0_crest.xyz --gfn 2 --gbsa toluene --ohess vtight --parallel 40 --molden --ceasefiles --namespace data2507/toluene/SpiroAc/SpiroAc_toluene_S0_finalOpt
      * Solvation model:               GBSA
        Solvent                        toluene
        Solvent mass                       9.2140E+01 g/mol
          :  Hamiltonian                  GFN2-xTB          :
 * total energy  :   -65.1791971 Eh     change       -0.4824017E-09 Eh
 * total energy  :   -65.1792093 Eh     change       -0.1223602E-04 Eh
 * total energy  :   -65.1792112 Eh     change       -0.1922537E-05 Eh
 * total energy  :   -65.1792131 Eh     change       -0.1888657E-05 Eh
 * total energy  :   -65.1792147 Eh     change       -0.1556356E-05 Eh
 * total energy  :   -65.1792164 Eh     change       -0.1725790E-05 Eh
 * total energy  :   -65.1792186 Eh     change       -0.2256835E-05 Eh
 * total energy  :   -65.1792210 Eh     change       -0.2353217E-05 Eh
 * total energy  :   -65.1792226 Eh     change       -0.1645903E-05 Eh
 * total energy  :   -65.1792233 Eh     change       -0.6623526E-06 Eh
 * total energy  :   -65.1792248 Eh     change       -0.3090938E-06 Eh
 * total energy  :   -65.1792252 Eh     change       -0.3733414E-06 Eh
 * total energy  :   -65.1792258 Eh     change       -0.6105219E-06 Eh
 * total energy  :   -65.1792267 Eh     change       -0.8632454E-06 Eh
 * total energy  :   -65.1792274 Eh     change       -0.7570077E-06 Eh
 * total energy  :   -65.1792279 Eh     change       -0.5157687E-06 Eh
 * total energy  :   -65.1792283 Eh     change       -0.3126135E-06 Eh
 * total energy  :   -65.1792285 Eh     change       -0.2262635E-06 Eh
 * total energy  :   -65.1792285 Eh     change       -0.2365354E-08 Eh
   *** GEOMETRY OPTIMIZATION CONVERGED AFTER 22 ITERATIONS ***

 final structure:
================
43
 xtb: 6.7.1 (edcfbbe)
C           -2.31967308138598        3.66432845180293        0.13957578403396
C           -0.93460775761812        3.69309756070052        0.12090951479048
C           -0.22571887472150        2.50509496884693        0.07762827113062
C           -0.87649991796881        1.28108010765122        0.05194303049258
C           -2.27344238138614        1.25651352328079        0.07025252263281
C           -2.98537009468806        2.45533813960562        0.11458557167665
N           -2.94874450595937        0.05766757111513        0.04353293571927
C           -2.31929584893318       -1.16514095251699       -0.00572862450491
C           -3.07573012203474       -2.33691097169926       -0.03295756375084
C           -2.45577411680293       -3.56933336240949       -0.08052083204957
C           -1.07273223062351       -3.64894556776686       -0.10252742718546
C           -0.31978655395890       -2.48788238784428       -0.07607385000959
C           -0.92431921601024       -1.24106758239960       -0.02780886306284
C           -0.06478762318936        0.00451626980971        0.00208186159514
C            0.91148199947755       -0.05459478436515        1.16208115969001
C            0.63217050000654       -0.09822238081242        2.51036227788336
C            1.69189084469721       -0.15424565491362        3.40649357760968
C            3.00309359338022       -0.16623608331189        2.95483746840524
C            3.28892632353012       -0.12310089848560        1.59913950717361
C            2.23567906718170       -0.06712157498316        0.70078426143792
C            2.21841431370977       -0.01646532549905       -0.75398663659446
C            3.24998715148009       -0.00573515672474       -1.67877360489752
C            2.93194780661738        0.04627970492953       -3.02696648056364
C            1.61038225641273        0.08719049705531       -3.44552390406350
C            0.57230450945208        0.07724445656368       -2.52280712951630
C            0.88370328909044        0.02516112295310       -1.18188147129217
H           -2.88267268731373        4.58555214524112        0.17280531650737
H           -0.40820098637400        4.63539595768061        0.13956699387041
H            0.85473826082857        2.52358204142109        0.06242964177409
H           -4.06608156945428        2.42540526368376        0.12830823727265
H           -3.95727576281567        0.07640364571829        0.05633336038489
H           -4.15454816673516       -2.26736598088482       -0.01569661292271
H           -3.05288201537821       -4.46920977934087       -0.10063734288647
H           -0.58209908880633       -4.60983444505384       -0.13949586243157
H            0.75931015839313       -2.54557506667882       -0.09241776708872
H           -0.38913472871983       -0.09012543343054        2.86356736302609
H            1.49218788758622       -0.18882868782489        4.46775950003472
H            3.81226026620034       -0.21018795164269        3.66984033747248
H            4.31197899852459       -0.13332812521708        1.25261945938039
H            4.28102447897052       -0.03732343960983       -1.35816368932531
H            3.72393533319529        0.05499391873394       -3.76221320974786
H            1.38551939781682        0.12695826201028       -4.50157836537659
H           -0.45716661317328        0.10968806691142       -2.84998463792421

          :  Hamiltonian                  GFN2-xTB          :
         :: gradient norm              0.000051854962 Eh/a0 ::
         :: HOMO-LUMO gap              2.707825959558 eV    ::
         :: SCC energy               -66.425129654621 Eh    ::
         :: -> dispersion             -0.060434730457 Eh    ::
         :: -> Gsolv                  -0.025123980789 Eh    ::
         :: repulsion energy           1.245901174587 Eh    ::

    * Orbital Energies and Occupations

         #    Occupation            Energy/Eh            Energy/eV
      -------------------------------------------------------------
         1        2.0000           -0.6687714             -18.1982
       ...           ...                  ...                  ...
        49        2.0000           -0.4300373             -11.7019
        50        2.0000           -0.4248062             -11.5596
        51        2.0000           -0.4215263             -11.4703
        52        2.0000           -0.4206075             -11.4453
        53        2.0000           -0.4194268             -11.4132
        54        2.0000           -0.4113295             -11.1928
        55        2.0000           -0.4096409             -11.1469
        56        2.0000           -0.4057489             -11.0410
        57        2.0000           -0.3968305             -10.7983
        58        2.0000           -0.3945595             -10.7365
        59        2.0000           -0.3924117             -10.6781
        60        2.0000           -0.3781119             -10.2889
        61        2.0000           -0.3501067              -9.5269 (HOMO)
        62                         -0.2505959              -6.8191 (LUMO)
        63                         -0.2303627              -6.2685
        64                         -0.2237116              -6.0875
        65                         -0.2225490              -6.0559
        66                         -0.2216782              -6.0322
        67                         -0.2142716              -5.8306
        68                         -0.1904067              -5.1812
        69                         -0.1883014              -5.1239
        70                         -0.1089370              -2.9643
        71                         -0.0934132              -2.5419
        72                         -0.0807037              -2.1961
       ...                                ...                  ...
       121                          0.7293948              19.8478
      -------------------------------------------------------------
                  HL-Gap            0.0995108 Eh            2.7078 eV

     #   Z          covCN         q      C6AA      α(0)
     1   6 C        2.919    -0.033    28.821     8.804
     2   6 C        2.918    -0.045    29.119     8.849
     3   6 C        2.925    -0.036    28.894     8.815
     4   6 C        2.981    -0.008    28.202     8.711
     5   6 C        2.916     0.065    26.552     8.450
     6   6 C        2.924    -0.063    29.558     8.916
     7   7 N        2.703    -0.142    24.072     7.287
     8   6 C        2.916     0.065    26.552     8.450
     9   6 C        2.924    -0.063    29.558     8.916
    10   6 C        2.919    -0.033    28.821     8.804
    11   6 C        2.918    -0.045    29.119     8.849
    12   6 C        2.925    -0.036    28.895     8.815
    13   6 C        2.982    -0.008    28.202     8.711
    14   6 C        3.947     0.012    20.305     6.403
    15   6 C        3.057     0.002    27.927     8.666
    16   6 C        2.914    -0.034    28.844     8.807
    17   6 C        2.922    -0.033    28.823     8.804
    18   6 C        2.921    -0.034    28.841     8.807
    19   6 C        2.914    -0.036    28.884     8.813
    20   6 C        3.034     0.000    27.993     8.678
    21   6 C        3.034     0.000    27.993     8.678
    22   6 C        2.914    -0.036    28.885     8.813
    23   6 C        2.921    -0.034    28.841     8.807
    24   6 C        2.922    -0.033    28.822     8.804
    25   6 C        2.914    -0.034    28.844     8.807
    26   6 C        3.057     0.002    27.927     8.666
    27   1 H        0.926     0.032     2.551     2.498
    28   1 H        0.926     0.028     2.610     2.526
    29   1 H        0.926     0.026     2.642     2.542
    30   1 H        0.925     0.029     2.602     2.522
    31   1 H        0.860     0.163     1.313     1.795
    32   1 H        0.926     0.029     2.601     2.522
    33   1 H        0.926     0.032     2.551     2.498
    34   1 H        0.926     0.028     2.610     2.526
    35   1 H        0.926     0.026     2.642     2.542
    36   1 H        0.926     0.026     2.648     2.545
    37   1 H        0.926     0.031     2.565     2.505
    38   1 H        0.926     0.032     2.563     2.503
    39   1 H        0.926     0.032     2.556     2.500
    40   1 H        0.926     0.032     2.557     2.500
    41   1 H        0.926     0.032     2.563     2.504
    42   1 H        0.926     0.031     2.566     2.505
    43   1 H        0.926     0.026     2.648     2.545

molecular dipole:
                 x           y           z       tot (Debye)
 q only:       -0.524       0.010       0.008
   full:       -0.645       0.011       0.008       1.639

 projected vibrational frequencies (cm⁻¹)
eigval :       -0.00    -0.00    -0.00    -0.00     0.00     0.00
eigval :        5.34    42.40    46.26    65.77    85.97   111.21
eigval :      141.02   151.51   187.80   228.22   238.09   246.21
eigval :      279.65   294.95   313.88   383.97   394.07   394.23
eigval :      414.13   422.51   425.51   454.77   460.67   464.39
eigval :      500.19   509.39   513.63   540.60   560.20   587.58
eigval :      600.08   600.68   603.05   645.95   675.14   685.91
eigval :      686.30   687.34   730.77   753.01   767.90   772.02
eigval :      777.35   786.25   825.46   861.94   862.28   877.98
eigval :      879.11   880.60   891.90   907.77   909.51   910.70
eigval :      914.75   919.08   919.92   920.64   926.68   927.14
eigval :      933.15  1005.41  1073.24  1078.42  1088.32  1097.47
eigval :     1099.32  1124.93  1141.62  1146.26  1175.40  1177.55
eigval :     1179.57  1180.43  1183.19  1202.73  1203.86  1217.00
eigval :     1236.27  1239.89  1258.88  1264.28  1273.98  1277.65
eigval :     1283.55  1325.00  1332.32  1334.17  1365.58  1377.57
eigval :     1428.09  1429.06  1440.47  1460.09  1466.30  1470.11
eigval :     1493.18  1493.97  1578.15  1584.77  1588.59  1589.86
eigval :     1595.23  1600.18  1603.27  1603.62  3063.29  3063.83
eigval :     3067.20  3067.94  3070.93  3071.47  3074.16  3076.40
eigval :     3077.81  3078.64  3079.40  3080.18  3086.26  3088.20
eigval :     3092.23  3093.54  3438.60

   temp. (K)  partition function   enthalpy   heat capacity  entropy
                                   cal/mol     cal/K/mol   cal/K/mol   J/K/mol
 298.15  VIB  0.174E+08            10357.541     72.548     62.301
         ROT  0.414E+07              888.752      2.981     33.258
         INT  0.720E+14            11246.293     75.529     95.559
         TR   0.584E+28             1481.254      4.968     43.270
         TOT                       12727.5469    80.4967   138.8285   580.8586

       T/K    H(0)-H(T)+PV         H(T)/Eh          T*S/Eh         G(T)/Eh
   ------------------------------------------------------------------------
    298.15    0.202826E-01    0.354133E+00    0.659619E-01    0.288171E+00
   ------------------------------------------------------------------------

         :::::::::::::::::::::::::::::::::::::::::::::::::::::
         ::                  THERMODYNAMIC                  ::
         :::::::::::::::::::::::::::::::::::::::::::::::::::::
         :: total free energy         -64.891057510779 Eh   ::
         ::.................................................::
         :: total energy              -65.179228476909 Eh   ::
         :: zero point energy           0.333850251160 Eh   ::
         :: G(RRHO) w/o ZPVE           -0.045679285030 Eh   ::
         :: G(RRHO) contrib.            0.288170966130 Eh   ::
         :::::::::::::::::::::::::::::::::::::::::::::::::::::

           -------------------------------------------------
          | TOTAL ENERGY              -65.179228476909 Eh   |
          | TOTAL ENTHALPY            -64.825095588690 Eh   |
          | TOTAL FREE ENERGY         -64.891057510779 Eh   |
          | GRADIENT NORM               0.000051856126 Eh/α |
          | HOMO-LUMO GAP               2.707825992461 eV   |
           -------------------------------------------------

 * finished run on 2025/07/19 at 19:04:02.159
