   * xtb version 6.7.1 (edcfbbe) compiled by 'albert@albert-system' on 2024-07-22

   ID    Z sym.   atoms
    1    6 C      1-21, 23-41, 43-52
    2    8 O      22
    3    7 N      42
    4    1 H      53-93

          program call               : xtb data2507/toluene/SIR-B/SIR-B.xyz --gfn 2 --gbsa toluene --ohess vtight --parallel 40 --molden --ceasefiles --namespace data2507/toluene/SIR-B/SIR-B_toluene_S0_preOpt
      * Solvation model:               GBSA
        Solvent                        toluene
        Solvent mass                       9.2140E+01 g/mol
          :  Hamiltonian                  GFN2-xTB          :
 * total energy  :  -135.0590217 Eh     change       -0.2369489E-08 Eh
 * total energy  :  -135.0746379 Eh     change       -0.1561623E-01 Eh
 * total energy  :  -135.0802071 Eh     change       -0.5569235E-02 Eh
 * total energy  :  -135.0816606 Eh     change       -0.1453424E-02 Eh
 * total energy  :  -135.0823319 Eh     change       -0.6713603E-03 Eh
 * total energy  :  -135.0825764 Eh     change       -0.2444403E-03 Eh
 * total energy  :  -135.0827228 Eh     change       -0.1463765E-03 Eh
 * total energy  :  -135.0828591 Eh     change       -0.1363938E-03 Eh
 * total energy  :  -135.0829685 Eh     change       -0.1093077E-03 Eh
 * total energy  :  -135.0830747 Eh     change       -0.1062124E-03 Eh
 * total energy  :  -135.0834568 Eh     change       -0.2018963E-06 Eh
 * total energy  :  -135.0834570 Eh     change       -0.1804445E-06 Eh
 * total energy  :  -135.0834569 Eh     change        0.3643902E-07 Eh
 * total energy  :  -135.0834571 Eh     change       -0.1342527E-06 Eh
 * total energy  :  -135.0834572 Eh     change       -0.1203043E-06 Eh
 * total energy  :  -135.0834574 Eh     change       -0.1662373E-06 Eh
 * total energy  :  -135.0834576 Eh     change       -0.2128077E-06 Eh
 * total energy  :  -135.0834578 Eh     change       -0.2334297E-06 Eh
 * total energy  :  -135.0834578 Eh     change       -0.2886537E-08 Eh
   *** GEOMETRY OPTIMIZATION CONVERGED AFTER 68 ITERATIONS ***

 final structure:
================
93
 xtb: 6.7.1 (edcfbbe)
C            1.36115548956641       -0.47898276171426        5.00099735174839
C            0.67943924677376       -0.18719065275054        3.69842662371120
C           -0.59811865318535        0.36062585452709        3.66651958882368
C           -1.23452227964623        0.61368292476904        2.47043903130984
C           -0.61396117993476        0.32787927277546        1.25048100256186
C            0.66752007703466       -0.22549419451474        1.27287964882530
C            1.28913058339239       -0.47359142988417        2.48711675112958
C            1.40885741105732       -0.59054611205160       -0.00377363361872
C            2.71451069169970        0.16347210936805       -0.01481616197351
C            2.68188227245882        1.55140096295378       -0.10683177736784
C            3.84266503352701        2.29535330847654       -0.10778670128111
C            5.09044940214781        1.67428975584298       -0.00836508258014
C            6.33065422838924        2.46545014935620       -0.00426868894427
C            7.37327073884050        2.14413834165490        0.86217521283090
C            8.53635990322919        2.89203362789343        0.87034034906654
C            8.67868731469500        3.96865493498590        0.01020004552122
C            7.64994610224118        4.29370002058354       -0.85862710352306
C            6.48356088643159        3.55083189315561       -0.86435275785420
C            5.12463968717312        0.29272057823105        0.08998600294830
C            3.95471188673542       -0.46877816071578        0.08646328511898
C            4.07724146540532       -1.93398041703797        0.18962845599025
O            5.16671943404590       -2.47991171821737        0.34352497046687
C            2.83124241221808       -2.70680179008073        0.09163008135192
C            2.90522270006573       -4.10429420542744        0.09554148826951
C            1.77220487755301       -4.87587074635001       -0.00463771559445
C            0.51743347612558       -4.26822237902891       -0.11043688312822
C           -0.70502915773850       -5.07353820599670       -0.23949837222640
C           -0.87900734867879       -6.23349785226281        0.51287776291429
C           -2.03164195296195       -6.98702836080835        0.38603110188692
C           -3.02434080468378       -6.59864554897551       -0.49878932312477
C           -2.85985071727950       -5.44889030584194       -1.25418176505194
C           -1.71183246313453       -4.68923960862766       -1.12394477220483
C            0.44632224048431       -2.88063958570916       -0.10298610265859
C            1.58283019313602       -2.09027734303583       -0.00917707765453
C            0.61992460309483       -0.20780032734286       -1.24298481022669
C            1.19663884504260       -0.44115367958878       -2.48157974664042
C            0.54235311422237       -0.14065129772993       -3.66709800829823
C            1.19971610937520       -0.38134568423263       -4.99250148998175
C           -0.73060099854264        0.41016418067738       -3.58197262913359
C           -1.32285412419193        0.65043522059032       -2.35976993547562
C           -0.66027009560615        0.34517091115138       -1.16748804134059
N           -1.26332627211405        0.58763339064144        0.05530280895244
C           -2.57501391938120        1.14552384893681        0.08401836466228
C           -2.75251965642722        2.52093713253333        0.15389101108460
C           -4.02722495390648        3.05173205578632        0.18002448225829
C           -5.15851530118149        2.23835990753916        0.13672190761763
C           -6.53939527920128        2.87563663155318        0.16437866513282
C           -7.66855439330834        1.84195855935329        0.11247998358834
C           -6.68411379826868        3.80488077508850       -1.05023311823981
C           -6.69114345926026        3.68570866914176        1.46061981978206
C           -4.96093378698634        0.86393573102177        0.06759628315484
C           -3.68782481879001        0.32011326345994        0.04215842262459
H            1.22097976886357        0.34217469930396        5.70168252788238
H            0.94103012019012       -1.37921300127947        5.45164099421288
H            2.42673593019607       -0.63812065598770        4.85293625366935
H           -1.10310398181678        0.59309708261645        4.59310987674822
H           -2.22703726987240        1.03759130660512        2.47368590129976
H            2.28155211286442       -0.90456653596521        2.48013525102819
H            1.72556011822709        2.04906674397318       -0.17801799745353
H            3.78818999480137        3.37241898713889       -0.16616867200789
H            7.26112269576451        1.31367462952010        1.54436735825023
H            9.33502821662876        2.63459083375538        1.55127084624241
H            9.58849493804590        4.55096877448690        0.01620995910238
H            7.75811720040321        5.12868101715598       -1.53595200131820
H            5.69086217068152        3.79855411394051       -1.55550490301598
H            6.06562601784943       -0.23541454486215        0.15376207844046
H            3.88387163549039       -4.55671118343721        0.17281077250328
H            1.85114141535908       -5.95252405574429       -0.02325562141211
H           -0.11478164288173       -6.53227890405804        1.21560542429627
H           -2.15631843476493       -7.88106909537659        0.97988888513860
H           -3.92214068991240       -7.19067993693530       -0.60004631143604
H           -3.62896107700669       -5.14410072487574       -1.94933491856158
H           -1.57878982822783       -3.80352985825348       -1.72888218518877
H           -0.51895306779324       -2.39992745268637       -0.16027786571092
H            2.18775337152974       -0.87377191228621       -2.51487380559582
H            0.45745080449266       -0.57157942282352       -5.76456284181366
H            1.77811351433229        0.49541933160993       -5.28811668050319
H            1.88009901309316       -1.22860009549421       -4.93834530009172
H           -1.26955560225371        0.65562841426740       -4.48586537506175
H           -2.31270209474938        1.07878773259415       -2.32211793686453
H           -1.88872264164687        3.16901369414423        0.18888983358266
H           -4.13350638999547        4.12425723402317        0.23428088531502
H           -7.62465618181377        1.25813165649153       -0.80418619697016
H           -8.62816854982576        2.35442755886345        0.13717768992942
H           -7.62565921796054        1.17072221658127        0.96728581442185
H           -7.67504214406487        4.25379932439872       -1.06036626401568
H           -6.55089681808329        3.24313906092213       -1.97288021230113
H           -5.94938564845124        4.60501826835754       -1.02893021674424
H           -6.56861864699384        3.03789422511272        2.32661587821653
H           -5.95309533419689        4.48066995514814        1.52240253083521
H           -7.68036065331176        4.13638508605273        1.50496425734722
H           -5.79992036707852        0.18900114562001        0.03310452433929
H           -3.55604876788897       -0.75107435671974       -0.01049404196378

          :  Hamiltonian                  GFN2-xTB          :
         :: gradient norm              0.000036758116 Eh/a0 ::
         :: HOMO-LUMO gap              1.392316706500 eV    ::
         :: SCC energy              -137.541252286237 Eh    ::
         :: -> dispersion             -0.129925431665 Eh    ::
         :: -> Gsolv                  -0.057838429919 Eh    ::
         :: repulsion energy           2.457794472643 Eh    ::

    * Orbital Energies and Occupations

         #    Occupation            Energy/Eh            Energy/eV
      -------------------------------------------------------------
         1        2.0000           -0.7011227             -19.0785
       ...           ...                  ...                  ...
       114        2.0000           -0.4101700             -11.1613
       115        2.0000           -0.4083647             -11.1122
       116        2.0000           -0.4073002             -11.0832
       117        2.0000           -0.4067334             -11.0678
       118        2.0000           -0.4052160             -11.0265
       119        2.0000           -0.3986008             -10.8465
       120        2.0000           -0.3968902             -10.7999
       121        2.0000           -0.3965229             -10.7899
       122        2.0000           -0.3953548             -10.7582
       123        2.0000           -0.3928547             -10.6901
       124        2.0000           -0.3874403             -10.5428
       125        2.0000           -0.3855088             -10.4902
       126        2.0000           -0.3443564              -9.3704 (HOMO)
       127                         -0.2931898              -7.9781 (LUMO)
       128                         -0.2523496              -6.8668
       129                         -0.2437702              -6.6333
       130                         -0.2334815              -6.3534
       131                         -0.2297388              -6.2515
       132                         -0.2280508              -6.2056
       133                         -0.2252871              -6.1304
       134                         -0.2233280              -6.0771
       135                         -0.2224814              -6.0540
       136                         -0.2221165              -6.0441
       137                         -0.2200839              -5.9888
       ...                                ...                  ...
       249                          0.6974798              18.9794
      -------------------------------------------------------------
                  HL-Gap            0.0511667 Eh            1.3923 eV

     #   Z          covCN         q      C6AA      α(0)
     1   6 C        3.757    -0.107    22.599     6.778
     2   6 C        2.964     0.004    27.943     8.671
     3   6 C        2.925    -0.043    29.069     8.842
     4   6 C        2.922    -0.060    29.480     8.904
     5   6 C        2.925     0.057    26.713     8.476
     6   6 C        2.990    -0.013    28.338     8.732
     7   6 C        2.931    -0.046    29.148     8.854
     8   6 C        3.928     0.016    20.239     6.393
     9   6 C        2.986     0.015    27.674     8.629
    10   6 C        2.922    -0.033    28.821     8.804
    11   6 C        2.924    -0.028    28.697     8.785
    12   6 C        2.974     0.010    27.783     8.646
    13   6 C        2.977     0.010    27.797     8.648
    14   6 C        2.925    -0.033    28.819     8.804
    15   6 C        2.918    -0.030    28.738     8.791
    16   6 C        2.920    -0.031    28.774     8.796
    17   6 C        2.918    -0.030    28.749     8.792
    18   6 C        2.925    -0.034    28.848     8.808
    19   6 C        2.931    -0.025    28.632     8.775
    20   6 C        2.974    -0.025    28.613     8.774
    21   6 C        2.832     0.223    23.315     7.913
    22   8 O        0.858    -0.450    22.710     6.389
    23   6 C        2.976    -0.026    28.656     8.781
    24   6 C        2.923    -0.021    28.522     8.758
    25   6 C        2.921    -0.036    28.894     8.815
    26   6 C        2.976     0.019    27.579     8.614
    27   6 C        2.977     0.010    27.782     8.646
    28   6 C        2.924    -0.032    28.805     8.801
    29   6 C        2.918    -0.029    28.729     8.789
    30   6 C        2.920    -0.030    28.743     8.792
    31   6 C        2.918    -0.029    28.727     8.789
    32   6 C        2.924    -0.032    28.801     8.801
    33   6 C        2.930    -0.038    28.957     8.825
    34   6 C        2.987     0.017    27.634     8.623
    35   6 C        2.988    -0.014    28.353     8.735
    36   6 C        2.931    -0.046    29.142     8.853
    37   6 C        2.964     0.004    27.936     8.670
    38   6 C        3.757    -0.107    22.604     6.779
    39   6 C        2.925    -0.043    29.065     8.841
    40   6 C        2.922    -0.060    29.487     8.905
    41   6 C        2.925     0.057    26.722     8.477
    42   7 N        2.752    -0.074    22.685     7.074
    43   6 C        2.926     0.062    26.612     8.460
    44   6 C        2.920    -0.041    29.017     8.834
    45   6 C        2.927    -0.034    28.853     8.809
    46   6 C        2.972     0.011    27.760     8.642
    47   6 C        3.902     0.026    20.078     6.369
    48   6 C        3.761    -0.109    22.632     6.782
    49   6 C        3.761    -0.106    22.577     6.773
    50   6 C        3.761    -0.106    22.577     6.773
    51   6 C        2.925    -0.039    28.958     8.825
    52   6 C        2.920    -0.041    29.015     8.833
    53   1 H        0.925     0.046     2.368     2.407
    54   1 H        0.924     0.047     2.358     2.401
    55   1 H        0.925     0.038     2.470     2.458
    56   1 H        0.926     0.034     2.530     2.488
    57   1 H        0.926     0.032     2.555     2.500
    58   1 H        0.925     0.017     2.781     2.608
    59   1 H        0.926     0.038     2.471     2.458
    60   1 H        0.926     0.047     2.361     2.403
    61   1 H        0.926     0.032     2.564     2.504
    62   1 H        0.926     0.033     2.546     2.495
    63   1 H        0.926     0.034     2.536     2.490
    64   1 H        0.926     0.034     2.525     2.485
    65   1 H        0.926     0.035     2.514     2.480
    66   1 H        0.926     0.048     2.349     2.397
    67   1 H        0.926     0.047     2.356     2.400
    68   1 H        0.926     0.044     2.397     2.421
    69   1 H        0.926     0.035     2.511     2.478
    70   1 H        0.926     0.035     2.515     2.480
    71   1 H        0.926     0.035     2.511     2.478
    72   1 H        0.926     0.036     2.506     2.476
    73   1 H        0.926     0.035     2.520     2.483
    74   1 H        0.926     0.040     2.452     2.449
    75   1 H        0.925     0.019     2.753     2.595
    76   1 H        0.925     0.045     2.387     2.416
    77   1 H        0.924     0.047     2.362     2.403
    78   1 H        0.925     0.040     2.444     2.445
    79   1 H        0.926     0.033     2.542     2.493
    80   1 H        0.926     0.031     2.568     2.506
    81   1 H        0.926     0.036     2.497     2.471
    82   1 H        0.926     0.041     2.436     2.441
    83   1 H        0.925     0.038     2.479     2.462
    84   1 H        0.925     0.040     2.454     2.450
    85   1 H        0.925     0.038     2.481     2.463
    86   1 H        0.925     0.041     2.435     2.440
    87   1 H        0.925     0.034     2.528     2.486
    88   1 H        0.925     0.038     2.471     2.458
    89   1 H        0.925     0.034     2.529     2.487
    90   1 H        0.925     0.038     2.472     2.459
    91   1 H        0.925     0.041     2.435     2.440
    92   1 H        0.926     0.048     2.342     2.393
    93   1 H        0.926     0.037     2.493     2.469

molecular dipole:
                 x           y           z       tot (Debye)
 q only:       -3.080       1.294      -0.236
   full:       -2.965       1.258      -0.222       8.207

 projected vibrational frequencies (cm⁻¹)
eigval :       -0.00    -0.00    -0.00     0.00     0.00     0.00
eigval :      -42.80     0.90    14.42    16.30    19.02    27.51
eigval :       30.47    31.66    39.33    43.56    46.46    52.85
eigval :       54.07    60.64    70.83    75.16    82.67    90.70
eigval :      103.93   114.01   125.37   126.24   130.24   135.48
eigval :      167.55   180.01   183.41   192.06   199.65   205.51
eigval :      213.31   223.13   234.21   254.08   254.83   266.08
eigval :      288.26   291.12   299.82   315.72   318.30   325.84
eigval :      332.97   341.17   349.26   361.62   362.45   364.53
eigval :      368.84   372.50   381.80   390.77   399.20   403.94
eigval :      405.63   424.96   428.01   436.76   441.39   452.52
eigval :      453.77   464.98   472.27   488.16   503.17   513.72
eigval :      524.51   537.53   545.60   546.47   577.51   578.65
eigval :      582.28   588.01   595.71   601.67   611.75   619.21
eigval :      627.00   630.64   635.89   658.81   664.44   667.26
eigval :      673.06   675.42   676.66   691.47   705.20   706.44
eigval :      735.59   739.27   744.39   756.56   762.99   786.68
eigval :      809.74   814.77   819.18   820.72   836.07   842.62
eigval :      868.04   871.43   873.71   876.46   880.85   883.70
eigval :      885.52   887.45   893.22   903.08   905.51   914.11
eigval :      916.47   917.12   920.41   923.35   925.39   925.87
eigval :      926.33   929.93   930.31   930.82   931.78   931.83
eigval :      958.02   960.15   960.80   962.18   964.23   985.76
eigval :      991.19   996.85  1014.07  1019.46  1029.61  1031.89
eigval :     1034.71  1034.89  1035.05  1080.12  1081.78  1086.84
eigval :     1089.09  1097.24  1119.14  1119.49  1135.31  1137.36
eigval :     1140.98  1143.10  1144.83  1175.35  1179.04  1180.35
eigval :     1185.17  1193.80  1196.67  1197.90  1198.94  1202.19
eigval :     1216.98  1225.74  1226.73  1231.68  1237.02  1247.48
eigval :     1253.55  1257.32  1266.89  1267.91  1273.07  1278.32
eigval :     1279.81  1279.94  1289.19  1298.79  1302.78  1309.97
eigval :     1315.88  1316.23  1325.75  1333.09  1336.05  1340.64
eigval :     1343.92  1362.55  1391.21  1395.36  1400.13  1402.56
eigval :     1403.37  1403.81  1406.85  1418.40  1423.27  1427.70
eigval :     1431.00  1431.64  1456.35  1460.57  1478.03  1479.49
eigval :     1481.99  1485.08  1485.92  1487.57  1488.81  1489.45
eigval :     1490.03  1494.54  1498.15  1502.24  1506.28  1511.52
eigval :     1516.19  1550.88  1562.10  1565.34  1568.82  1579.10
eigval :     1579.77  1581.75  1583.15  1588.06  1597.60  1599.07
eigval :     1600.29  1604.74  1612.89  1630.91  2986.33  2989.81
eigval :     3022.00  3022.20  3022.99  3025.62  3026.47  3029.36
eigval :     3029.98  3032.20  3032.76  3037.07  3037.56  3045.14
eigval :     3048.52  3059.27  3063.15  3067.09  3067.81  3068.18
eigval :     3070.04  3073.99  3075.48  3075.60  3075.76  3076.76
eigval :     3076.81  3077.39  3079.33  3079.53  3081.23  3082.28
eigval :     3088.48  3088.65  3089.35  3089.75  3091.08  3092.93
eigval :     3096.23  3099.20  3119.15

   temp. (K)  partition function   enthalpy   heat capacity  entropy
                                   cal/mol     cal/K/mol   cal/K/mol   J/K/mol
 298.15  VIB  0.458E+20            25847.675    162.014    160.189
         ROT  0.991E+08              888.752      2.981     39.569
         INT  0.454E+28            26736.428    164.994    199.758
         TR   0.168E+29             1481.254      4.968     45.375
         TOT                       28217.6817   169.9626   245.1337  1025.6394

       T/K    H(0)-H(T)+PV         H(T)/Eh          T*S/Eh         G(T)/Eh
   ------------------------------------------------------------------------
    298.15    0.449677E-01    0.787619E+00    0.116471E+00    0.671148E+00
   ------------------------------------------------------------------------

         :::::::::::::::::::::::::::::::::::::::::::::::::::::
         ::                  THERMODYNAMIC                  ::
         :::::::::::::::::::::::::::::::::::::::::::::::::::::
         :: total free energy        -134.412310046439 Eh   ::
         ::.................................................::
         :: total energy             -135.083457814288 Eh   ::
         :: zero point energy           0.742650964454 Eh   ::
         :: G(RRHO) w/o ZPVE           -0.071503196605 Eh   ::
         :: G(RRHO) contrib.            0.671147767849 Eh   ::
         :::::::::::::::::::::::::::::::::::::::::::::::::::::

           -------------------------------------------------
          | TOTAL ENERGY             -135.083457814288 Eh   |
          | TOTAL ENTHALPY           -134.295839111709 Eh   |
          | TOTAL FREE ENERGY        -134.412310046439 Eh   |
          | GRADIENT NORM               0.000036763869 Eh/α |
          | HOMO-LUMO GAP               1.392316545330 eV   |
           -------------------------------------------------

 * finished run on 2025/09/11 at 21:26:12.914
