   * xtb version 6.7.1 (edcfbbe) compiled by 'albert@albert-system' on 2024-07-22

   ID    Z sym.   atoms
    1    6 C      1-21, 23-41, 43-52
    2    8 O      22
    3    7 N      42
    4    1 H      53-93

          program call               : xtb data2507/toluene/SIR-B/SIR-B_toluene_S0_crest.xyz --gfn 2 --gbsa toluene --ohess vtight --parallel 40 --molden --ceasefiles --namespace data2507/toluene/SIR-B/SIR-B_toluene_S0_finalOpt
      * Solvation model:               GBSA
        Solvent                        toluene
        Solvent mass                       9.2140E+01 g/mol
          :  Hamiltonian                  GFN2-xTB          :
 * total energy  :  -135.0826984 Eh     change       -0.4696318E-08 Eh
 * total energy  :  -135.0827831 Eh     change       -0.8467740E-04 Eh
 * total energy  :  -135.0828159 Eh     change       -0.3282104E-04 Eh
 * total energy  :  -135.0828288 Eh     change       -0.1291678E-04 Eh
 * total energy  :  -135.0828416 Eh     change       -0.1279944E-04 Eh
 * total energy  :  -135.0828617 Eh     change       -0.2005533E-04 Eh
 * total energy  :  -135.0828705 Eh     change       -0.8816104E-05 Eh
 * total energy  :  -135.0828831 Eh     change       -0.1257325E-04 Eh
 * total energy  :  -135.0828902 Eh     change       -0.7122428E-05 Eh
 * total energy  :  -135.0828893 Eh     change        0.8575197E-06 Eh
 * total energy  :  -135.0830997 Eh     change       -0.1550849E-05 Eh
 * total energy  :  -135.0831012 Eh     change       -0.1452476E-05 Eh
 * total energy  :  -135.0831028 Eh     change       -0.1612609E-05 Eh
 * total energy  :  -135.0831048 Eh     change       -0.2036197E-05 Eh
 * total energy  :  -135.0831070 Eh     change       -0.2147864E-05 Eh
 * total energy  :  -135.0831089 Eh     change       -0.1961657E-05 Eh
 * total energy  :  -135.0831108 Eh     change       -0.1830231E-05 Eh
 * total energy  :  -135.0831124 Eh     change       -0.1667333E-05 Eh
 * total energy  :  -135.0831125 Eh     change       -0.7756881E-08 Eh
   *** GEOMETRY OPTIMIZATION CONVERGED AFTER 94 ITERATIONS ***

 final structure:
================
93
 xtb: 6.7.1 (edcfbbe)
C            1.06278299504649        0.03037100461654        4.99693806727954
C            0.35864832383152        0.31782737387309        3.70527963675970
C           -0.86313553594201        0.97571209534867        3.66854007690348
C           -1.49515337392985        1.23731433277628        2.46985561024061
C           -0.92604071404749        0.84276867900885        1.25720747101935
C            0.30523119360779        0.18255355246350        1.28355716032019
C            0.92255288092839       -0.06955503517731        2.49708326353173
C            0.96918191477720       -0.31370356455858        0.01103647117424
C            2.41603936971275        0.10399340973325        0.02195952476879
C            2.71511701039495        1.46075448783901        0.09904580538944
C            4.01998576927218        1.90625655445414        0.10446044417230
C            5.08490711428260        1.00393948060679        0.03212387648352
C            6.47939667516851        1.47237649199340        0.03752843514602
C            7.45739197698821        0.77841637770582        0.74731721374774
C            8.76845281945891        1.21775625856117        0.75237232411129
C            9.12547574005136        2.35482442291677        0.04613705340160
C            8.16183151260701        3.05104598693712       -0.66478909422390
C            6.84927172441386        2.61572582490304       -0.66796803872584
C            4.78832526741652       -0.34746638282857       -0.04399619362623
C            3.47046085747791       -0.80766490541673       -0.04962504264253
C            3.24166148019694       -2.26135201333447       -0.13187498042191
O            4.17539636587986       -3.05683410559067       -0.19525238211876
C            1.84235006866702       -2.70902411133418       -0.13009681618594
C            1.57692683163911       -4.08114897295789       -0.20681959830210
C            0.28779063007815       -4.55754109341937       -0.21309379513017
C           -0.78779773075068       -3.66724282266192       -0.14208970343325
C           -2.17643764569968       -4.14766011190388       -0.16000701458322
C           -2.54518536054576       -5.29493923738966        0.54010059037264
C           -3.85562794563289       -5.73657597416897        0.52648686445480
C           -4.81763894820109       -5.04350147711180       -0.19004934036783
C           -4.46110959745007       -3.90449664360040       -0.89371070755190
C           -3.15252046343263       -3.45834008087589       -0.87849269228322
C           -0.52066107545053       -2.30606922261534       -0.06086070557643
C            0.77568872011884       -1.81145097678036       -0.05560842133980
C            0.30356579393495        0.26679349485896       -1.22674911191169
C            0.91681664049447        0.08023602635184       -2.45579787654744
C            0.33672792201749        0.50800773051033       -3.64034546345030
C            1.02940492822522        0.31796270976631       -4.95582858154600
C           -0.90594490315987        1.12592907055115       -3.56596233242342
C           -1.53264592848526        1.32251443202693       -2.35359479519265
C           -0.93513510035089        0.90908433383376       -1.15958055943645
N           -1.56405113499179        1.11860824593080        0.05789150460359
C           -2.88675412710487        1.64600880180670        0.08369128629839
C           -3.12073563058527        3.00198665826363       -0.10535945508508
C           -4.41349262912537        3.48783321477433       -0.08827901794162
C           -5.50761716936292        2.64883144437365        0.11817287297260
C           -6.91093311569179        3.23556327226549        0.12208667318039
C           -7.99357250881230        2.17578609737714        0.34802553625578
C           -7.17539423808019        3.90807843478916       -1.23348089993479
C           -7.01424686734088        4.27480406203848        1.24840543306735
C           -5.25328025124465        1.29637241873186        0.31459599005686
C           -3.96209824029532        0.79754938900389        0.29799504896171
H            0.45346135944825        0.32901156148229        5.84624203508518
H            1.28503276012348       -1.03285871706283        5.08181433139642
H            2.00849067920699        0.57094649637885        5.04062859637216
H           -1.33092376574376        1.29250117455395        4.58967998547319
H           -2.44208268074573        1.75527285435659        2.46815025525437
H            1.87216525429937       -0.58760299590083        2.49877700268911
H            1.90403526656667        2.17229788636724        0.15894013615569
H            4.22280922285091        2.96403334130951        0.18363935035352
H            7.18274251650335       -0.10121542911705        1.31158222856454
H            9.51483659639897        0.67113266994217        1.31078657605622
H           10.15049639443682        2.69565205212371        0.04914111805400
H            8.43504480316362        3.93593613563271       -1.22162733744897
H            6.10686147756413        3.15305859152479       -1.24006208939063
H            5.57497444232766       -1.08483511404912       -0.12010865887386
H            2.42069809441370       -4.75410102480231       -0.26692898704975
H            0.10396534741831       -5.61832483577749       -0.29490631641891
H           -1.80365717225349       -5.82926761605199        1.11592393908440
H           -4.12791734350507       -6.62444093988032        1.07883499283602
H           -5.84051295205606       -5.39041559761248       -0.20111079416108
H           -5.20549836621395       -3.36255367513101       -1.45915286699864
H           -2.87613943715993       -2.58206236764667       -1.44741241069554
H           -1.34502231780249       -1.61355883031799        0.01375379516617
H            1.87274517700617       -0.42543902979908       -2.48493876107174
H            1.54688323106118        1.23464016469216       -5.24264738737875
H            1.76538918366707       -0.48050140732843       -4.89371844579786
H            0.31290630839413        0.07850563402301       -5.73913708248817
H           -1.39396374515191        1.45630388529084       -4.47169331015267
H           -2.50120597839437        1.79743038732344       -2.32701015428598
H           -2.28674969675160        3.66940488813713       -0.26851331970218
H           -4.56383851464738        4.54586256557346       -0.23903534037139
H           -7.97621068427343        1.42397383985826       -0.43778097514632
H           -8.97228525578012        2.65125650623735        0.33514577772543
H           -7.87117513329604        1.68843366211531        1.31269645940427
H           -6.47866093357451        4.72119586008804       -1.41740143439857
H           -8.18453984361392        4.31379047012748       -1.25815956444166
H           -7.07541095779392        3.18349368756214       -2.03950038192103
H           -6.80716754422826        3.80957064432299        2.21032426787777
H           -6.30902473796955        5.08872338500135        1.10436674484159
H           -8.01732236096533        4.69500975524985        1.27770211792309
H           -6.06053153970608        0.60308950944317        0.48268454659933
H           -3.78703851989225       -0.25671187210295        0.45799535840287

          :  Hamiltonian                  GFN2-xTB          :
         :: gradient norm              0.000069160437 Eh/a0 ::
         :: HOMO-LUMO gap              1.391275834609 eV    ::
         :: SCC energy              -137.540559340876 Eh    ::
         :: -> dispersion             -0.130904410475 Eh    ::
         :: -> Gsolv                  -0.057221703281 Eh    ::
         :: repulsion energy           2.457446888593 Eh    ::

    * Orbital Energies and Occupations

         #    Occupation            Energy/Eh            Energy/eV
      -------------------------------------------------------------
         1        2.0000           -0.7010233             -19.0758
       ...           ...                  ...                  ...
       114        2.0000           -0.4100977             -11.1593
       115        2.0000           -0.4083114             -11.1107
       116        2.0000           -0.4075934             -11.0912
       117        2.0000           -0.4057067             -11.0398
       118        2.0000           -0.4052323             -11.0269
       119        2.0000           -0.3991235             -10.8607
       120        2.0000           -0.3971311             -10.8065
       121        2.0000           -0.3962159             -10.7816
       122        2.0000           -0.3952581             -10.7555
       123        2.0000           -0.3929143             -10.6917
       124        2.0000           -0.3873457             -10.5402
       125        2.0000           -0.3855604             -10.4916
       126        2.0000           -0.3445733              -9.3763 (HOMO)
       127                         -0.2934448              -7.9850 (LUMO)
       128                         -0.2526058              -6.8738
       129                         -0.2442276              -6.6458
       130                         -0.2344950              -6.3809
       131                         -0.2295935              -6.2476
       132                         -0.2276686              -6.1952
       133                         -0.2255848              -6.1385
       134                         -0.2233555              -6.0778
       135                         -0.2224882              -6.0542
       136                         -0.2218442              -6.0367
       137                         -0.2200028              -5.9866
       ...                                ...                  ...
       249                          0.6976671              18.9845
      -------------------------------------------------------------
                  HL-Gap            0.0511284 Eh            1.3913 eV

     #   Z          covCN         q      C6AA      α(0)
     1   6 C        3.757    -0.107    22.607     6.779
     2   6 C        2.964     0.004    27.929     8.668
     3   6 C        2.925    -0.043    29.060     8.840
     4   6 C        2.922    -0.059    29.476     8.903
     5   6 C        2.926     0.057    26.720     8.477
     6   6 C        2.988    -0.013    28.336     8.732
     7   6 C        2.931    -0.047    29.158     8.856
     8   6 C        3.928     0.016    20.240     6.394
     9   6 C        2.985     0.015    27.661     8.627
    10   6 C        2.922    -0.032    28.804     8.801
    11   6 C        2.924    -0.028    28.694     8.784
    12   6 C        2.973     0.010    27.782     8.646
    13   6 C        2.976     0.010    27.798     8.648
    14   6 C        2.925    -0.033    28.822     8.804
    15   6 C        2.918    -0.030    28.739     8.791
    16   6 C        2.920    -0.031    28.772     8.796
    17   6 C        2.918    -0.030    28.749     8.793
    18   6 C        2.925    -0.034    28.848     8.808
    19   6 C        2.931    -0.025    28.637     8.776
    20   6 C        2.974    -0.025    28.618     8.775
    21   6 C        2.832     0.223    23.317     7.913
    22   8 O        0.858    -0.450    22.704     6.388
    23   6 C        2.976    -0.027    28.659     8.781
    24   6 C        2.923    -0.021    28.521     8.758
    25   6 C        2.921    -0.036    28.898     8.815
    26   6 C        2.976     0.019    27.590     8.616
    27   6 C        2.977     0.010    27.786     8.647
    28   6 C        2.924    -0.032    28.804     8.801
    29   6 C        2.918    -0.029    28.726     8.789
    30   6 C        2.920    -0.030    28.740     8.791
    31   6 C        2.918    -0.029    28.725     8.789
    32   6 C        2.925    -0.032    28.800     8.801
    33   6 C        2.931    -0.040    28.987     8.830
    34   6 C        2.988     0.016    27.645     8.625
    35   6 C        2.990    -0.013    28.340     8.733
    36   6 C        2.931    -0.046    29.154     8.855
    37   6 C        2.964     0.004    27.939     8.670
    38   6 C        3.757    -0.107    22.602     6.778
    39   6 C        2.925    -0.043    29.073     8.842
    40   6 C        2.922    -0.060    29.496     8.906
    41   6 C        2.924     0.057    26.718     8.477
    42   7 N        2.752    -0.075    22.704     7.077
    43   6 C        2.926     0.062    26.620     8.461
    44   6 C        2.919    -0.042    29.031     8.836
    45   6 C        2.927    -0.035    28.862     8.810
    46   6 C        2.973     0.011    27.768     8.644
    47   6 C        3.902     0.026    20.079     6.369
    48   6 C        3.761    -0.109    22.630     6.782
    49   6 C        3.761    -0.106    22.576     6.773
    50   6 C        3.761    -0.106    22.575     6.773
    51   6 C        2.925    -0.038    28.955     8.824
    52   6 C        2.921    -0.041    29.017     8.834
    53   1 H        0.925     0.044     2.402     2.424
    54   1 H        0.925     0.043     2.404     2.425
    55   1 H        0.925     0.045     2.379     2.412
    56   1 H        0.926     0.033     2.548     2.496
    57   1 H        0.926     0.031     2.567     2.505
    58   1 H        0.925     0.020     2.733     2.585
    59   1 H        0.926     0.038     2.469     2.457
    60   1 H        0.926     0.047     2.360     2.403
    61   1 H        0.926     0.032     2.563     2.503
    62   1 H        0.926     0.033     2.548     2.496
    63   1 H        0.926     0.034     2.537     2.491
    64   1 H        0.926     0.034     2.527     2.486
    65   1 H        0.926     0.035     2.511     2.478
    66   1 H        0.926     0.048     2.347     2.396
    67   1 H        0.926     0.047     2.352     2.398
    68   1 H        0.926     0.044     2.397     2.421
    69   1 H        0.926     0.035     2.512     2.479
    70   1 H        0.926     0.035     2.515     2.480
    71   1 H        0.926     0.036     2.507     2.476
    72   1 H        0.926     0.036     2.499     2.472
    73   1 H        0.926     0.034     2.524     2.485
    74   1 H        0.926     0.041     2.433     2.439
    75   1 H        0.925     0.018     2.760     2.598
    76   1 H        0.924     0.048     2.351     2.398
    77   1 H        0.925     0.039     2.463     2.454
    78   1 H        0.925     0.045     2.379     2.412
    79   1 H        0.926     0.034     2.534     2.489
    80   1 H        0.926     0.033     2.542     2.493
    81   1 H        0.926     0.037     2.483     2.464
    82   1 H        0.926     0.040     2.443     2.444
    83   1 H        0.925     0.038     2.480     2.463
    84   1 H        0.925     0.039     2.456     2.451
    85   1 H        0.925     0.038     2.482     2.464
    86   1 H        0.925     0.038     2.473     2.459
    87   1 H        0.925     0.041     2.438     2.442
    88   1 H        0.925     0.034     2.528     2.486
    89   1 H        0.925     0.034     2.530     2.488
    90   1 H        0.925     0.038     2.474     2.460
    91   1 H        0.925     0.041     2.436     2.441
    92   1 H        0.926     0.048     2.346     2.395
    93   1 H        0.926     0.035     2.515     2.480

molecular dipole:
                 x           y           z       tot (Debye)
 q only:       -2.783       1.735       0.094
   full:       -2.662       1.689       0.094       8.017

 projected vibrational frequencies (cm⁻¹)
eigval :       -0.00    -0.00    -0.00     0.00     0.00     0.00
eigval :      -83.61     3.80    16.45    18.37    23.73    27.75
eigval :       30.51    33.26    41.34    47.97    48.23    56.75
eigval :       58.71    62.85    66.23    80.72    83.51    87.90
eigval :      103.44   115.06   121.73   126.20   129.57   136.08
eigval :      180.23   182.93   184.44   191.69   195.99   207.47
eigval :      220.04   233.26   237.42   252.97   255.94   265.33
eigval :      284.76   290.67   299.40   313.10   319.30   326.60
eigval :      334.71   341.61   349.58   360.64   361.93   367.73
eigval :      373.72   375.63   382.40   393.52   398.82   405.17
eigval :      407.36   425.23   426.03   436.95   440.89   451.46
eigval :      453.12   467.61   468.93   487.95   502.90   515.29
eigval :      523.32   536.84   546.01   546.71   577.19   577.70
eigval :      582.06   588.52   595.49   602.75   612.01   619.44
eigval :      627.06   628.66   635.88   658.52   664.21   668.53
eigval :      675.30   677.43   678.27   691.91   703.65   705.54
eigval :      735.64   738.45   744.65   758.92   763.73   786.80
eigval :      807.95   812.25   814.67   818.05   836.44   842.68
eigval :      867.52   870.44   877.16   877.45   877.93   880.79
eigval :      885.75   888.78   897.10   906.03   907.30   907.54
eigval :      915.18   915.40   922.87   923.68   925.38   926.51
eigval :      929.18   930.12   931.86   933.19   933.39   935.50
eigval :      958.15   959.77   960.97   963.19   964.49   986.03
eigval :      991.10   994.21  1013.35  1019.39  1029.51  1032.30
eigval :     1034.39  1034.51  1036.23  1080.71  1082.54  1086.95
eigval :     1090.56  1097.17  1120.83  1121.29  1136.27  1138.56
eigval :     1141.81  1144.25  1144.89  1177.29  1180.69  1181.55
eigval :     1183.23  1194.07  1197.50  1199.01  1200.52  1201.21
eigval :     1217.14  1225.54  1228.98  1231.84  1235.71  1250.88
eigval :     1253.47  1258.80  1265.41  1269.12  1272.75  1277.43
eigval :     1280.77  1281.34  1289.80  1298.64  1302.69  1310.76
eigval :     1315.92  1316.46  1326.26  1332.35  1334.38  1341.03
eigval :     1343.57  1358.60  1391.05  1395.56  1399.75  1401.86
eigval :     1402.37  1403.96  1406.96  1418.86  1424.02  1427.85
eigval :     1431.21  1431.83  1456.79  1461.07  1477.05  1479.20
eigval :     1481.23  1481.66  1485.97  1487.96  1489.23  1489.77
eigval :     1492.29  1494.69  1500.35  1503.20  1505.69  1510.49
eigval :     1516.55  1550.50  1561.63  1565.06  1568.81  1578.91
eigval :     1579.17  1581.53  1582.88  1587.95  1597.73  1599.46
eigval :     1599.95  1603.98  1612.38  1630.78  2987.80  2996.87
eigval :     3012.63  3021.96  3022.11  3024.66  3025.86  3026.09
eigval :     3029.92  3032.12  3033.97  3037.47  3041.29  3045.68
eigval :     3049.09  3062.50  3066.31  3068.16  3069.36  3069.69
eigval :     3071.31  3073.46  3075.35  3076.03  3076.22  3077.68
eigval :     3077.80  3078.08  3078.91  3080.61  3082.23  3082.62
eigval :     3088.83  3089.86  3090.40  3091.25  3092.30  3094.89
eigval :     3099.61  3100.32  3116.80

   temp. (K)  partition function   enthalpy   heat capacity  entropy
                                   cal/mol     cal/K/mol   cal/K/mol   J/K/mol
 298.15  VIB  0.101E+22            26359.977    163.310    165.474
         ROT  0.943E+08              888.752      2.981     39.471
         INT  0.957E+29            27248.730    166.291    204.944
         TR   0.168E+29             1481.254      4.968     45.375
         TOT                       28729.9835   171.2594   250.3200  1047.3388

       T/K    H(0)-H(T)+PV         H(T)/Eh          T*S/Eh         G(T)/Eh
   ------------------------------------------------------------------------
    298.15    0.457841E-01    0.788707E+00    0.118935E+00    0.669772E+00
   ------------------------------------------------------------------------

         :::::::::::::::::::::::::::::::::::::::::::::::::::::
         ::                  THERMODYNAMIC                  ::
         :::::::::::::::::::::::::::::::::::::::::::::::::::::
         :: total free energy        -134.413340234537 Eh   ::
         ::.................................................::
         :: total energy             -135.083112448792 Eh   ::
         :: zero point energy           0.742923170612 Eh   ::
         :: G(RRHO) w/o ZPVE           -0.073150956357 Eh   ::
         :: G(RRHO) contrib.            0.669772214254 Eh   ::
         :::::::::::::::::::::::::::::::::::::::::::::::::::::

           -------------------------------------------------
          | TOTAL ENERGY             -135.083112448792 Eh   |
          | TOTAL ENTHALPY           -134.294405135204 Eh   |
          | TOTAL FREE ENERGY        -134.413340234537 Eh   |
          | GRADIENT NORM               0.000069161708 Eh/α |
          | HOMO-LUMO GAP               1.391275635316 eV   |
           -------------------------------------------------

 * finished run on 2025/09/11 at 21:46:19.910
