   * xtb version 6.7.1 (edcfbbe) compiled by 'albert@albert-system' on 2024-07-22

   ID    Z sym.   atoms
    1    6 C      1-21, 23-41, 43-52
    2    8 O      22
    3    7 N      42
    4    1 H      53-93

          program call               : xtb data2507/toluene/SIR-B/SIR-B_toluene_T1_crest.xyz --gfn 2 --uhf 2 --gbsa toluene --ohess vtight --parallel 40 --molden --ceasefiles --namespace data2507/toluene/SIR-B/SIR-B_toluene_T1_finalOpt
      * Solvation model:               GBSA
        Solvent                        toluene
        Solvent mass                       9.2140E+01 g/mol
          :  Hamiltonian                  GFN2-xTB          :
 * total energy  :  -135.0082809 Eh     change       -0.9635701E-07 Eh
 * total energy  :  -135.0084657 Eh     change       -0.1847575E-03 Eh
 * total energy  :  -135.0085565 Eh     change       -0.9076541E-04 Eh
 * total energy  :  -135.0085949 Eh     change       -0.3845318E-04 Eh
 * total energy  :  -135.0086348 Eh     change       -0.3993113E-04 Eh
 * total energy  :  -135.0086907 Eh     change       -0.5583872E-04 Eh
 * total energy  :  -135.0087142 Eh     change       -0.2353214E-04 Eh
 * total energy  :  -135.0087341 Eh     change       -0.1990345E-04 Eh
 * total energy  :  -135.0087447 Eh     change       -0.1063643E-04 Eh
 * total energy  :  -135.0087615 Eh     change       -0.1677432E-04 Eh
 * total energy  :  -135.0091401 Eh     change       -0.5897649E-06 Eh
 * total energy  :  -135.0091407 Eh     change       -0.5996428E-06 Eh
 * total energy  :  -135.0091414 Eh     change       -0.6762409E-06 Eh
 * total energy  :  -135.0091422 Eh     change       -0.7862727E-06 Eh
 * total energy  :  -135.0091430 Eh     change       -0.8645137E-06 Eh
 * total energy  :  -135.0091439 Eh     change       -0.9059228E-06 Eh
 * total energy  :  -135.0091449 Eh     change       -0.9200120E-06 Eh
 * total energy  :  -135.0091458 Eh     change       -0.9283298E-06 Eh
 * total energy  :  -135.0091458 Eh     change       -0.4566488E-08 Eh
   *** GEOMETRY OPTIMIZATION CONVERGED AFTER 94 ITERATIONS ***

 final structure:
================
93
 xtb: 6.7.1 (edcfbbe)
C            1.06097817242229        0.06884841629479        4.98031759754779
C            0.38696971802365        0.35213627660091        3.67794235420061
C           -0.84628873041838        1.01092931703838        3.64995289392448
C           -1.48194793103049        1.27507985325663        2.46186250507443
C           -0.90513613156504        0.88726191849928        1.24200183184052
C            0.33609830558225        0.22990190350010        1.25712773407747
C            0.95432334938480       -0.02683700037006        2.47150978113807
C            0.97779923118649       -0.26091885082294       -0.01376556693441
C            2.44715989401787        0.11263595591439       -0.01429441029961
C            2.76787031962726        1.46001364089770       -0.03259082917042
C            4.08332284745920        1.88889673435278       -0.02812030163971
C            5.12522085081235        0.95646053492576        0.00269701231563
C            6.53044711090546        1.39306575836427        0.00506897699819
C            7.46930470444069        0.76370333862567        0.81959674145333
C            8.78930509846137        1.17565366661895        0.82162201502506
C            9.19487261098813        2.22010595738417        0.00694042238680
C            8.27058687961675        2.85113146628878       -0.80923416596255
C            6.94934386311631        2.44321113998675       -0.80930933306690
C            4.80993890244512       -0.38895959705731        0.02612181179714
C            3.47774980179586       -0.83561712098877        0.01441850944756
C            3.22628398027766       -2.26558977023570        0.03123183040138
O            4.18143557822181       -3.10029818994949        0.08065026106025
C            1.85089734641751       -2.67628375145135       -0.01497812962278
C            1.55310203399447       -4.05878450862443       -0.02703391162074
C            0.26475081154574       -4.51284539279981       -0.08075014506533
C           -0.81445492478181       -3.61665467399957       -0.13598147978655
C           -2.19881500762103       -4.07441464386758       -0.20495666054410
C           -2.60746240455000       -5.24050045101703        0.44983818154694
C           -3.91975784425028       -5.66641377109031        0.38946580830000
C           -4.86086768109726       -4.94073814901555       -0.32461172683751
C           -4.47127548633839       -3.78494337762751       -0.98328173273398
C           -3.15951391735078       -3.35718752086972       -0.92578753681469
C           -0.51777536133148       -2.24952298778724       -0.11947264471269
C            0.77402229898286       -1.77664608679096       -0.05564213561413
C            0.31096057204200        0.30437672608050       -1.23945000112628
C            0.90444174504430        0.11106391649542       -2.47758210186095
C            0.30219837263130        0.52957900578262       -3.65371328943036
C            0.95058067487728        0.31088364806657       -4.98134137883071
C           -0.95089917960272        1.14414570049563       -3.57005025209389
C           -1.56253429917110        1.34697400207905       -2.35717040064693
C           -0.93696265083367        0.94682501567579       -1.16559912391251
N           -1.53913153379047        1.17034306081565        0.05281757702126
C           -2.87405977027653        1.67128624547394        0.09065318234027
C           -3.13767761532032        3.01885830387226       -0.10284246680555
C           -4.44256219119582        3.47997371882153       -0.06799295975889
C           -5.51042588250985        2.61737269699100        0.15654932188913
C           -6.95637303674991        3.08468032422830        0.19696380727293
C           -7.74258858513617        2.36336609807753       -0.90829397886631
C           -7.09560081149655        4.59409603854103       -0.02182326768107
C           -7.55396317256870        2.74128157755622        1.56982988311434
C           -5.22092582261268        1.26747260899772        0.35094695847253
C           -3.92464681409495        0.79308675296149        0.32291989707192
H            0.44071758667901       -0.58961819412025        5.58816273011702
H            2.02572326628809       -0.40663400047860        4.82489344770013
H            1.20847557781679        0.99198082923323        5.53956753944473
H           -1.30341326308502        1.31872455318645        4.57836111819184
H           -2.42891238488377        1.79140668495463        2.46180052070716
H            1.90513434904989       -0.54006084555303        2.46367006115204
H            1.96838120526042        2.18858270860671       -0.04790939612744
H            4.30461482976976        2.94529702070173       -0.02419074573423
H            7.15530156932241       -0.04514133450759        1.46406513521907
H            9.50472912736527        0.67966154996571        1.46218880570722
H           10.22694558392075        2.53935744043144        0.00761561410958
H            8.58169587413841        3.66335620667757       -1.45077598308144
H            6.23610920550360        2.92804369133369       -1.46028468229929
H            5.58345102132038       -1.14408589471341        0.03004761175592
H            2.39234367085009       -4.74029771817236       -0.00007796777111
H            0.08016987945562       -5.57721164970999       -0.11303485771020
H           -1.88934109637878       -5.80358871350803        1.02843699506741
H           -4.21360291085896       -6.56911641212415        0.90696111039596
H           -5.88690267408901       -5.27564393227797       -0.37033415271334
H           -5.19531728947482       -3.21782299806140       -1.55169680963535
H           -2.86410054079368       -2.47171366793613       -1.47068711364774
H           -1.33630721132072       -1.54531638785254       -0.13040645644922
H            1.86201749273843       -0.38865068467498       -2.51274661246652
H            0.93128800400256        1.22526991136520       -5.57192241504333
H            1.98051271729371       -0.01513214404436       -4.86284086471046
H            0.40889249739951       -0.45426920938595       -5.53825247450211
H           -1.44662376673474        1.46191591793782       -4.47505338887063
H           -2.53182969144690        1.81786183783736       -2.31808561994730
H           -2.32116593099240        3.70386536018725       -0.27767192624212
H           -4.61007347663487        4.53292222956008       -0.21988321246552
H           -7.31511073988413        2.58679699209882       -1.88388586379565
H           -8.77895999484542        2.69369604629166       -0.90338001984355
H           -7.72958305464069        1.28604811690272       -0.76828712543441
H           -8.14760966485004        4.86861706994781        0.01944753950205
H           -6.71270097558409        4.88751574513448       -0.99658514897130
H           -6.57447660409006        5.15280675200497        0.75228134674052
H           -7.54677649978721        1.67024151832656        1.75171357301944
H           -6.98635881480412        3.22670372327195        2.36139766992126
H           -8.58386803283641        3.08717823900562        1.62389272448490
H           -6.01654510154023        0.56123461165794        0.52832988120515
H           -3.72265408474004       -0.25632304922027        0.48005081135771

          :  Hamiltonian                  GFN2-xTB          :
         :: gradient norm              0.000055038668 Eh/a0 ::
         :: HOMO-LUMO gap              0.814018425852 eV    ::
         :: SCC energy              -137.457215039553 Eh    ::
         :: -> dispersion             -0.130983840736 Eh    ::
         :: -> Gsolv                  -0.069536939113 Eh    ::
         :: repulsion energy           2.448069238509 Eh    ::

    * Orbital Energies and Occupations

         #    Occupation            Energy/Eh            Energy/eV
      -------------------------------------------------------------
         1        2.0000           -0.6946387             -18.9021
       ...           ...                  ...                  ...
       115        2.0000           -0.4083649             -11.1122
       116        2.0000           -0.4079130             -11.0999
       117        2.0000           -0.4061081             -11.0508
       118        2.0000           -0.4023147             -10.9475
       119        2.0000           -0.4018497             -10.9349
       120        2.0000           -0.3994524             -10.8697
       121        2.0000           -0.3985547             -10.8452
       122        2.0000           -0.3945970             -10.7375
       123        2.0000           -0.3812563             -10.3745
       124        2.0000           -0.3774507             -10.2710
       125        1.9692           -0.3687657             -10.0346
       126        1.0308           -0.3622112              -9.8563
       127        1.0000           -0.2796435              -7.6095 (HOMO)
       128        0.0000           -0.2497292              -6.7955 (LUMO)
       129                         -0.2417704              -6.5789
       130                         -0.2406516              -6.5485
       131                         -0.2387575              -6.4969
       132                         -0.2376069              -6.4656
       133                         -0.2357975              -6.4164
       134                         -0.2330215              -6.3408
       135                         -0.2200267              -5.9872
       136                         -0.2169865              -5.9045
       137                         -0.2137071              -5.8153
       138                         -0.2109551              -5.7404
       ...                                ...                  ...
       249                          0.7033601              19.1394
      -------------------------------------------------------------
                  HL-Gap            0.0299143 Eh            0.8140 eV

     #   Z          covCN         q      C6AA      α(0)
     1   6 C        3.758    -0.114    22.735     6.798
     2   6 C        2.964     0.027    27.389     8.584
     3   6 C        2.923    -0.035    28.881     8.813
     4   6 C        2.918    -0.048    29.182     8.859
     5   6 C        2.930     0.059    26.678     8.471
     6   6 C        2.987     0.004    27.916     8.667
     7   6 C        2.927    -0.039    28.974     8.827
     8   6 C        3.929     0.022    20.149     6.379
     9   6 C        2.982    -0.005    28.140     8.702
    10   6 C        2.922    -0.038    28.946     8.823
    11   6 C        2.922    -0.049    29.210     8.863
    12   6 C        2.973     0.004    27.937     8.670
    13   6 C        2.977     0.010    27.793     8.648
    14   6 C        2.925    -0.034    28.837     8.806
    15   6 C        2.918    -0.031    28.767     8.795
    16   6 C        2.920    -0.033    28.821     8.804
    17   6 C        2.918    -0.031    28.782     8.798
    18   6 C        2.925    -0.035    28.873     8.812
    19   6 C        2.931    -0.036    28.888     8.815
    20   6 C        2.975    -0.021    28.516     8.759
    21   6 C        2.837     0.168    24.370     8.090
    22   8 O        0.857    -0.521    24.259     6.604
    23   6 C        2.975    -0.027    28.681     8.785
    24   6 C        2.922    -0.034    28.850     8.808
    25   6 C        2.919    -0.041    29.021     8.834
    26   6 C        2.974    -0.011    28.277     8.722
    27   6 C        2.974     0.006    27.885     8.662
    28   6 C        2.924    -0.038    28.956     8.824
    29   6 C        2.917    -0.033    28.812     8.802
    30   6 C        2.919    -0.038    28.954     8.824
    31   6 C        2.917    -0.033    28.832     8.805
    32   6 C        2.925    -0.040    28.988     8.829
    33   6 C        2.928    -0.046    29.152     8.855
    34   6 C        2.986    -0.004    28.111     8.697
    35   6 C        2.987     0.004    27.917     8.667
    36   6 C        2.928    -0.039    28.968     8.827
    37   6 C        2.964     0.027    27.392     8.585
    38   6 C        3.758    -0.114    22.737     6.798
    39   6 C        2.923    -0.035    28.880     8.813
    40   6 C        2.918    -0.049    29.208     8.863
    41   6 C        2.928     0.059    26.679     8.471
    42   7 N        2.754    -0.008    21.418     6.873
    43   6 C        2.930     0.053    26.812     8.492
    44   6 C        2.919    -0.038    28.951     8.823
    45   6 C        2.926    -0.035    28.879     8.813
    46   6 C        2.973     0.017    27.616     8.620
    47   6 C        3.903     0.027    20.060     6.366
    48   6 C        3.761    -0.108    22.606     6.778
    49   6 C        3.761    -0.111    22.673     6.788
    50   6 C        3.761    -0.108    22.610     6.778
    51   6 C        2.928    -0.030    28.746     8.793
    52   6 C        2.919    -0.036    28.900     8.816
    53   1 H        0.925     0.063     2.162     2.300
    54   1 H        0.925     0.049     2.339     2.391
    55   1 H        0.925     0.064     2.157     2.297
    56   1 H        0.926     0.055     2.253     2.347
    57   1 H        0.926     0.053     2.280     2.361
    58   1 H        0.926     0.036     2.497     2.471
    59   1 H        0.925     0.025     2.655     2.548
    60   1 H        0.926     0.033     2.545     2.495
    61   1 H        0.926     0.027     2.630     2.536
    62   1 H        0.926     0.030     2.592     2.517
    63   1 H        0.926     0.031     2.566     2.505
    64   1 H        0.926     0.032     2.551     2.498
    65   1 H        0.926     0.033     2.540     2.492
    66   1 H        0.926     0.029     2.603     2.523
    67   1 H        0.925     0.025     2.660     2.550
    68   1 H        0.926     0.027     2.634     2.538
    69   1 H        0.926     0.023     2.682     2.561
    70   1 H        0.925     0.024     2.667     2.554
    71   1 H        0.926     0.026     2.650     2.545
    72   1 H        0.926     0.028     2.614     2.528
    73   1 H        0.926     0.025     2.659     2.550
    74   1 H        0.926     0.022     2.698     2.569
    75   1 H        0.926     0.037     2.491     2.468
    76   1 H        0.925     0.062     2.172     2.305
    77   1 H        0.925     0.049     2.327     2.386
    78   1 H        0.924     0.063     2.160     2.298
    79   1 H        0.926     0.055     2.258     2.350
    80   1 H        0.926     0.054     2.271     2.357
    81   1 H        0.926     0.048     2.344     2.394
    82   1 H        0.926     0.058     2.217     2.329
    83   1 H        0.925     0.036     2.500     2.473
    84   1 H        0.925     0.043     2.414     2.430
    85   1 H        0.925     0.040     2.453     2.449
    86   1 H        0.925     0.041     2.434     2.440
    87   1 H        0.925     0.040     2.453     2.449
    88   1 H        0.925     0.040     2.453     2.449
    89   1 H        0.925     0.040     2.451     2.448
    90   1 H        0.925     0.036     2.501     2.473
    91   1 H        0.925     0.043     2.415     2.430
    92   1 H        0.926     0.050     2.318     2.381
    93   1 H        0.926     0.042     2.416     2.431

molecular dipole:
                 x           y           z       tot (Debye)
 q only:       -5.158       4.635       0.005
   full:       -4.995       4.418       0.023      16.949

 projected vibrational frequencies (cm⁻¹)
eigval :       -0.00    -0.00     0.00     0.00     0.00     0.00
eigval :        6.98    14.10    17.81    24.81    28.53    31.63
eigval :       39.69    44.75    46.26    46.98    53.51    58.25
eigval :       61.95    69.40    81.49    82.92    84.94    86.35
eigval :      105.95   115.07   123.90   126.35   136.61   140.03
eigval :      177.29   179.98   181.71   192.38   199.09   212.48
eigval :      217.25   228.22   233.45   253.79   255.72   264.54
eigval :      288.01   291.18   298.00   312.15   316.92   319.51
eigval :      330.47   336.38   347.33   361.36   362.84   363.35
eigval :      373.38   378.14   380.65   390.65   396.54   403.78
eigval :      405.04   420.94   424.24   434.06   439.90   445.31
eigval :      455.79   464.64   481.15   492.11   499.08   509.94
eigval :      529.80   534.27   534.83   544.36   568.58   571.45
eigval :      580.12   585.69   589.92   596.46   608.30   611.26
eigval :      612.95   615.11   624.78   633.95   658.63   661.08
eigval :      669.12   672.25   681.19   682.78   689.75   692.67
eigval :      702.91   737.36   741.29   754.00   756.76   775.33
eigval :      804.19   810.98   812.84   817.19   819.51   821.96
eigval :      862.87   867.23   869.07   871.84   875.05   878.68
eigval :      880.25   884.01   889.13   891.91   894.63   902.33
eigval :      909.68   914.65   915.54   918.94   920.80   923.17
eigval :      926.62   927.43   928.16   930.01   930.71   932.18
eigval :      947.16   958.23   960.67   962.84   965.15   980.73
eigval :      986.54   994.89  1012.69  1017.21  1022.41  1022.97
eigval :     1026.24  1034.98  1035.50  1076.85  1078.30  1081.26
eigval :     1086.08  1090.99  1119.87  1120.85  1123.27  1136.34
eigval :     1140.12  1142.49  1145.74  1162.34  1179.21  1180.00
eigval :     1180.57  1183.81  1193.55  1197.47  1199.27  1200.52
eigval :     1203.42  1212.82  1225.08  1225.83  1229.46  1231.53
eigval :     1249.30  1256.81  1257.19  1263.60  1270.78  1276.06
eigval :     1280.62  1284.63  1285.24  1287.49  1297.05  1309.10
eigval :     1315.81  1315.97  1320.75  1323.06  1341.05  1341.76
eigval :     1343.26  1348.62  1358.88  1394.87  1396.86  1397.48
eigval :     1404.07  1406.84  1408.65  1418.79  1422.35  1425.31
eigval :     1428.19  1430.52  1436.74  1447.55  1447.80  1463.54
eigval :     1466.57  1466.92  1470.70  1471.97  1475.35  1478.31
eigval :     1480.37  1483.37  1488.18  1489.19  1489.85  1497.52
eigval :     1502.17  1510.97  1515.11  1522.46  1530.27  1543.50
eigval :     1545.25  1564.21  1565.47  1574.14  1580.65  1581.20
eigval :     1590.71  1594.54  1595.51  1597.69  2998.69  3003.46
eigval :     3017.72  3023.41  3023.82  3023.92  3027.61  3028.10
eigval :     3032.24  3033.70  3039.22  3046.30  3049.46  3049.57
eigval :     3050.63  3058.46  3060.70  3061.49  3063.28  3065.49
eigval :     3067.14  3072.82  3074.12  3074.88  3076.27  3077.25
eigval :     3078.99  3082.18  3082.66  3085.03  3085.97  3086.81
eigval :     3087.03  3087.20  3088.71  3089.12  3089.79  3100.31
eigval :     3105.98  3110.80  3124.16

   temp. (K)  partition function   enthalpy   heat capacity  entropy
                                   cal/mol     cal/K/mol   cal/K/mol   J/K/mol
 298.15  VIB  0.165E+22            26960.613    166.433    169.229
         ROT  0.935E+08              888.752      2.981     39.453
         INT  0.154E+30            27849.365    169.414    208.682
         TR   0.168E+29             1481.254      4.968     45.375
         TOT                       29330.6189   174.3819   254.0577  1062.9773

       T/K    H(0)-H(T)+PV         H(T)/Eh          T*S/Eh         G(T)/Eh
   ------------------------------------------------------------------------
    298.15    0.467413E-01    0.786882E+00    0.120711E+00    0.666171E+00
   ------------------------------------------------------------------------

         :::::::::::::::::::::::::::::::::::::::::::::::::::::
         ::                  THERMODYNAMIC                  ::
         :::::::::::::::::::::::::::::::::::::::::::::::::::::
         :: total free energy        -134.342975070956 Eh   ::
         ::.................................................::
         :: total energy             -135.009145802580 Eh   ::
         :: zero point energy           0.740140412066 Eh   ::
         :: G(RRHO) w/o ZPVE           -0.073969680442 Eh   ::
         :: G(RRHO) contrib.            0.666170731624 Eh   ::
         :::::::::::::::::::::::::::::::::::::::::::::::::::::

           -------------------------------------------------
          | TOTAL ENERGY             -135.009145802580 Eh   |
          | TOTAL ENTHALPY           -134.222264074118 Eh   |
          | TOTAL FREE ENERGY        -134.342975070956 Eh   |
          | GRADIENT NORM               0.000056136058 Eh/α |
          | HOMO-LUMO GAP               0.814008415054 eV   |
           -------------------------------------------------

 * finished run on 2025/09/11 at 22:07:41.577
