   * xtb version 6.7.1 (edcfbbe) compiled by 'albert@albert-system' on 2024-07-22

   ID    Z sym.   atoms
    1    6 C      1-21, 23-41, 43-52
    2    8 O      22
    3    7 N      42
    4    1 H      53-93

          program call               : xtb data2507/toluene/SIR-B/SIR-B_toluene_S0_finalOpt.xtbopt.xyz --gfn 2 --uhf 2 --gbsa toluene --ohess vtight --parallel 40 --molden --ceasefiles --namespace data2507/toluene/SIR-B/SIR-B_toluene_T1_preOpt
      * Solvation model:               GBSA
        Solvent                        toluene
        Solvent mass                       9.2140E+01 g/mol
          :  Hamiltonian                  GFN2-xTB          :
 * total energy  :  -135.0048546 Eh     change       -0.4973799E-09 Eh
 * total energy  :  -135.0080149 Eh     change       -0.3160273E-02 Eh
 * total energy  :  -135.0088362 Eh     change       -0.8213135E-03 Eh
 * total energy  :  -135.0088929 Eh     change       -0.5671009E-04 Eh
 * total energy  :  -135.0089313 Eh     change       -0.3839542E-04 Eh
 * total energy  :  -135.0089597 Eh     change       -0.2843538E-04 Eh
 * total energy  :  -135.0089846 Eh     change       -0.2487023E-04 Eh
 * total energy  :  -135.0089990 Eh     change       -0.1440832E-04 Eh
 * total energy  :  -135.0090103 Eh     change       -0.1124031E-04 Eh
 * total energy  :  -135.0090175 Eh     change       -0.7266365E-05 Eh
 * total energy  :  -135.0093701 Eh     change       -0.3450470E-06 Eh
 * total energy  :  -135.0093704 Eh     change       -0.2715566E-06 Eh
 * total energy  :  -135.0093706 Eh     change       -0.2055808E-06 Eh
 * total energy  :  -135.0093708 Eh     change       -0.2082317E-06 Eh
 * total energy  :  -135.0093710 Eh     change       -0.2228433E-06 Eh
 * total energy  :  -135.0093713 Eh     change       -0.2336762E-06 Eh
 * total energy  :  -135.0093715 Eh     change       -0.2256424E-06 Eh
 * total energy  :  -135.0093717 Eh     change       -0.1989617E-06 Eh
 * total energy  :  -135.0093717 Eh     change       -0.9248993E-09 Eh
   *** GEOMETRY OPTIMIZATION CONVERGED AFTER 152 ITERATIONS ***

 final structure:
================
93
 xtb: 6.7.1 (edcfbbe)
C            0.89965576391077       -0.21977106309378        4.98793056243397
C            0.24268870307599        0.10040335372098        3.68544376754154
C           -0.97362534199699        0.78984505523686        3.65644880693331
C           -1.58508296932406        1.09963541143692        2.46667808631218
C           -1.00075399940963        0.72871293084837        1.24476816702050
C            0.22425076778802        0.04167368372186        1.26147969957497
C            0.81842561406201       -0.26026189321671        2.47749448094864
C            0.89439504651126       -0.41355770067776       -0.00826934588690
C            2.33037766893186        0.07982615984765       -0.00953835652627
C            2.54205341644265        1.44677842861259       -0.07258258608190
C            3.81877476284621        1.98030306425288       -0.06222972207468
C            4.93088893176061        1.13644969908604        0.02136355218576
C            6.29628306532060        1.68483900349924        0.03070537699671
C            7.26619566632982        1.16423880620557        0.88464057517438
C            8.54890015396722        1.68071922773452        0.89184456572606
C            8.88558675545890        2.72296128849464        0.04361571286091
C            7.92984407687832        3.24672864489943       -0.81130798402061
C            6.64555389627231        2.73430893742307       -0.81671927723251
C            4.72403478868916       -0.22815035027531        0.08968624599236
C            3.43216774630352       -0.78127661644831        0.07151077287738
C            3.29692562984555       -2.22506587395081        0.13291639208902
O            4.31339911979063       -2.97861417533426        0.23740533689389
C            1.96067655563635       -2.74846665339331        0.05870888743330
C            1.77458876538631       -4.14994136264824        0.06852018125706
C            0.52779508581506       -4.70550282803203       -0.01509377608321
C           -0.61622264866573       -3.89942233170899       -0.12329262629642
C           -1.95592273375902       -4.46965238565751       -0.23143755815538
C           -2.29617974659311       -5.64812584701156        0.43953671999058
C           -3.56656864084805       -6.18055630450994        0.33923242303790
C           -4.53101313569276       -5.55281818658260       -0.43385696424396
C           -4.20818136308604       -4.38616342457800       -1.10930023844755
C           -2.93885478702258       -3.85117926505065       -1.01085012752391
C           -0.43034925906415       -2.51277289278737       -0.12529125391622
C            0.81808544299995       -1.93859464551208       -0.03315164378925
C            0.19243777619589        0.09473831948941       -1.23837154101373
C            0.75420651213535       -0.16072347288942       -2.48043742466268
C            0.13719442695684        0.22722572455880       -3.65897203508021
C            0.75018474908292       -0.05530689379601       -4.99133080434720
C           -1.09501006766842        0.88333369492440       -3.57285253038609
C           -1.67402591937606        1.14930936280859       -2.35649854294456
C           -1.03712577818914        0.77010484332890       -1.16349948922212
N           -1.61335017195847        1.04959408869834        0.05483678137369
C           -2.88495191658903        1.69716228791904        0.08690547508239
C           -2.97451855009314        3.07600625803305       -0.05260459193281
C           -4.21173719447384        3.68850035481954       -0.02042282468070
C           -5.38667159559000        2.95672546568110        0.14836412849009
C           -6.72201612922926        3.68238982533713        0.17706092982499
C           -7.90647516636183        2.73099982689207        0.37113716093996
C           -6.91491223216199        4.42468344561475       -1.15393916750156
C           -6.71722267758995        4.68683875313883        1.33931659962568
C           -5.27292124250636        1.57763389720803        0.28625903883692
C           -4.03959033470013        0.94944233190422        0.25829487587148
H            0.18288105023848       -0.65865165876043        5.67989185220666
H            1.72701665544938       -0.91036366487267        4.84738162782653
H            1.28519456493294        0.69230865398882        5.44451741302241
H           -1.43795987298788        1.08382848130668        4.58578334108491
H           -2.52134873873015        1.63481441432398        2.46755098091969
H            1.75706412703652       -0.79563837805830        2.46840155118126
H            1.68821303380276        2.10855274959375       -0.12769401225906
H            3.95478562541859        3.05051557035432       -0.09396435589375
H            7.00503359016799        0.35767697715695        1.55500854207813
H            9.28911220417343        1.26839103681934        1.56283724173988
H            9.88880504977932        3.12377671191059        0.04831639610504
H            8.18762582908666        4.05666185285590       -1.47885196661312
H            5.90838731059856        3.13543296035463       -1.49730855823045
H            5.55520546187153       -0.91783526922843        0.13464676989446
H            2.66314204913876       -4.76261303246203        0.13593051901508
H            0.42875499243595       -5.78158612193018       -0.02944274165569
H           -1.55999943878041       -6.13598906648517        1.06216334096068
H           -3.80931145970375       -7.09011995585078        0.87101413535426
H           -5.52397442278931       -5.97112055723041       -0.51137434087030
H           -4.95098157623243       -3.89538904668386       -1.72275772523558
H           -2.69139927856037       -2.95799832158871       -1.56711494850598
H           -1.29896333845478       -1.87179032633735       -0.17314796541163
H            1.69985755961300       -0.68277014988924       -2.51416622625612
H            0.83665929084454        0.86215986430125       -5.57195623628967
H            1.73643544090406       -0.49798750389609       -4.88069134379407
H            0.12074252483158       -0.74414628886958       -5.55474757492569
H           -1.59948155252630        1.18338124564155       -4.47909056662700
H           -2.62720710647178        1.65198418598236       -2.31419207962503
H           -2.07571425510983        3.66008657482447       -0.18385310870084
H           -4.25261922181061        4.76080906600611       -0.12894623480787
H           -7.97090849770896        2.01199535155538       -0.44239394413327
H           -8.83107565043631        3.30440081677434        0.38358681412822
H           -7.83181001699856        2.19785787132157        1.31620697132656
H           -6.13683370201462        5.16575347950085       -1.31417472351732
H           -7.87544451460018        4.93510176009737       -1.15898223595677
H           -6.89500989404314        3.72140010464482       -1.98422691362614
H           -6.55395498039232        4.17078136167070        2.28347083123558
H           -5.93746705834860        5.43357086479247        1.21849418634029
H           -7.67436042473711        5.20109437346890        1.38989453651030
H           -6.14779922312894        0.96393210465811        0.41910343640256
H           -3.97262611453932       -0.12256850361338        0.37128124287558

          :  Hamiltonian                  GFN2-xTB          :
         :: gradient norm              0.000027788010 Eh/a0 ::
         :: HOMO-LUMO gap              0.798971616899 eV    ::
         :: SCC energy              -137.457800965075 Eh    ::
         :: -> dispersion             -0.130128353270 Eh    ::
         :: -> Gsolv                  -0.070039867088 Eh    ::
         :: repulsion energy           2.448429277807 Eh    ::

    * Orbital Energies and Occupations

         #    Occupation            Energy/Eh            Energy/eV
      -------------------------------------------------------------
         1        2.0000           -0.6947178             -18.9042
       ...           ...                  ...                  ...
       115        2.0000           -0.4084612             -11.1148
       116        2.0000           -0.4074814             -11.0881
       117        2.0000           -0.4060524             -11.0492
       118        2.0000           -0.4023696             -10.9490
       119        2.0000           -0.4018395             -10.9346
       120        2.0000           -0.3990760             -10.8594
       121        2.0000           -0.3985078             -10.8440
       122        2.0000           -0.3943609             -10.7311
       123        2.0000           -0.3812457             -10.3742
       124        2.0000           -0.3773342             -10.2678
       125        1.9726           -0.3689054             -10.0384
       126        1.0274           -0.3621223              -9.8538
       127        1.0000           -0.2794217              -7.6035 (HOMO)
       128        0.0000           -0.2500600              -6.8045 (LUMO)
       129                         -0.2416251              -6.5750
       130                         -0.2400964              -6.5334
       131                         -0.2389877              -6.5032
       132                         -0.2378862              -6.4732
       133                         -0.2358227              -6.4171
       134                         -0.2326901              -6.3318
       135                         -0.2200183              -5.9870
       136                         -0.2166299              -5.8948
       137                         -0.2140559              -5.8248
       138                         -0.2105753              -5.7300
       ...                                ...                  ...
       249                          0.7032374              19.1361
      -------------------------------------------------------------
                  HL-Gap            0.0293617 Eh            0.7990 eV

     #   Z          covCN         q      C6AA      α(0)
     1   6 C        3.758    -0.114    22.732     6.797
     2   6 C        2.964     0.027    27.393     8.585
     3   6 C        2.923    -0.035    28.876     8.812
     4   6 C        2.918    -0.048    29.192     8.860
     5   6 C        2.929     0.059    26.677     8.470
     6   6 C        2.987     0.004    27.915     8.667
     7   6 C        2.928    -0.039    28.968     8.827
     8   6 C        3.929     0.021    20.151     6.379
     9   6 C        2.984    -0.005    28.136     8.701
    10   6 C        2.921    -0.038    28.957     8.824
    11   6 C        2.923    -0.049    29.223     8.865
    12   6 C        2.973     0.004    27.937     8.670
    13   6 C        2.977     0.010    27.792     8.648
    14   6 C        2.925    -0.034    28.837     8.806
    15   6 C        2.918    -0.031    28.767     8.795
    16   6 C        2.920    -0.033    28.822     8.804
    17   6 C        2.918    -0.031    28.782     8.798
    18   6 C        2.925    -0.035    28.874     8.812
    19   6 C        2.931    -0.036    28.885     8.814
    20   6 C        2.975    -0.021    28.514     8.759
    21   6 C        2.837     0.168    24.378     8.091
    22   8 O        0.857    -0.521    24.262     6.604
    23   6 C        2.976    -0.027    28.674     8.784
    24   6 C        2.922    -0.034    28.856     8.809
    25   6 C        2.919    -0.041    29.016     8.833
    26   6 C        2.974    -0.010    28.262     8.720
    27   6 C        2.974     0.006    27.877     8.661
    28   6 C        2.924    -0.038    28.954     8.824
    29   6 C        2.917    -0.033    28.813     8.802
    30   6 C        2.919    -0.038    28.951     8.823
    31   6 C        2.917    -0.033    28.830     8.805
    32   6 C        2.925    -0.039    28.981     8.828
    33   6 C        2.928    -0.045    29.129     8.851
    34   6 C        2.986    -0.004    28.114     8.698
    35   6 C        2.986     0.005    27.912     8.666
    36   6 C        2.928    -0.038    28.955     8.825
    37   6 C        2.963     0.027    27.392     8.585
    38   6 C        3.758    -0.114    22.737     6.798
    39   6 C        2.923    -0.035    28.875     8.812
    40   6 C        2.918    -0.048    29.202     8.862
    41   6 C        2.928     0.059    26.682     8.471
    42   7 N        2.754    -0.008    21.407     6.872
    43   6 C        2.931     0.053    26.816     8.492
    44   6 C        2.918    -0.038    28.939     8.822
    45   6 C        2.928    -0.031    28.767     8.796
    46   6 C        2.973     0.017    27.620     8.621
    47   6 C        3.903     0.027    20.060     6.366
    48   6 C        3.761    -0.111    22.668     6.787
    49   6 C        3.761    -0.108    22.612     6.779
    50   6 C        3.761    -0.108    22.612     6.779
    51   6 C        2.926    -0.035    28.862     8.810
    52   6 C        2.919    -0.037    28.913     8.818
    53   1 H        0.925     0.062     2.181     2.309
    54   1 H        0.925     0.049     2.338     2.391
    55   1 H        0.924     0.065     2.145     2.290
    56   1 H        0.926     0.055     2.255     2.348
    57   1 H        0.926     0.053     2.277     2.360
    58   1 H        0.926     0.036     2.504     2.474
    59   1 H        0.925     0.025     2.665     2.553
    60   1 H        0.926     0.033     2.547     2.496
    61   1 H        0.926     0.027     2.628     2.535
    62   1 H        0.926     0.030     2.591     2.517
    63   1 H        0.926     0.031     2.566     2.505
    64   1 H        0.926     0.032     2.551     2.498
    65   1 H        0.926     0.033     2.541     2.493
    66   1 H        0.926     0.029     2.601     2.522
    67   1 H        0.925     0.025     2.664     2.553
    68   1 H        0.926     0.027     2.634     2.538
    69   1 H        0.926     0.024     2.676     2.558
    70   1 H        0.925     0.025     2.663     2.552
    71   1 H        0.926     0.026     2.648     2.545
    72   1 H        0.926     0.028     2.619     2.531
    73   1 H        0.926     0.025     2.655     2.548
    74   1 H        0.926     0.022     2.705     2.572
    75   1 H        0.926     0.036     2.497     2.471
    76   1 H        0.925     0.063     2.164     2.300
    77   1 H        0.925     0.049     2.335     2.389
    78   1 H        0.925     0.063     2.162     2.299
    79   1 H        0.926     0.055     2.256     2.349
    80   1 H        0.926     0.053     2.279     2.361
    81   1 H        0.926     0.046     2.369     2.407
    82   1 H        0.926     0.051     2.303     2.373
    83   1 H        0.925     0.039     2.461     2.453
    84   1 H        0.925     0.041     2.435     2.440
    85   1 H        0.925     0.039     2.461     2.453
    86   1 H        0.925     0.040     2.442     2.444
    87   1 H        0.925     0.043     2.414     2.430
    88   1 H        0.925     0.036     2.501     2.473
    89   1 H        0.925     0.036     2.503     2.474
    90   1 H        0.925     0.040     2.443     2.444
    91   1 H        0.925     0.043     2.414     2.430
    92   1 H        0.926     0.057     2.231     2.336
    93   1 H        0.926     0.044     2.397     2.421

molecular dipole:
                 x           y           z       tot (Debye)
 q only:       -5.359       4.526      -0.130
   full:       -5.182       4.346      -0.113      17.193

 projected vibrational frequencies (cm⁻¹)
eigval :       -0.00    -0.00     0.00     0.00     0.00     0.00
eigval :        6.28    11.38    17.46    21.71    27.66    30.12
eigval :       37.71    39.61    41.89    43.73    48.97    53.13
eigval :       55.92    66.23    81.78    83.02    84.82    96.14
eigval :      103.04   114.10   124.11   128.36   136.02   139.14
eigval :      171.23   179.98   181.37   191.76   198.08   210.22
eigval :      214.47   226.09   233.11   252.48   255.54   263.40
eigval :      288.55   290.24   297.86   311.20   315.86   318.14
eigval :      329.97   336.24   346.85   359.93   361.70   362.62
eigval :      374.24   375.77   379.34   388.72   395.94   401.75
eigval :      405.95   420.94   423.22   433.80   438.47   445.39
eigval :      454.97   462.98   480.03   494.20   498.30   508.82
eigval :      529.88   533.40   536.15   544.16   568.45   572.47
eigval :      579.12   585.56   589.83   596.05   608.43   611.86
eigval :      613.44   616.54   624.04   633.98   659.31   661.94
eigval :      667.73   672.63   680.64   683.30   689.62   694.41
eigval :      702.53   738.04   740.97   753.76   757.25   775.43
eigval :      804.76   809.50   812.39   814.87   816.02   821.01
eigval :      865.16   867.34   869.07   871.83   874.70   877.51
eigval :      878.60   881.10   886.51   891.72   891.84   902.86
eigval :      908.13   913.53   914.41   916.49   918.49   920.71
eigval :      926.61   927.01   927.89   928.85   931.72   933.29
eigval :      947.45   957.65   960.36   962.20   965.65   980.99
eigval :      986.71   995.26  1012.60  1017.45  1021.72  1023.10
eigval :     1026.91  1033.88  1036.04  1076.94  1077.52  1081.36
eigval :     1085.72  1091.24  1119.51  1121.23  1125.05  1135.09
eigval :     1139.21  1142.80  1144.09  1163.78  1179.52  1179.93
eigval :     1180.33  1184.06  1192.76  1195.39  1200.29  1200.42
eigval :     1202.16  1212.95  1223.78  1225.34  1230.78  1231.59
eigval :     1249.93  1253.94  1256.22  1262.65  1270.13  1276.45
eigval :     1280.27  1284.05  1284.94  1287.07  1296.86  1309.82
eigval :     1315.88  1317.14  1320.62  1322.85  1341.11  1342.42
eigval :     1345.04  1349.36  1358.40  1394.45  1396.66  1397.23
eigval :     1403.96  1406.71  1408.31  1418.34  1421.90  1425.58
eigval :     1427.86  1430.41  1436.81  1446.70  1448.71  1463.42
eigval :     1465.61  1469.60  1470.16  1471.59  1475.83  1479.06
eigval :     1480.62  1484.25  1487.53  1488.83  1489.39  1497.28
eigval :     1501.25  1510.72  1514.93  1522.26  1530.44  1542.84
eigval :     1546.14  1564.92  1566.00  1574.39  1580.64  1581.87
eigval :     1591.61  1594.71  1595.85  1597.78  2997.49  3001.99
eigval :     3018.56  3023.36  3023.48  3024.17  3027.68  3028.13
eigval :     3031.88  3033.48  3038.85  3046.40  3049.17  3049.57
eigval :     3049.81  3058.11  3060.36  3061.42  3063.55  3065.47
eigval :     3067.19  3070.57  3073.14  3074.87  3075.30  3076.58
eigval :     3077.44  3079.05  3080.27  3081.68  3084.59  3085.45
eigval :     3086.83  3087.44  3088.41  3088.92  3089.62  3100.47
eigval :     3108.94  3110.08  3125.09

   temp. (K)  partition function   enthalpy   heat capacity  entropy
                                   cal/mol     cal/K/mol   cal/K/mol   J/K/mol
 298.15  VIB  0.513E+22            27042.870    165.908    170.009
         ROT  0.974E+08              888.752      2.981     39.535
         INT  0.499E+30            27931.622    168.889    209.544
         TR   0.168E+29             1481.254      4.968     45.375
         TOT                       29412.8762   173.8572   254.9193  1066.5822

       T/K    H(0)-H(T)+PV         H(T)/Eh          T*S/Eh         G(T)/Eh
   ------------------------------------------------------------------------
    298.15    0.468724E-01    0.786732E+00    0.121120E+00    0.665612E+00
   ------------------------------------------------------------------------

         :::::::::::::::::::::::::::::::::::::::::::::::::::::
         ::                  THERMODYNAMIC                  ::
         :::::::::::::::::::::::::::::::::::::::::::::::::::::
         :: total free energy        -134.343760012776 Eh   ::
         ::.................................................::
         :: total energy             -135.009371691290 Eh   ::
         :: zero point energy           0.739859645722 Eh   ::
         :: G(RRHO) w/o ZPVE           -0.074247967208 Eh   ::
         :: G(RRHO) contrib.            0.665611678514 Eh   ::
         :::::::::::::::::::::::::::::::::::::::::::::::::::::

           -------------------------------------------------
          | TOTAL ENERGY             -135.009371691290 Eh   |
          | TOTAL ENTHALPY           -134.222639643847 Eh   |
          | TOTAL FREE ENERGY        -134.343760012776 Eh   |
          | GRADIENT NORM               0.000027806301 Eh/α |
          | HOMO-LUMO GAP               0.798972912927 eV   |
           -------------------------------------------------

 * finished run on 2025/09/11 at 21:47:31.575
