   * xtb version 6.7.1 (edcfbbe) compiled by 'albert@albert-system' on 2024-07-22

   ID    Z sym.   atoms
    1    6 C      1, 2, 4-6, 8-13, 15-24
    2    7 N      3, 7
    3    8 O      14, 25, 26
    4    1 H      27-40

          program call               : xtb data2507/gas/PXZ-BOO/PXZ-BOO_gas_S0_finalOpt.xtbopt.xyz --gfn 2 --spinpol --tblite --uhf 2 --ohess vtight --parallel 40 --molden --ceasefiles --namespace data2507/gas/PXZ-BOO/PXZ-BOO_gas_T1_preOpt
 * total energy  :   -70.1136690 Eh     change        0.4495462E-09 Eh
 * total energy  :   -70.1189020 Eh     change       -0.5232924E-02 Eh
 * total energy  :   -70.1202473 Eh     change       -0.1345307E-02 Eh
 * total energy  :   -70.1203800 Eh     change       -0.1327426E-03 Eh
 * total energy  :   -70.1204712 Eh     change       -0.9122422E-04 Eh
 * total energy  :   -70.1205034 Eh     change       -0.3219109E-04 Eh
 * total energy  :   -70.1205309 Eh     change       -0.2743871E-04 Eh
 * total energy  :   -70.1205465 Eh     change       -0.1561897E-04 Eh
 * total energy  :   -70.1205571 Eh     change       -0.1061124E-04 Eh
 * total energy  :   -70.1205700 Eh     change       -0.1290947E-04 Eh
 * total energy  :   -70.1206786 Eh     change       -0.5805101E-06 Eh
 * total energy  :   -70.1206792 Eh     change       -0.6749032E-06 Eh
 * total energy  :   -70.1206799 Eh     change       -0.6457800E-06 Eh
 * total energy  :   -70.1206804 Eh     change       -0.5365639E-06 Eh
 * total energy  :   -70.1206807 Eh     change       -0.3024447E-06 Eh
 * total energy  :   -70.1206810 Eh     change       -0.2265637E-06 Eh
 * total energy  :   -70.1206811 Eh     change       -0.1156391E-06 Eh
 * total energy  :   -70.1206811 Eh     change        0.1178410E-07 Eh
 * total energy  :   -70.1206811 Eh     change       -0.1276037E-07 Eh
   *** GEOMETRY OPTIMIZATION CONVERGED AFTER 45 ITERATIONS ***

 final structure:
================
40
 xtb: 6.7.1 (edcfbbe)
C            5.48599087017855       -1.21249979775502       -2.03203865954095
C            4.48298719797775       -0.61803010228058       -1.10203411541921
N            3.23735329081549       -0.78412316524359       -1.30519514036712
C            2.35043892639125       -0.21429922448623       -0.41312736798054
C            0.99065398700549       -0.37839769628903       -0.60946521946051
C            0.09236243108038        0.19722755480474        0.28965591879461
N           -1.30394059557770        0.02826634897598        0.09507413793746
C           -1.86893997633471       -1.21400345942448        0.23817855297415
C           -1.13050281650092       -2.35521727781457        0.58214232096164
C           -1.74502338646976       -3.57419887232636        0.71174844210746
C           -3.13742305856132       -3.70336769803065        0.51530344123078
C           -3.89376286853192       -2.59818335777724        0.20804930743632
C           -3.29028384792314       -1.35005111813385        0.06946426456774
O           -4.07384216838275       -0.28630300762831       -0.19970588595277
C           -3.50762531855397        0.93013934294318       -0.33453297715081
C           -4.32874630418078        2.01910841272630       -0.61160045113153
C           -3.78597908603412        3.26989356435462       -0.78821980364401
C           -2.38629251733315        3.45121442249302       -0.70678245305764
C           -1.55963592495896        2.39557245451060       -0.42692478996523
C           -2.08501412194535        1.11163464932911       -0.21027701677649
C            0.55221016886617        0.94040277975063        1.38931505987689
C            1.89600802596971        1.10386123323044        1.59204872380210
C            2.82472233600295        0.53270027202217        0.69617295066552
C            4.23725841625945        0.69338078573553        0.88446104491483
O            4.80455246318627        1.29344927404578        1.76847189154784
O            5.04180800117459        0.06810108735256       -0.09052940028905
H            6.13589746580835       -1.89026249450363       -1.48201306984629
H            4.97266900545624       -1.74657143425870       -2.82424955832223
H            6.10652877251657       -0.42316111326942       -2.45157094050147
H            0.64152944101388       -0.93886477659195       -1.46188805609285
H           -0.06883750773354       -2.26093722361565        0.74510777470754
H           -1.16275772132208       -4.44310172364093        0.97190142826600
H           -3.60511173569003       -4.66861854769978        0.61938804974698
H           -4.96159031639841       -2.66308357855171        0.07131264533020
H           -5.39086366370048        1.84788122379104       -0.68807779922026
H           -4.42279632950251        4.11244719942633       -1.00151988762840
H           -1.96872735990611        4.43117171327372       -0.87152994436793
H           -0.49168224493590        2.53660266468417       -0.37464903876172
H           -0.16754193266641        1.36595469382769        2.07303098774972
H            2.27682397040326        1.66385568559714        2.43111915350745

 projected vibrational frequencies (cm⁻¹)
eigval :       -0.00    -0.00     0.00     0.00     0.00     0.00
eigval :       21.79    25.99    34.25    73.69    76.71    88.85
eigval :      106.78   120.54   127.66   143.42   164.22   232.04
eigval :      234.23   268.70   276.47   280.32   287.90   318.74
eigval :      368.19   390.72   399.23   401.61   423.40   437.79
eigval :      441.88   456.04   490.03   492.05   522.11   534.47
eigval :      548.06   552.60   574.36   605.53   611.09   614.95
eigval :      621.63   632.58   656.50   676.05   708.34   743.35
eigval :      745.17   746.89   785.09   810.38   839.05   841.74
eigval :      843.81   848.06   854.36   885.66   889.79   891.27
eigval :      893.24   894.45   901.83   915.89   961.46   966.09
eigval :     1013.80  1033.55  1039.24  1053.36  1108.96  1120.60
eigval :     1125.76  1144.38  1159.20  1166.51  1179.71  1186.36
eigval :     1207.21  1218.53  1232.41  1242.63  1253.18  1256.53
eigval :     1296.63  1311.42  1333.28  1340.66  1341.63  1372.22
eigval :     1373.18  1382.84  1395.46  1416.67  1418.41  1435.67
eigval :     1440.50  1442.00  1443.99  1446.87  1466.27  1471.99
eigval :     1483.89  1567.61  1645.52  1712.93  3019.98  3030.63
eigval :     3076.62  3082.30  3101.68  3102.23  3103.86  3105.11
eigval :     3107.71  3108.87  3111.50  3112.78  3118.35  3118.43

   temp. (K)  partition function   enthalpy   heat capacity  entropy
                                   cal/mol     cal/K/mol   cal/K/mol   J/K/mol
 298.15  VIB  0.923E+08            11451.036     75.045     69.293
         ROT  0.125E+08              888.752      2.981     35.458
         INT  0.115E+16            12339.788     78.026    104.751
         TR   0.613E+28             1481.254      4.968     43.367
         TOT                       13821.0422    82.9941   148.1174   619.7233

       T/K    H(0)-H(T)+PV         H(T)/Eh          T*S/Eh         G(T)/Eh
   ------------------------------------------------------------------------
    298.15    0.220252E-01    0.311081E+00    0.703754E-01    0.240705E+00
   ------------------------------------------------------------------------

         :::::::::::::::::::::::::::::::::::::::::::::::::::::
         ::                  THERMODYNAMIC                  ::
         :::::::::::::::::::::::::::::::::::::::::::::::::::::
         :: total free energy         -69.879975692505 Eh   ::
         ::.................................................::
         :: total energy              -70.120681078154 Eh   ::
         :: zero point energy           0.289055519354 Eh   ::
         :: G(RRHO) w/o ZPVE           -0.048350133706 Eh   ::
         :: G(RRHO) contrib.            0.240705385649 Eh   ::
         :::::::::::::::::::::::::::::::::::::::::::::::::::::

           -------------------------------------------------
          | TOTAL ENERGY              -70.120681078154 Eh   |
          | TOTAL ENTHALPY            -69.809600326121 Eh   |
          | TOTAL FREE ENERGY         -69.879975692505 Eh   |
          | GRADIENT NORM               0.000073408476 Eh/α |
           -------------------------------------------------

 * finished run on 2025/09/04 at 09:14:01.113
