   * xtb version 6.7.1 (edcfbbe) compiled by 'albert@albert-system' on 2024-07-22

   ID    Z sym.   atoms
    1    6 C      1, 2, 4-6, 8-13, 15-24
    2    7 N      3, 7
    3    8 O      14, 25, 26
    4    1 H      27-40

          program call               : xtb data2507/gas/PXZ-BOO/PXZ-BOO_gas_T1_crest.xyz --gfn 2 --spinpol --tblite --uhf 2 --ohess vtight --parallel 40 --molden --ceasefiles --namespace data2507/gas/PXZ-BOO/PXZ-BOO_gas_T1_finalOpt
 * total energy  :   -70.1206684 Eh     change       -0.3214055E-08 Eh
 * total energy  :   -70.1206739 Eh     change       -0.5472655E-05 Eh
 * total energy  :   -70.1206761 Eh     change       -0.2222305E-05 Eh
 * total energy  :   -70.1206769 Eh     change       -0.8347874E-06 Eh
 * total energy  :   -70.1206774 Eh     change       -0.5082138E-06 Eh
 * total energy  :   -70.1206779 Eh     change       -0.4600620E-06 Eh
 * total energy  :   -70.1206784 Eh     change       -0.5454867E-06 Eh
 * total energy  :   -70.1206788 Eh     change       -0.3831764E-06 Eh
 * total energy  :   -70.1206793 Eh     change       -0.4540622E-06 Eh
 * total energy  :   -70.1206799 Eh     change       -0.6128058E-06 Eh
 * total energy  :   -70.1206806 Eh     change       -0.6968456E-06 Eh
 * total energy  :   -70.1206812 Eh     change       -0.5905545E-06 Eh
 * total energy  :   -70.1206816 Eh     change       -0.4120770E-06 Eh
 * total energy  :   -70.1206819 Eh     change       -0.2821421E-06 Eh
 * total energy  :   -70.1206820 Eh     change       -0.1728413E-06 Eh
 * total energy  :   -70.1206821 Eh     change       -0.9120902E-07 Eh
   *** GEOMETRY OPTIMIZATION CONVERGED AFTER 16 ITERATIONS ***

 final structure:
================
40
 xtb: 6.7.1 (edcfbbe)
C            5.47881286297100        1.14365253458943        2.09583037949144
C            4.47976877329094        0.58286352652769        1.14098296140287
N            3.23316794400851        0.73776042017165        1.34701540744348
C            2.35008913916393        0.19957463849616        0.43175897344684
C            0.98933222837765        0.35189329611913        0.63092193008784
C            0.09503584419141       -0.19239419508854       -0.29136674348418
N           -1.30242658443926       -0.03639423505188       -0.09383609587130
C           -2.07889448686829       -1.13333927732328        0.17158018274483
C           -1.54733580191866       -2.42098672398096        0.34755855213336
C           -2.36936831766149       -3.48974661373967        0.58830869395429
C           -3.77046309823439       -3.31883573925970        0.66875369281697
C           -4.31948321746398       -2.06590587780494        0.53076140352536
C           -3.50316550321869       -0.96384427505317        0.29437521678108
O           -4.07542032568590        0.25327571976148        0.19625675538820
C           -3.29625830102667        1.32970834510264       -0.03213203415130
C           -3.90602602698054        2.57849618978001       -0.13268366852573
C           -3.15399290542792        3.69759951014470       -0.39695265119585
C           -1.75954097706465        3.58297591626088       -0.58763107915557
C           -1.13896884013218        2.36355186134525       -0.49588039864241
C           -1.87320052845862        1.20727348521280       -0.19651646886721
C            0.55975154017199       -0.89216689996453       -1.41711277574940
C            1.90451832989066       -1.04339072912289       -1.62282955789051
C            2.82931633826978       -0.50350798805007       -0.70380390151298
C            4.24278642730988       -0.65279086037553       -0.89447820568875
O            4.81393245389819       -1.21717892772550       -1.79928725593498
O            5.04308160105259       -0.06273680946543        0.10553819112454
H            6.09522419851402        0.33916252068061        2.49211415759019
H            6.13331180798099        1.83784982491376        1.57245878480884
H            4.96223110156841        1.65172020446039        2.90288325949551
H            0.63643636575385        0.87865214114557        1.50305853875427
H           -0.47835589016829       -2.55426725140435        0.29552416301652
H           -1.94716505620375       -4.47238107740300        0.72253928684710
H           -4.40350678801670       -4.17149386282082        0.85089786254221
H           -5.38294061150469       -1.90319018421363        0.60726453104612
H           -4.97509503749260        2.63277973066462       -0.00114523480402
H           -3.62648383704037        4.66324298985568       -0.47144765424895
H           -1.18047152633538        4.46355842746217       -0.81333758117594
H           -0.07570574697629        2.28070075463164       -0.65456171353513
H           -0.15710692449628       -1.29437897522770       -2.11779941735808
H            2.28904619660148       -1.57019427705079       -2.48147164674946

 projected vibrational frequencies (cm⁻¹)
eigval :       -0.00    -0.00    -0.00     0.00     0.00     0.00
eigval :       21.61    26.05    34.32    73.77    76.83    88.90
eigval :      106.59   120.51   127.69   143.37   164.19   232.06
eigval :      234.25   268.62   276.48   280.21   287.89   318.66
eigval :      368.35   390.72   399.15   401.58   423.41   437.75
eigval :      441.87   456.06   490.04   492.05   522.04   534.42
eigval :      548.06   552.64   574.36   605.50   611.14   615.02
eigval :      621.59   632.56   656.59   675.97   708.39   743.43
eigval :      745.17   747.00   785.45   810.36   838.85   841.89
eigval :      843.89   848.08   854.32   885.69   889.93   891.45
eigval :      893.41   894.53   901.62   916.06   961.38   966.19
eigval :     1013.90  1033.65  1039.10  1053.52  1109.05  1120.64
eigval :     1125.89  1144.44  1159.21  1166.82  1179.84  1186.36
eigval :     1207.02  1218.55  1232.34  1242.68  1253.20  1256.61
eigval :     1296.65  1311.42  1333.34  1340.74  1341.52  1372.57
eigval :     1373.21  1383.01  1396.18  1416.64  1418.37  1435.78
eigval :     1440.84  1442.28  1444.17  1446.97  1466.31  1471.52
eigval :     1484.34  1567.67  1645.56  1712.84  3020.09  3030.99
eigval :     3076.71  3082.03  3101.52  3102.25  3103.77  3105.15
eigval :     3107.73  3108.84  3111.36  3112.82  3118.32  3118.42

   temp. (K)  partition function   enthalpy   heat capacity  entropy
                                   cal/mol     cal/K/mol   cal/K/mol   J/K/mol
 298.15  VIB  0.926E+08            11450.995     75.044     69.298
         ROT  0.125E+08              888.752      2.981     35.458
         INT  0.116E+16            12339.747     78.025    104.755
         TR   0.613E+28             1481.254      4.968     43.367
         TOT                       13821.0012    82.9930   148.1219   619.7422

       T/K    H(0)-H(T)+PV         H(T)/Eh          T*S/Eh         G(T)/Eh
   ------------------------------------------------------------------------
    298.15    0.220252E-01    0.311090E+00    0.703775E-01    0.240712E+00
   ------------------------------------------------------------------------

         :::::::::::::::::::::::::::::::::::::::::::::::::::::
         ::                  THERMODYNAMIC                  ::
         :::::::::::::::::::::::::::::::::::::::::::::::::::::
         :: total free energy         -69.879969835649 Eh   ::
         ::.................................................::
         :: total energy              -70.120682145295 Eh   ::
         :: zero point energy           0.289064652120 Eh   ::
         :: G(RRHO) w/o ZPVE           -0.048352342474 Eh   ::
         :: G(RRHO) contrib.            0.240712309647 Eh   ::
         :::::::::::::::::::::::::::::::::::::::::::::::::::::

           -------------------------------------------------
          | TOTAL ENERGY              -70.120682145295 Eh   |
          | TOTAL ENTHALPY            -69.809592325790 Eh   |
          | TOTAL FREE ENERGY         -69.879969835649 Eh   |
          | GRADIENT NORM               0.000061929651 Eh/α |
           -------------------------------------------------

 * finished run on 2025/09/04 at 09:15:34.464
