   * xtb version 6.7.1 (edcfbbe) compiled by 'albert@albert-system' on 2024-07-22

   ID    Z sym.   atoms
    1    6 C      1, 2, 4-6, 8-13, 15-24
    2    7 N      3, 7
    3    8 O      14, 25, 26
    4    1 H      27-40

          program call               : xtb data2507/gas/PXZ-BOO/PXZ-BOO_gas_S0_crest.xyz --gfn 2 --ohess vtight --parallel 40 --molden --ceasefiles --namespace data2507/gas/PXZ-BOO/PXZ-BOO_gas_S0_finalOpt
          :  Hamiltonian                  GFN2-xTB          :
 * total energy  :   -70.2067296 Eh     change       -0.9975736E-09 Eh
 * total energy  :   -70.2067299 Eh     change       -0.3254974E-06 Eh
 * total energy  :   -70.2067301 Eh     change       -0.1940960E-06 Eh
 * total energy  :   -70.2067303 Eh     change       -0.2164477E-06 Eh
 * total energy  :   -70.2067305 Eh     change       -0.1589061E-06 Eh
 * total energy  :   -70.2067307 Eh     change       -0.2272971E-06 Eh
 * total energy  :   -70.2067311 Eh     change       -0.4143535E-06 Eh
 * total energy  :   -70.2067315 Eh     change       -0.3911742E-06 Eh
 * total energy  :   -70.2067318 Eh     change       -0.2300059E-06 Eh
 * total energy  :   -70.2067319 Eh     change       -0.1414193E-06 Eh
 * total energy  :   -70.2067320 Eh     change       -0.8977257E-07 Eh
   *** GEOMETRY OPTIMIZATION CONVERGED AFTER 11 ITERATIONS ***

 final structure:
================
40
 xtb: 6.7.1 (edcfbbe)
C            5.49681617172143       -1.38202433371906       -1.91055243934247
C            4.49012399364278       -0.70896604890811       -1.04557751804871
N            3.24448560563406       -0.89386064794629       -1.22172433564196
C            2.36122123934269       -0.24147328541566       -0.38803731181250
C            0.99289153576392       -0.42415201065263       -0.56668777810689
C            0.09479126277433        0.23036136556799        0.26353619350155
N           -1.28691769631726        0.04653237287333        0.09704883697633
C           -1.86194695034401       -1.22693006887235        0.20163630021813
C           -1.11745033856535       -2.36036416856810        0.50340096193951
C           -1.72321730307877       -3.60297625267184        0.60881845655383
C           -3.08496954994880       -3.73422983133047        0.42639968089841
C           -3.84809254289914       -2.60793937592284        0.16103046554631
C           -3.24894719659821       -1.36542518129428        0.05915255175803
O           -4.08002381269255       -0.29715273924544       -0.16250842111346
C           -3.50332252550367        0.94176258258271       -0.27269203749430
C           -4.35117460334368        2.00515491020071       -0.52453866818628
C           -3.84131315462016        3.28378486923770       -0.68862887951123
C           -2.47727059957439        3.48433186923263       -0.62328070803032
C           -1.62367534237952        2.42185432316885       -0.36903398997665
C           -2.12143788250898        1.14159391202594       -0.15992989941856
C            0.56458664120507        1.07843109237238        1.27886859691290
C            1.91325989101000        1.26729761787565        1.45853433473179
C            2.82620446560113        0.61143624281104        0.62937230274695
C            4.26176891842938        0.79049700275967        0.79450942656525
O            4.81164473466105        1.47842685867911        1.61126615238027
O            5.04390919128740        0.08033962095289       -0.09966237488609
H            6.15848612697970       -1.98997142766222       -1.29660642365897
H            4.98859252395225       -2.00213500993736       -2.64086355441100
H            6.10548724040422       -0.63288240149927       -2.41327937752685
H            0.65218506653937       -1.06766099037289       -1.36196546447349
H           -0.05532497409611       -2.27482221692761        0.66872738768325
H           -1.11706827482207       -4.46534836739938        0.83919595574832
H           -3.56019815049410       -4.69937251589112        0.50132474137526
H           -4.91734996268574       -2.66880326984878        0.03647319324555
H           -5.40884991688748        1.80771363460828       -0.59404709952682
H           -4.51013401751747        4.10779714199344       -0.88000884096324
H           -2.06165917835756        4.46855359652256       -0.77408486954161
H           -0.55897894133718        2.59250550282627       -0.34254766117860
H           -0.14805079778602        1.56928135289769        1.92432367497249
H            2.29382458970951        1.90840898069679        2.23863246149602

          :  Hamiltonian                  GFN2-xTB          :
         :: gradient norm              0.000051442409 Eh/a0 ::
         :: HOMO-LUMO gap              1.737010849540 eV    ::
         :: SCC energy               -71.296435529584 Eh    ::
         :: -> dispersion             -0.050118251527 Eh    ::
         :: repulsion energy           1.089703541775 Eh    ::

    * Orbital Energies and Occupations

         #    Occupation            Energy/Eh            Energy/eV
      -------------------------------------------------------------
         1        2.0000           -0.7660536             -20.8454
       ...           ...                  ...                  ...
        51        2.0000           -0.4565051             -12.4221
        52        2.0000           -0.4530301             -12.3276
        53        2.0000           -0.4423419             -12.0367
        54        2.0000           -0.4398442             -11.9688
        55        2.0000           -0.4326408             -11.7728
        56        2.0000           -0.4293773             -11.6840
        57        2.0000           -0.4225681             -11.4987
        58        2.0000           -0.4205422             -11.4435
        59        2.0000           -0.4182468             -11.3811
        60        2.0000           -0.4144137             -11.2768
        61        2.0000           -0.4057218             -11.0403
        62        2.0000           -0.3951196             -10.7518
        63        2.0000           -0.3499527              -9.5227 (HOMO)
        64                         -0.2861186              -7.7857 (LUMO)
        65                         -0.2780964              -7.5674
        66                         -0.2432507              -6.6192
        67                         -0.2345048              -6.3812
        68                         -0.2222912              -6.0489
        69                         -0.2198091              -5.9813
        70                         -0.2042668              -5.5584
        71                         -0.1910233              -5.1980
        72                         -0.1074429              -2.9237
        73                         -0.0964903              -2.6256
        74                         -0.0776080              -2.1118
       ...                                ...                  ...
       118                          0.6896216              18.7656
      -------------------------------------------------------------
                  HL-Gap            0.0638341 Eh            1.7370 eV

     #   Z          covCN         q      C6AA      α(0)
     1   6 C        3.759    -0.134    23.119     6.855
     2   6 C        2.832     0.253    22.750     7.816
     3   7 N        1.838    -0.271    27.876     7.824
     4   6 C        2.974     0.097    25.847     8.339
     5   6 C        2.923    -0.053    29.324     8.880
     6   6 C        2.920     0.075    26.318     8.413
     7   7 N        2.751    -0.065    22.506     7.046
     8   6 C        2.920     0.041    27.071     8.532
     9   6 C        2.924    -0.059    29.464     8.901
    10   6 C        2.919    -0.038    28.935     8.821
    11   6 C        2.919    -0.038    28.957     8.824
    12   6 C        2.920    -0.055    29.371     8.887
    13   6 C        2.885     0.126    25.235     8.236
    14   8 O        1.709    -0.251    18.163     5.754
    15   6 C        2.885     0.126    25.233     8.235
    16   6 C        2.920    -0.055    29.375     8.888
    17   6 C        2.919    -0.038    28.956     8.824
    18   6 C        2.919    -0.038    28.943     8.822
    19   6 C        2.924    -0.059    29.460     8.901
    20   6 C        2.922     0.041    27.073     8.533
    21   6 C        2.920    -0.041    29.023     8.834
    22   6 C        2.917    -0.021    28.522     8.758
    23   6 C        2.974    -0.049    29.222     8.867
    24   6 C        2.718     0.347    21.101     7.520
    25   8 O        0.857    -0.380    21.291     6.186
    26   8 O        1.708    -0.244    18.045     5.735
    27   1 H        0.925     0.085     1.927     2.171
    28   1 H        0.925     0.084     1.935     2.176
    29   1 H        0.925     0.085     1.927     2.171
    30   1 H        0.926     0.068     2.108     2.270
    31   1 H        0.926     0.037     2.484     2.465
    32   1 H        0.926     0.039     2.463     2.454
    33   1 H        0.926     0.041     2.437     2.441
    34   1 H        0.926     0.053     2.284     2.363
    35   1 H        0.926     0.053     2.284     2.363
    36   1 H        0.926     0.041     2.436     2.441
    37   1 H        0.926     0.039     2.463     2.454
    38   1 H        0.926     0.036     2.503     2.474
    39   1 H        0.926     0.054     2.265     2.353
    40   1 H        0.926     0.067     2.119     2.276

molecular dipole:
                 x           y           z       tot (Debye)
 q only:       -0.589      -0.740      -0.882
   full:       -0.416      -0.603      -0.723       2.615

 projected vibrational frequencies (cm⁻¹)
eigval :       -0.00    -0.00    -0.00    -0.00     0.00     0.00
eigval :       26.97    30.12    36.83    52.91    75.79    96.87
eigval :      122.86   127.06   142.08   156.59   170.98   233.63
eigval :      249.32   272.38   277.82   285.84   297.06   307.92
eigval :      378.97   395.85   413.64   429.05   434.57   442.25
eigval :      453.51   500.63   509.47   515.23   526.28   535.01
eigval :      559.20   561.20   585.88   619.12   640.11   658.53
eigval :      659.89   662.20   671.09   683.06   743.00   756.53
eigval :      779.42   779.90   803.33   838.76   856.53   859.51
eigval :      864.46   869.12   891.06   899.49   903.87   915.43
eigval :      916.95   918.14   930.35   970.97   973.14   990.04
eigval :     1014.87  1044.40  1091.09  1091.70  1109.24  1114.20
eigval :     1130.10  1163.27  1175.32  1183.48  1188.35  1200.17
eigval :     1203.06  1217.34  1235.29  1245.31  1261.99  1264.39
eigval :     1310.16  1315.14  1334.42  1344.10  1357.48  1376.57
eigval :     1419.66  1430.84  1436.78  1438.10  1441.61  1455.86
eigval :     1485.84  1502.47  1534.91  1568.76  1574.59  1580.24
eigval :     1591.09  1602.19  1650.45  1760.21  3021.15  3032.66
eigval :     3080.13  3091.44  3091.68  3093.80  3100.50  3101.27
eigval :     3104.91  3107.42  3109.30  3114.30  3114.55  3114.83

   temp. (K)  partition function   enthalpy   heat capacity  entropy
                                   cal/mol     cal/K/mol   cal/K/mol   J/K/mol
 298.15  VIB  0.435E+08            11106.972     72.908     66.943
         ROT  0.125E+08              888.752      2.981     35.463
         INT  0.546E+15            11995.724     75.889    102.406
         TR   0.613E+28             1481.254      4.968     43.367
         TOT                       13476.9779    80.8572   145.7722   609.9107

       T/K    H(0)-H(T)+PV         H(T)/Eh          T*S/Eh         G(T)/Eh
   ------------------------------------------------------------------------
    298.15    0.214769E-01    0.315317E+00    0.692611E-01    0.246056E+00
   ------------------------------------------------------------------------

         :::::::::::::::::::::::::::::::::::::::::::::::::::::
         ::                  THERMODYNAMIC                  ::
         :::::::::::::::::::::::::::::::::::::::::::::::::::::
         :: total free energy         -69.960676301157 Eh   ::
         ::.................................................::
         :: total energy              -70.206731987810 Eh   ::
         :: zero point energy           0.293839814409 Eh   ::
         :: G(RRHO) w/o ZPVE           -0.047784127755 Eh   ::
         :: G(RRHO) contrib.            0.246055686654 Eh   ::
         :::::::::::::::::::::::::::::::::::::::::::::::::::::

           -------------------------------------------------
          | TOTAL ENERGY              -70.206731987810 Eh   |
          | TOTAL ENTHALPY            -69.891415242022 Eh   |
          | TOTAL FREE ENERGY         -69.960676301157 Eh   |
          | GRADIENT NORM               0.000051547002 Eh/α |
          | HOMO-LUMO GAP               1.737014082783 eV   |
           -------------------------------------------------

 * finished run on 2025/09/04 at 09:13:57.795
