   * xtb version 6.7.1 (edcfbbe) compiled by 'albert@albert-system' on 2024-07-22

   ID    Z sym.   atoms
    1    6 C      1, 2, 4-6, 8-13, 15-24
    2    7 N      3, 7
    3    8 O      14, 25, 26
    4    1 H      27-40

          program call               : xtb data2507/gas/PXZ-BOO/PXZ-BOO.xyz --gfn 2 --ohess vtight --parallel 40 --molden --ceasefiles --namespace data2507/gas/PXZ-BOO/PXZ-BOO_gas_S0_preOpt
          :  Hamiltonian                  GFN2-xTB          :
 * total energy  :   -70.1941537 Eh     change       -0.5745022E-09 Eh
 * total energy  :   -70.2018075 Eh     change       -0.7653842E-02 Eh
 * total energy  :   -70.2042413 Eh     change       -0.2433714E-02 Eh
 * total energy  :   -70.2047059 Eh     change       -0.4646878E-03 Eh
 * total energy  :   -70.2049162 Eh     change       -0.2102608E-03 Eh
 * total energy  :   -70.2049642 Eh     change       -0.4801076E-04 Eh
 * total energy  :   -70.2049924 Eh     change       -0.2818854E-04 Eh
 * total energy  :   -70.2050251 Eh     change       -0.3274310E-04 Eh
 * total energy  :   -70.2050578 Eh     change       -0.3261963E-04 Eh
 * total energy  :   -70.2051436 Eh     change       -0.8587706E-04 Eh
 * total energy  :   -70.2067300 Eh     change        0.9489284E-07 Eh
 * total energy  :   -70.2067306 Eh     change       -0.5951765E-06 Eh
 * total energy  :   -70.2067308 Eh     change       -0.1607006E-06 Eh
 * total energy  :   -70.2067311 Eh     change       -0.2951051E-06 Eh
 * total energy  :   -70.2067314 Eh     change       -0.3324634E-06 Eh
 * total energy  :   -70.2067316 Eh     change       -0.2025936E-06 Eh
 * total energy  :   -70.2067317 Eh     change       -0.1337885E-06 Eh
 * total energy  :   -70.2067318 Eh     change       -0.1018140E-06 Eh
 * total energy  :   -70.2067319 Eh     change       -0.7945391E-07 Eh
   *** GEOMETRY OPTIMIZATION CONVERGED AFTER 57 ITERATIONS ***

 final structure:
================
40
 xtb: 6.7.1 (edcfbbe)
C            5.74013109611742        0.87628348374569       -1.61747799657895
C            4.66171876093363        0.39958250505156       -0.70951711096434
N            3.43558287407821        0.54751462560620       -1.01209910159304
C            2.48281390080680        0.08483752916421       -0.12953049569736
C            1.13447525987956        0.23121907773070       -0.44283294161026
C            0.16707177391597       -0.23355660666579        0.43597586035231
N           -1.19545972947244       -0.08237028609036        0.13364169675963
C           -2.03028289926264       -1.20337901574311        0.04452651478453
C           -1.54376432332810       -2.50130538279144        0.14054052627073
C           -2.39706178253497       -3.58982390179523        0.04485584994477
C           -3.74834770073697       -3.40137781962917       -0.16396851552836
C           -4.24376387244240       -2.11420473313798       -0.30374147889390
C           -3.39607411933311       -1.02524849486890       -0.21071676239837
O           -3.95513622032549        0.21233403733099       -0.39922408832140
C           -3.12156817953164        1.29984299640610       -0.33975653816930
C           -3.70213839637245        2.53928094544463       -0.53955795807413
C           -2.93817113867973        3.69277246125864       -0.45504088223808
C           -1.59575889102524        3.59602251691070       -0.14938444127890
C           -1.00839297683893        2.35575338394261        0.04778385305109
C           -1.75139740278511        1.18771854664176       -0.06903290266782
C            0.54681949298031       -0.85448886224106        1.63639603687542
C            1.87538542523314       -1.00665488300807        1.95052966245119
C            2.85756957817905       -0.54003390492509        1.07375358611008
C            4.27399810721324       -0.68547626767926        1.37830884053045
O            4.75102333277081       -1.19085764657830        2.35796307167339
O            5.13138537651367       -0.17827928114107        0.41736953086290
H            6.36292912093669        1.60098743715750       -1.09649588637888
H            6.37365076802633        0.03884676659465       -1.90353855482107
H            5.29713636734319        1.32816909100922       -2.49829633405779
H            0.86376111147979        0.69712428783614       -1.37680563187034
H           -0.48748628209272       -2.66722606438621        0.28248934144102
H           -1.99096586973649       -4.58573956430140        0.13092175052440
H           -4.41728067107974       -4.24438893916283       -0.23338640661696
H           -5.28939877931158       -1.93089952295800       -0.49227489942143
H           -4.75834816778921        2.57781560899773       -0.75280460691515
H           -3.39869500410161        4.65471191823491       -0.61487461853684
H           -0.99089745565715        4.48470407146063       -0.05683300173702
H            0.03734166496729        2.30151330111635        0.30520525247514
H           -0.21936979171677       -1.19834158590572        2.31472042840147
H            2.18696564278074       -1.47338582863103        2.87221035186423

          :  Hamiltonian                  GFN2-xTB          :
         :: gradient norm              0.000081087831 Eh/a0 ::
         :: HOMO-LUMO gap              1.735736735748 eV    ::
         :: SCC energy               -71.296415427103 Eh    ::
         :: -> dispersion             -0.050117275079 Eh    ::
         :: repulsion energy           1.089683512048 Eh    ::

    * Orbital Energies and Occupations

         #    Occupation            Energy/Eh            Energy/eV
      -------------------------------------------------------------
         1        2.0000           -0.7660683             -20.8458
       ...           ...                  ...                  ...
        51        2.0000           -0.4564926             -12.4218
        52        2.0000           -0.4530185             -12.3273
        53        2.0000           -0.4423378             -12.0366
        54        2.0000           -0.4398341             -11.9685
        55        2.0000           -0.4326401             -11.7727
        56        2.0000           -0.4293754             -11.6839
        57        2.0000           -0.4225911             -11.4993
        58        2.0000           -0.4205292             -11.4432
        59        2.0000           -0.4182370             -11.3808
        60        2.0000           -0.4144355             -11.2774
        61        2.0000           -0.4057394             -11.0407
        62        2.0000           -0.3951120             -10.7515
        63        2.0000           -0.3499353              -9.5222 (HOMO)
        64                         -0.2861481              -7.7865 (LUMO)
        65                         -0.2781170              -7.5679
        66                         -0.2432318              -6.6187
        67                         -0.2344906              -6.3808
        68                         -0.2222939              -6.0489
        69                         -0.2198111              -5.9814
        70                         -0.2042491              -5.5579
        71                         -0.1910593              -5.1990
        72                         -0.1074202              -2.9231
        73                         -0.0965086              -2.6261
        74                         -0.0775964              -2.1115
       ...                                ...                  ...
       118                          0.6896096              18.7652
      -------------------------------------------------------------
                  HL-Gap            0.0637873 Eh            1.7357 eV

     #   Z          covCN         q      C6AA      α(0)
     1   6 C        3.759    -0.134    23.119     6.855
     2   6 C        2.832     0.253    22.750     7.816
     3   7 N        1.838    -0.271    27.876     7.824
     4   6 C        2.974     0.097    25.846     8.339
     5   6 C        2.923    -0.053    29.323     8.880
     6   6 C        2.920     0.075    26.318     8.413
     7   7 N        2.751    -0.065    22.507     7.046
     8   6 C        2.922     0.041    27.072     8.532
     9   6 C        2.924    -0.059    29.461     8.901
    10   6 C        2.919    -0.038    28.943     8.822
    11   6 C        2.919    -0.038    28.956     8.824
    12   6 C        2.920    -0.055    29.375     8.888
    13   6 C        2.885     0.126    25.234     8.235
    14   8 O        1.709    -0.251    18.163     5.754
    15   6 C        2.885     0.126    25.235     8.236
    16   6 C        2.920    -0.055    29.371     8.887
    17   6 C        2.919    -0.038    28.957     8.824
    18   6 C        2.919    -0.038    28.935     8.821
    19   6 C        2.924    -0.059    29.464     8.902
    20   6 C        2.920     0.041    27.070     8.532
    21   6 C        2.920    -0.041    29.023     8.834
    22   6 C        2.917    -0.021    28.522     8.758
    23   6 C        2.974    -0.049    29.221     8.867
    24   6 C        2.718     0.347    21.101     7.520
    25   8 O        0.857    -0.380    21.290     6.186
    26   8 O        1.708    -0.244    18.045     5.735
    27   1 H        0.925     0.085     1.927     2.171
    28   1 H        0.925     0.085     1.927     2.171
    29   1 H        0.925     0.084     1.935     2.176
    30   1 H        0.926     0.068     2.108     2.270
    31   1 H        0.926     0.036     2.504     2.474
    32   1 H        0.926     0.039     2.463     2.454
    33   1 H        0.926     0.041     2.436     2.441
    34   1 H        0.926     0.053     2.284     2.363
    35   1 H        0.926     0.053     2.284     2.363
    36   1 H        0.926     0.041     2.437     2.441
    37   1 H        0.926     0.039     2.463     2.454
    38   1 H        0.926     0.037     2.484     2.465
    39   1 H        0.926     0.054     2.265     2.353
    40   1 H        0.926     0.067     2.118     2.276

molecular dipole:
                 x           y           z       tot (Debye)
 q only:       -0.509       0.543      -1.056
   full:       -0.350       0.441      -0.860       2.613

 projected vibrational frequencies (cm⁻¹)
eigval :       -0.00    -0.00    -0.00     0.00     0.00     0.00
eigval :       26.92    30.22    36.85    52.88    77.82    96.97
eigval :      122.80   127.01   142.06   156.57   170.94   233.64
eigval :      249.39   272.33   277.85   285.82   297.02   307.96
eigval :      378.99   395.80   413.66   429.06   434.59   442.17
eigval :      453.46   500.60   509.47   515.24   526.23   535.01
eigval :      559.20   561.22   585.87   619.13   640.13   658.55
eigval :      659.89   662.19   671.13   682.98   743.01   756.51
eigval :      779.40   779.90   803.33   838.76   856.51   859.54
eigval :      864.46   869.08   891.07   899.48   903.85   915.47
eigval :      916.94   918.15   930.32   970.77   972.91   989.94
eigval :     1014.94  1044.34  1091.09  1091.71  1109.24  1114.23
eigval :     1130.08  1163.27  1175.33  1183.49  1188.37  1200.19
eigval :     1203.04  1217.35  1235.30  1245.31  1261.95  1264.36
eigval :     1310.16  1315.16  1334.42  1344.09  1357.47  1376.75
eigval :     1419.67  1430.86  1436.92  1438.08  1441.63  1455.82
eigval :     1485.87  1502.50  1534.86  1568.76  1574.57  1580.25
eigval :     1591.10  1602.20  1650.43  1760.25  3020.67  3032.12
eigval :     3079.73  3091.42  3091.67  3093.77  3100.45  3101.25
eigval :     3104.91  3107.40  3109.28  3114.27  3114.56  3114.80

   temp. (K)  partition function   enthalpy   heat capacity  entropy
                                   cal/mol     cal/K/mol   cal/K/mol   J/K/mol
 298.15  VIB  0.426E+08            11104.596     72.922     66.908
         ROT  0.125E+08              888.752      2.981     35.463
         INT  0.534E+15            11993.349     75.903    102.370
         TR   0.613E+28             1481.254      4.968     43.367
         TOT                       13474.6028    80.8711   145.7371   609.7642

       T/K    H(0)-H(T)+PV         H(T)/Eh          T*S/Eh         G(T)/Eh
   ------------------------------------------------------------------------
    298.15    0.214731E-01    0.315313E+00    0.692444E-01    0.246068E+00
   ------------------------------------------------------------------------

         :::::::::::::::::::::::::::::::::::::::::::::::::::::
         ::                  THERMODYNAMIC                  ::
         :::::::::::::::::::::::::::::::::::::::::::::::::::::
         :: total free energy         -69.960663531392 Eh   ::
         ::.................................................::
         :: total energy              -70.206731915057 Eh   ::
         :: zero point energy           0.293839655688 Eh   ::
         :: G(RRHO) w/o ZPVE           -0.047771272023 Eh   ::
         :: G(RRHO) contrib.            0.246068383665 Eh   ::
         :::::::::::::::::::::::::::::::::::::::::::::::::::::

           -------------------------------------------------
          | TOTAL ENERGY              -70.206731915057 Eh   |
          | TOTAL ENTHALPY            -69.891419113060 Eh   |
          | TOTAL FREE ENERGY         -69.960663531392 Eh   |
          | GRADIENT NORM               0.000081139029 Eh/α |
          | HOMO-LUMO GAP               1.735739851147 eV   |
           -------------------------------------------------

 * finished run on 2025/09/04 at 09:12:49.861
