   * xtb version 6.7.1 (edcfbbe) compiled by 'albert@albert-system' on 2024-07-22

   ID    Z sym.   atoms
    1    6 C      1-6, 8-32, 34-54
    2    7 N      7, 33
    3    1 H      55-102

          program call               : xtb data2507/gas/DMACN-B/DMACN-B_gas_T1_crest.xyz --gfn 2 --spinpol --tblite --uhf 2 --ohess vtight --parallel 40 --molden --ceasefiles --namespace data2507/gas/DMACN-B/DMACN-B_gas_T1_finalOpt
 * total energy  :  -141.6808039 Eh     change       -0.1372899E-07 Eh
 * total energy  :  -141.6808311 Eh     change       -0.2719972E-04 Eh
 * total energy  :  -141.6808390 Eh     change       -0.7873743E-05 Eh
 * total energy  :  -141.6808400 Eh     change       -0.1017277E-05 Eh
 * total energy  :  -141.6808408 Eh     change       -0.7532177E-06 Eh
 * total energy  :  -141.6808406 Eh     change        0.1589316E-06 Eh
 * total energy  :  -141.6808411 Eh     change       -0.5269960E-06 Eh
 * total energy  :  -141.6808416 Eh     change       -0.4407323E-06 Eh
 * total energy  :  -141.6808415 Eh     change        0.2741012E-07 Eh
 * total energy  :  -141.6808419 Eh     change       -0.3543495E-06 Eh
 * total energy  :  -141.6808429 Eh     change        0.7574744E-07 Eh
 * total energy  :  -141.6808432 Eh     change       -0.2734307E-06 Eh
 * total energy  :  -141.6808434 Eh     change       -0.1963797E-06 Eh
 * total energy  :  -141.6808434 Eh     change       -0.1387340E-07 Eh
 * total energy  :  -141.6808436 Eh     change       -0.1722439E-06 Eh
 * total energy  :  -141.6808437 Eh     change       -0.1022773E-06 Eh
 * total energy  :  -141.6808437 Eh     change       -0.1406940E-07 Eh
 * total energy  :  -141.6808438 Eh     change       -0.1121475E-06 Eh
 * total energy  :  -141.6808439 Eh     change       -0.9563016E-07 Eh
   *** GEOMETRY OPTIMIZATION CONVERGED AFTER 26 ITERATIONS ***

 final structure:
================
102
 xtb: 6.7.1 (edcfbbe)
C           -5.99795481987786       -5.40531184382078        0.45583531235725
C           -5.19240491130179       -4.15910014311067        0.25484405405264
C           -4.09987164975291       -3.88696877499705        1.07388869959531
C           -3.33516409676614       -2.74537189858866        0.92409269106349
C           -2.21238785450465       -2.51457764533855        1.89506611720527
C           -3.66487206538859       -1.82760970778602       -0.09273046731201
N           -2.88754575801633       -0.67756400046691       -0.28702441057679
C           -1.51748996726478       -0.77647299308057       -0.30521912111045
C           -0.85897243315194       -1.94140555744990       -0.81680578136038
C            0.49258040126222       -1.98887478895887       -0.87638839544936
C            1.29285953050899       -0.88982388360621       -0.43358039288833
C            0.63629310173848        0.30551468052668        0.02534991796744
C           -0.71920856403337        0.32243686112788        0.11055498334980
C            1.46646648981946        1.48445566190031        0.48103645574480
C            1.67707673461573        1.44838633651301        1.99107983423792
C            2.06264198326026        2.59484433810326        2.68225221773115
C            2.30652488032424        2.55276373216339        4.04165088702032
C            2.18051967595942        1.36331163000798        4.73954512330626
C            1.80500296123921        0.21613356584644        4.06047938944115
C            1.55650908879645        0.25908731325276        2.70107355487454
C            0.71943870957007        2.71449223190600       -0.00513854140478
C            0.84830081857340        3.10906556695212       -1.33332779470922
C            0.10145145222270        4.15674174296073       -1.83653009740429
C           -0.80168876912629        4.82409203459769       -1.02304061654530
C           -0.94893872859502        4.42991098087178        0.29498253959628
C           -0.19799905119312        3.38442437193587        0.80070096164860
C            2.86630706724852        1.42705761000183       -0.09468751084099
C            3.66424779003229        2.56034021433949       -0.13727105158679
C            4.96480983695546        2.49281876964305       -0.59377059933679
C            5.48882920075894        1.28549765147690       -1.04745057208750
C            4.72163610265051        0.13711471483930       -1.03412340251395
C            3.41583498062027        0.20829630714434       -0.52511192009236
N            2.65676156845811       -0.95571011693388       -0.45238394950109
C            3.35000987346958       -2.14294899653918       -0.23649281327741
C            2.80031545383841       -3.14496794868897        0.57652495961545
C            3.51150758379098       -4.29510871558117        0.83226764977993
C            4.78221770493591       -4.45821506703972        0.30111824954118
C            5.34120497430857       -3.45244663552422       -0.48129690211365
C            4.64518290053912       -2.29290163037218       -0.76153558904789
C            5.16316323370691       -1.17908833354512       -1.64584966802352
C            6.67469609983286       -1.25261295333351       -1.86005685876508
C            4.47442571773213       -1.30537855020644       -3.02310284661465
C           -3.46386334108559        0.59607772850039       -0.43816295205596
C           -4.42673281120092        1.05474011467832        0.48321359499258
C           -4.91295804123741        0.19983262595781        1.61551363295120
C           -4.91341541319874        2.34535573734212        0.36015467349908
C           -4.48493444989085        3.20317866253102       -0.64147127472754
C           -4.99930105608711        4.60510575011940       -0.74882604245804
C           -3.55358224860720        2.72462611898958       -1.55754676287501
C           -3.03871886115779        1.44507956483977       -1.47891290352617
C           -2.07239212739317        1.01010992214000       -2.54211491492524
C           -4.77454291495819       -2.08193536852067       -0.92529346579726
C           -5.16439097223331       -1.15314983292436       -2.03629344180358
C           -5.51117159952134       -3.23853206397577       -0.73116674495240
H           -6.76162247629451       -5.50344460364864       -0.31155207102889
H           -5.35552443733026       -6.28453764542261        0.42426048847831
H           -6.48685035797001       -5.38761693400540        1.43009410474241
H           -3.84953959133536       -4.58357939707839        1.86154344898875
H           -1.29151918732911       -2.97144297810345        1.53216397999439
H           -2.45829559221665       -2.97038962323817        2.85253268244502
H           -2.01580923193719       -1.45665740998603        2.05232798078442
H           -1.46196024425667       -2.75179831799201       -1.19874507140241
H            0.99385689185226       -2.84279929668209       -1.30777824129108
H           -1.22689597103409        1.18436028104865        0.51503663312256
H            2.16651162825224        3.53160297402483        2.15627481689271
H            2.59965404995369        3.45492438046150        4.55928081590526
H            2.37380227941350        1.33044160198556        5.80152343898719
H            1.70433225305997       -0.71937348764745        4.59178883607075
H            1.25803488709721       -0.64578804016849        2.19293872824010
H            1.54132341330110        2.58654576249826       -1.97837618882325
H            0.21846658482587        4.44978854490104       -2.87002740146524
H           -1.38596519370382        5.64259165333112       -1.41707555780510
H           -1.65799437894264        4.93383161782201        0.93606868648283
H           -0.33113647081358        3.08370038073147        1.82992779037731
H            3.25716840756635        3.50874110426584        0.17746579662371
H            5.57435763150815        3.38306987737529       -0.62060331651369
H            6.49721900329088        1.26955038054566       -1.42566138048922
H            1.82900137758671       -2.99290523716304        1.02184679985783
H            3.08222152394135       -5.06295319928569        1.45870455941008
H            5.34469867295848       -5.35724414156866        0.50017597749323
H            6.33646482294794       -3.59801050589882       -0.86830742448597
H            7.20528088543835       -1.16185251744460       -0.91495487801598
H            6.94279255827047       -2.19575571179159       -2.32910655554626
H            6.99980899805256       -0.45930340636580       -2.52794905280265
H            4.74109759024844       -2.25353973332722       -3.48565147974054
H            4.79337169559381       -0.49395283177957       -3.67411544441059
H            3.39219731117160       -1.26227560793326       -2.92578227072061
H           -5.58285285108582       -0.58315208388066        1.25961348936080
H           -4.08341519209067       -0.28118576874582        2.12889895892878
H           -5.45575454654432        0.80932018287987        2.33453271481664
H           -5.64264426614133        2.69520011575965        1.07788270735894
H           -4.18357765054007        5.31501204553666       -0.61370291279492
H           -5.43008916626047        4.78008632064818       -1.73414703994938
H           -5.75883281163457        4.80186030479251        0.00369754006074
H           -3.22404290208915        3.36927038008822       -2.35932486694520
H           -2.05225589391311       -0.06947510016249       -2.66763806363535
H           -2.34554160709210        1.46831987611337       -3.49116161702924
H           -1.06333243761336        1.33746351087204       -2.29110371571883
H           -5.85479745057179       -1.65315334864947       -2.71209666319820
H           -4.29466565472113       -0.83366134183837       -2.60555177899498
H           -5.65514850696007       -0.25957169302860       -1.65012415645072
H           -6.35690635293409       -3.42958312856343       -1.37714805905368

 projected vibrational frequencies (cm⁻¹)
eigval :       -0.00    -0.00    -0.00    -0.00    -0.00     0.00
eigval :       12.48    17.52    19.22    24.31    28.56    33.62
eigval :       35.52    38.65    44.53    45.68    55.97    60.81
eigval :       62.81    71.50    80.71    84.69    89.17   100.22
eigval :      111.35   119.45   132.88   154.04   163.18   167.64
eigval :      172.52   176.10   177.42   183.48   185.83   192.45
eigval :      199.62   204.63   207.64   212.20   213.24   221.99
eigval :      225.00   239.94   247.41   262.30   267.75   276.34
eigval :      279.33   282.14   284.61   297.03   303.89   304.36
eigval :      322.42   325.11   337.79   344.96   351.42   362.04
eigval :      365.97   371.84   382.23   384.39   390.33   406.28
eigval :      422.98   430.50   439.02   447.57   456.96   467.15
eigval :      476.73   483.87   490.20   493.13   493.50   494.02
eigval :      497.87   504.74   520.20   526.25   528.05   542.25
eigval :      550.85   566.18   574.28   577.25   578.70   587.87
eigval :      589.34   591.60   595.70   598.93   611.95   616.24
eigval :      625.25   646.76   648.09   657.11   665.94   667.64
eigval :      672.87   680.18   695.21   727.14   731.71   751.53
eigval :      756.10   759.50   784.11   793.24   816.07   838.41
eigval :      840.43   841.96   856.42   862.71   868.96   870.94
eigval :      877.91   879.17   883.46   884.71   885.53   886.25
eigval :      886.91   892.11   899.72   901.35   905.83   910.09
eigval :      914.20   923.54   926.22   927.01   929.15   938.31
eigval :      950.81   965.55   966.61   970.29   974.65   975.19
eigval :      978.91   989.90   995.83  1006.65  1012.30  1017.28
eigval :     1022.39  1027.01  1027.42  1030.78  1032.07  1033.17
eigval :     1033.61  1038.87  1041.98  1047.76  1052.77  1071.43
eigval :     1084.03  1086.69  1093.03  1108.44  1119.88  1126.81
eigval :     1131.00  1134.88  1142.38  1148.32  1169.15  1171.97
eigval :     1180.36  1180.65  1181.69  1182.21  1193.62  1196.34
eigval :     1201.00  1205.51  1210.77  1216.23  1226.09  1240.16
eigval :     1242.14  1243.83  1245.23  1262.01  1269.42  1271.12
eigval :     1276.72  1287.80  1290.98  1301.46  1307.04  1322.30
eigval :     1324.95  1327.05  1327.82  1332.98  1334.48  1338.27
eigval :     1344.63  1353.36  1378.57  1389.28  1396.12  1397.74
eigval :     1400.95  1403.93  1405.02  1407.27  1408.84  1412.30
eigval :     1413.69  1416.42  1426.09  1429.49  1435.49  1438.94
eigval :     1440.17  1441.06  1443.50  1459.10  1468.92  1472.04
eigval :     1479.39  1479.67  1480.05  1480.79  1481.17  1482.68
eigval :     1484.82  1485.13  1486.01  1486.61  1488.71  1491.04
eigval :     1492.04  1493.35  1493.95  1494.66  1505.19  1510.83
eigval :     1511.61  1513.22  1525.84  1526.75  1550.99  1553.70
eigval :     1554.58  1557.12  1569.93  1573.80  1576.42  1604.47
eigval :     2995.81  2996.07  2996.95  2997.63  2998.79  3000.51
eigval :     3012.95  3013.49  3022.48  3024.02  3024.95  3026.43
eigval :     3031.99  3032.20  3032.70  3035.85  3036.33  3038.24
eigval :     3038.95  3040.29  3040.91  3041.46  3042.90  3048.63
eigval :     3064.92  3066.32  3067.86  3068.30  3069.64  3072.36
eigval :     3073.51  3073.94  3075.07  3077.41  3080.84  3081.87
eigval :     3083.87  3085.65  3087.34  3088.49  3088.68  3090.36
eigval :     3093.58  3095.42  3098.84  3100.03  3111.94  3117.25

   temp. (K)  partition function   enthalpy   heat capacity  entropy
                                   cal/mol     cal/K/mol   cal/K/mol   J/K/mol
 298.15  VIB  0.100E+23            29428.208    182.688    181.720
         ROT  0.772E+08              888.752      2.981     39.073
         INT  0.775E+30            30316.960    185.669    220.793
         TR   0.180E+29             1481.254      4.968     45.502
         TOT                       31798.2143   190.6371   266.2949  1114.1778

       T/K    H(0)-H(T)+PV         H(T)/Eh          T*S/Eh         G(T)/Eh
   ------------------------------------------------------------------------
    298.15    0.506737E-01    0.878244E+00    0.126525E+00    0.751719E+00
   ------------------------------------------------------------------------

         :::::::::::::::::::::::::::::::::::::::::::::::::::::
         ::                  THERMODYNAMIC                  ::
         :::::::::::::::::::::::::::::::::::::::::::::::::::::
         :: total free energy        -140.929124737169 Eh   ::
         ::.................................................::
         :: total energy             -141.680843786666 Eh   ::
         :: zero point energy           0.827570663413 Eh   ::
         :: G(RRHO) w/o ZPVE           -0.075851613915 Eh   ::
         :: G(RRHO) contrib.            0.751719049498 Eh   ::
         :::::::::::::::::::::::::::::::::::::::::::::::::::::

           -------------------------------------------------
          | TOTAL ENERGY             -141.680843786666 Eh   |
          | TOTAL ENTHALPY           -140.802599443322 Eh   |
          | TOTAL FREE ENERGY        -140.929124737169 Eh   |
          | GRADIENT NORM               0.000155473552 Eh/α |
           -------------------------------------------------

 * finished run on 2025/09/13 at 08:30:53.819
