   * xtb version 6.7.1 (edcfbbe) compiled by 'albert@albert-system' on 2024-07-22

   ID    Z sym.   atoms
    1    6 C      1-6, 8-32, 34-54
    2    7 N      7, 33
    3    1 H      55-102

          program call               : xtb data2507/gas/DMACN-B/DMACN-B_gas_S0_finalOpt.xtbopt.xyz --gfn 2 --spinpol --tblite --uhf 2 --ohess vtight --parallel 40 --molden --ceasefiles --namespace data2507/gas/DMACN-B/DMACN-B_gas_T1_preOpt
 * total energy  :  -141.6740628 Eh     change        0.6528131E-07 Eh
 * total energy  :  -141.6779879 Eh     change       -0.3925129E-02 Eh
 * total energy  :  -141.6793529 Eh     change       -0.1365021E-02 Eh
 * total energy  :  -141.6794767 Eh     change       -0.1238381E-03 Eh
 * total energy  :  -141.6795769 Eh     change       -0.1001865E-03 Eh
 * total energy  :  -141.6796249 Eh     change       -0.4796739E-04 Eh
 * total energy  :  -141.6797115 Eh     change       -0.8658185E-04 Eh
 * total energy  :  -141.6797779 Eh     change       -0.6642828E-04 Eh
 * total energy  :  -141.6798215 Eh     change       -0.4356939E-04 Eh
 * total energy  :  -141.6798568 Eh     change       -0.3531175E-04 Eh
 * total energy  :  -141.6808422 Eh     change       -0.5601107E-06 Eh
 * total energy  :  -141.6808425 Eh     change       -0.3402351E-06 Eh
 * total energy  :  -141.6808427 Eh     change       -0.2020299E-06 Eh
 * total energy  :  -141.6808429 Eh     change       -0.1315271E-06 Eh
 * total energy  :  -141.6808434 Eh     change       -0.5086142E-06 Eh
 * total energy  :  -141.6808435 Eh     change       -0.1128417E-06 Eh
 * total energy  :  -141.6808436 Eh     change       -0.1281127E-06 Eh
 * total energy  :  -141.6808437 Eh     change       -0.4157695E-07 Eh
 * total energy  :  -141.6808438 Eh     change       -0.8406229E-07 Eh
   *** GEOMETRY OPTIMIZATION CONVERGED AFTER 128 ITERATIONS ***

 final structure:
================
102
 xtb: 6.7.1 (edcfbbe)
C           -5.94109280587375       -5.47163883689486        0.44141881610794
C           -5.15937753958606       -4.20651497911901        0.26688327230624
C           -4.05192239434875       -3.94315721819217        1.06788725731889
C           -3.29852416610486       -2.79282400736708        0.92560081159518
C           -2.15847501053496       -2.57262095889980        1.87871379864681
C           -3.65557489289544       -1.85728637272988       -0.06529417840802
N           -2.89167121229443       -0.69689828949710       -0.25088488664903
C           -1.52147485212461       -0.78391068451044       -0.29795885964746
C           -0.86386265731061       -1.93187086232245       -0.84759176069639
C            0.48661119767692       -1.96723651630655       -0.93359145788537
C            1.28686501634460       -0.87206889459880       -0.48085904418438
C            0.62987184624372        0.30783338349274        0.01597706224332
C           -0.72387662588545        0.31222052478736        0.12644219260340
C            1.45912454314920        1.48330576801255        0.48233803064417
C            1.69369521750661        1.41793145183487        1.98785222557384
C            2.07963468870571        2.55316840030980        2.69705425197307
C            2.34456883455902        2.48492741612196        4.05146175080593
C            2.23979621416635        1.28005541958197        4.72598411521047
C            1.86444498578622        0.14385465143763        4.02863556841493
C            1.59489430489953        0.21292666991336        2.67432482531157
C            0.69578245982100        2.71739797925913        0.03303702570989
C            0.80148644809915        3.14016562210647       -1.28851519940993
C            0.03995161911885        4.19270338740192       -1.75844947597586
C           -0.85497887871996        4.83681523556471       -0.91761681989934
C           -0.97940580287375        4.41439448527022        0.39400036660662
C           -0.21379055702018        3.36399253775527        0.86640913248907
C            2.84997452742343        1.44810671771476       -0.11640651660675
C            3.63960112039484        2.58756685247474       -0.14582695151485
C            4.93323843109911        2.53947213278129       -0.62399411938801
C            5.45782442264140        1.34642591310104       -1.11335028433683
C            4.69849271492872        0.19281373315337       -1.11432436729983
C            3.40052598584310        0.24320246531788       -0.58302199408141
N            2.65066908044103       -0.92753396026682       -0.52434077163348
C            3.35543164882037       -2.11447629412447       -0.34715732478143
C            2.82622294331904       -3.13858879192450        0.45179809821609
C            3.54885842780250       -4.28959525821469        0.66856520500968
C            4.81121825052155       -4.43192511584877        0.11211996005504
C            5.35047422389866       -3.40449965432355       -0.65581474304964
C            4.64249765059079       -2.24340975252454       -0.89711667541433
C            5.13866705991139       -1.10581982072228       -1.76349262940805
C            6.64698227987815       -1.16400185091653       -2.00361342302705
C            4.42848900056848       -1.20483194991584       -3.13206065692971
C           -3.48076903742747        0.57484355601239       -0.36363840749846
C           -4.42876704234920        1.00623645881055        0.58592911844355
C           -4.88575604160757        0.12390787666210        1.70935387340634
C           -4.92757248781972        2.29523249821827        0.49983983439397
C           -4.52527529116793        3.17744164139606       -0.49141164893324
C           -5.05304884589733        4.57684932508163       -0.55979038772186
C           -3.60850273556149        2.72579436552450       -1.43546227325521
C           -3.08259452026875        1.44901636403905       -1.39421165989027
C           -2.13403341414924        1.04426740284792       -2.48497272656915
C           -4.78027892041186       -2.10332452493785       -0.88014697209666
C           -5.19997272701312       -1.15479915528154       -1.96327268282533
C           -5.50442697228390       -3.26880271047314       -0.69438175330925
H           -6.89886184838197       -5.41130709818648       -0.06953272465449
H           -5.38689833318962       -6.31638944196297        0.03031844500976
H           -6.11686955531617       -5.67281505176666        1.49684021954526
H           -3.78031348466704       -4.65294894956476        1.83651504611177
H           -1.24106215324576       -3.01281140673380        1.48755489028718
H           -2.38082430870176       -3.05132993020566        2.83074224313142
H           -1.96824778426621       -1.51654362972074        2.05510186820813
H           -1.46784877714750       -2.73845631100254       -1.23602458228295
H            0.98618502449537       -2.80722566033466       -1.39335754857814
H           -1.23045204896126        1.16118674517276        0.55875609951793
H            2.16707696256219        3.50167679075598        2.18945834815585
H            2.63742607592709        3.37876373067278        4.58348614908595
H            2.44944628894016        1.22680428500403        5.78402753533260
H            1.78046844142184       -0.80350470525391        4.54152633769854
H            1.29709149417077       -0.68390589703907        2.15173364951593
H            1.48800078479098        2.63599101375884       -1.95476104583920
H            0.13918843447292        4.50789690866460       -2.78727865731057
H           -1.45054401530437        5.65931475042916       -1.28557692786879
H           -1.68187092316722        4.89999239059753        1.05612129281245
H           -0.32912971668237        3.04127258959133        1.89110796261600
H            3.23128501519156        3.52575618094974        0.19669276100410
H            5.53646407610704        3.43427702108016       -0.63998824039711
H            6.46018720407132        1.34609535590640       -1.50760461181174
H            1.86183392315087       -3.00333614665833        0.91714920946464
H            3.13518532762732       -5.07453194174069        1.28422738056065
H            5.38258915743587       -5.33163748362763        0.28044478176653
H            6.33988518577330       -3.53431085666003       -1.06289248988674
H            7.19219876348816       -1.09244928341845       -1.06521518874633
H            6.91339152098353       -2.09378434565070       -2.49953516657354
H            6.95627152339796       -0.35272294573780       -2.65726926212882
H            4.69311496221826       -2.14048687639335       -3.62051643338223
H            4.73213815966043       -0.37675347238627       -3.76926776480078
H            3.34774962496500       -1.17062600247257       -3.01636244211002
H           -5.55529114731602       -0.65791809696921        1.35029732688003
H           -4.04228507669933       -0.35968668591556        2.19701167940703
H           -5.42012242260305        0.71355151099292        2.45087085215356
H           -5.64513833704034        2.62399297965989        1.23895089981028
H           -5.78555598494970        4.75736634176090        0.22297324812168
H           -4.23804131054882        5.29112777124208       -0.44563220636391
H           -5.52186146218825        4.76175105954374       -1.52584942671819
H           -3.29951462183334        3.38994793077122       -2.22945707719596
H           -1.12228980779494        1.37218425360219       -2.24577238137217
H           -2.10999360697055       -0.03209176229700       -2.63521475636607
H           -2.42785116201943        1.52194902760987       -3.41809609579654
H           -5.90084148411113       -1.64597860189287       -2.63476661455431
H           -4.34459584801419       -0.81723581081431       -2.54374423181174
H           -5.68876184519379       -0.27303293755572       -1.54855678577473
H           -6.36237739510461       -3.45326458896603       -1.32600351251405

 projected vibrational frequencies (cm⁻¹)
eigval :       -0.00    -0.00    -0.00    -0.00     0.00     0.00
eigval :       12.29    17.50    19.01    24.33    28.22    33.84
eigval :       35.65    38.54    44.54    45.53    55.93    60.51
eigval :       62.76    71.16    80.66    84.51    89.10   100.64
eigval :      111.18   119.31   132.75   154.02   162.91   167.74
eigval :      172.48   176.38   177.67   183.48   185.76   192.46
eigval :      199.47   204.57   207.54   212.14   213.28   221.98
eigval :      224.88   239.98   247.40   262.29   267.74   276.23
eigval :      279.55   282.68   284.56   297.17   303.81   304.34
eigval :      322.25   324.98   337.76   344.79   351.29   362.25
eigval :      366.01   371.87   382.32   384.47   390.27   406.27
eigval :      423.00   430.75   438.91   447.16   456.58   467.42
eigval :      476.79   484.15   490.19   493.38   494.13   494.26
eigval :      497.73   504.83   520.24   526.37   528.07   541.14
eigval :      550.75   566.17   574.14   577.29   578.81   588.02
eigval :      589.33   591.63   595.64   599.32   611.90   616.43
eigval :      625.26   646.76   648.17   657.30   665.89   667.91
eigval :      672.96   680.19   695.39   727.86   731.86   751.67
eigval :      756.11   759.46   783.89   793.22   816.20   838.33
eigval :      840.30   842.05   856.50   862.45   868.84   870.97
eigval :      877.97   879.16   883.36   884.67   885.75   886.32
eigval :      886.91   892.13   900.05   901.43   906.05   910.06
eigval :      914.23   923.62   926.11   926.97   929.18   938.52
eigval :      951.03   965.67   966.77   970.44   974.68   975.42
eigval :      979.02   990.18   995.99  1006.64  1012.23  1017.13
eigval :     1022.43  1027.35  1027.93  1030.21  1031.86  1033.13
eigval :     1033.60  1038.77  1042.07  1047.79  1052.84  1071.28
eigval :     1084.77  1086.97  1093.42  1108.69  1120.07  1126.95
eigval :     1131.17  1135.04  1142.42  1148.43  1169.25  1172.00
eigval :     1180.38  1180.82  1181.77  1182.25  1193.72  1196.84
eigval :     1201.03  1205.76  1210.99  1216.30  1226.36  1240.25
eigval :     1242.23  1243.90  1245.20  1261.99  1269.39  1271.46
eigval :     1276.61  1287.83  1291.00  1301.58  1307.24  1322.33
eigval :     1325.46  1327.08  1327.82  1331.67  1334.01  1338.17
eigval :     1344.69  1353.40  1378.52  1389.01  1396.04  1397.69
eigval :     1400.81  1403.97  1405.05  1407.17  1408.83  1412.33
eigval :     1413.59  1415.87  1426.08  1429.50  1435.65  1439.06
eigval :     1440.23  1441.56  1443.78  1458.88  1468.87  1472.00
eigval :     1479.02  1479.67  1479.99  1481.05  1481.83  1482.64
eigval :     1485.07  1485.75  1485.93  1486.49  1488.59  1491.17
eigval :     1492.06  1493.34  1493.96  1494.55  1505.32  1510.28
eigval :     1511.26  1512.76  1525.87  1526.78  1551.26  1553.67
eigval :     1554.81  1556.43  1570.24  1574.29  1577.03  1604.65
eigval :     2990.44  2996.10  2997.16  2997.86  2998.98  3000.56
eigval :     3013.00  3020.99  3022.80  3024.24  3025.03  3026.50
eigval :     3031.94  3032.25  3032.68  3035.98  3036.41  3038.26
eigval :     3038.93  3040.53  3040.83  3040.90  3041.63  3048.77
eigval :     3064.99  3066.52  3068.19  3068.39  3069.64  3072.38
eigval :     3073.32  3073.62  3075.13  3077.44  3080.89  3081.95
eigval :     3083.84  3085.67  3087.29  3088.48  3088.70  3090.11
eigval :     3093.39  3095.33  3098.83  3099.78  3111.93  3117.23

   temp. (K)  partition function   enthalpy   heat capacity  entropy
                                   cal/mol     cal/K/mol   cal/K/mol   J/K/mol
 298.15  VIB  0.105E+23            29429.111    182.665    181.757
         ROT  0.772E+08              888.752      2.981     39.073
         INT  0.809E+30            30317.864    185.646    220.830
         TR   0.180E+29             1481.254      4.968     45.502
         TOT                       31799.1174   190.6141   266.3320  1114.3333

       T/K    H(0)-H(T)+PV         H(T)/Eh          T*S/Eh         G(T)/Eh
   ------------------------------------------------------------------------
    298.15    0.506751E-01    0.878267E+00    0.126543E+00    0.751724E+00
   ------------------------------------------------------------------------

         :::::::::::::::::::::::::::::::::::::::::::::::::::::
         ::                  THERMODYNAMIC                  ::
         :::::::::::::::::::::::::::::::::::::::::::::::::::::
         :: total free energy        -140.929119804315 Eh   ::
         ::.................................................::
         :: total energy             -141.680843775173 Eh   ::
         :: zero point energy           0.827591798887 Eh   ::
         :: G(RRHO) w/o ZPVE           -0.075867828029 Eh   ::
         :: G(RRHO) contrib.            0.751723970858 Eh   ::
         :::::::::::::::::::::::::::::::::::::::::::::::::::::

           -------------------------------------------------
          | TOTAL ENERGY             -141.680843775173 Eh   |
          | TOTAL ENTHALPY           -140.802576857059 Eh   |
          | TOTAL FREE ENERGY        -140.929119804315 Eh   |
          | GRADIENT NORM               0.000131866238 Eh/α |
           -------------------------------------------------

 * finished run on 2025/09/13 at 08:18:01.449
