   * xtb version 6.7.1 (edcfbbe) compiled by 'albert@albert-system' on 2024-07-22

   ID    Z sym.   atoms
    1    6 C      1-6, 8-32, 34-54
    2    7 N      7, 33
    3    1 H      55-102

          program call               : xtb data2507/gas/DMACN-B/DMACN-B.xyz --gfn 2 --ohess vtight --parallel 40 --molden --ceasefiles --namespace data2507/gas/DMACN-B/DMACN-B_gas_S0_preOpt
          :  Hamiltonian                  GFN2-xTB          :
 * total energy  :  -141.7361913 Eh     change       -0.2819718E-08 Eh
 * total energy  :  -141.7579699 Eh     change       -0.2177856E-01 Eh
 * total energy  :  -141.7683048 Eh     change       -0.1033491E-01 Eh
 * total energy  :  -141.7727391 Eh     change       -0.4434289E-02 Eh
 * total energy  :  -141.7752355 Eh     change       -0.2496383E-02 Eh
 * total energy  :  -141.7763441 Eh     change       -0.1108656E-02 Eh
 * total energy  :  -141.7767983 Eh     change       -0.4541321E-03 Eh
 * total energy  :  -141.7771324 Eh     change       -0.3340943E-03 Eh
 * total energy  :  -141.7774618 Eh     change       -0.3294817E-03 Eh
 * total energy  :  -141.7777675 Eh     change       -0.3056899E-03 Eh
 * total energy  :  -141.7805893 Eh     change       -0.1995654E-06 Eh
 * total energy  :  -141.7805895 Eh     change       -0.2045752E-06 Eh
 * total energy  :  -141.7805895 Eh     change        0.1740545E-09 Eh
 * total energy  :  -141.7805897 Eh     change       -0.1597148E-06 Eh
 * total energy  :  -141.7805898 Eh     change       -0.1166526E-06 Eh
 * total energy  :  -141.7805899 Eh     change       -0.1248999E-06 Eh
 * total energy  :  -141.7805899 Eh     change        0.1338142E-07 Eh
 * total energy  :  -141.7805901 Eh     change       -0.1419877E-06 Eh
 * total energy  :  -141.7805901 Eh     change       -0.5390638E-07 Eh
   *** GEOMETRY OPTIMIZATION CONVERGED AFTER 179 ITERATIONS ***

 final structure:
================
102
 xtb: 6.7.1 (edcfbbe)
C           -5.91312864459091       -5.29832384388366       -0.02809860957030
C           -5.05309604325726       -4.07659280305648       -0.14616883579265
C           -4.01346340807906       -3.84232382282860        0.73836568458823
C           -3.22597105525289       -2.70329802792015        0.66324994604579
C           -2.15470984700112       -2.51776179513482        1.69877200240819
C           -3.46858283398175       -1.76729351276076       -0.35462362257879
N           -2.67490135146910       -0.60929635643299       -0.46356141278174
C           -1.28992382044989       -0.70337545356384       -0.41331839633535
C           -0.61388617218116       -1.83571964814650       -0.87280826269122
C            0.76204363245827       -1.89681549245592       -0.81075546688851
C            1.50112860866867       -0.83567762316372       -0.29072039259190
C            0.83669364107816        0.31280638205215        0.14439324185952
C           -0.54265127451614        0.35842951497329        0.09554585340768
C            1.64444445381213        1.45693905481277        0.72591001990838
C            1.96390364779688        1.18315753482952        2.19517712088108
C            2.82636980399054        2.03417957658312        2.87821718628731
C            3.14832319443335        1.80316926446233        4.20223505775117
C            2.61663547612349        0.71202961523784        4.86873258591460
C            1.75572552929081       -0.13816265340999        4.19950796081629
C            1.43019735034374        0.09628248176629        2.87433649275880
C            0.84027493416785        2.73157298426353        0.54232813036806
C            0.69026653892932        3.24643678613859       -0.74191571958922
C           -0.11962489856390        4.34118135497404       -0.97473319759006
C           -0.80177849039525        4.93586879686791        0.07328937046285
C           -0.65873656765804        4.43151696518870        1.35291175770801
C            0.15555730391191        3.33590409620173        1.58708484540172
C            2.97847587298987        1.52713225813286        0.00250690744810
C            3.66814604208185        2.71838176378855       -0.16168272074827
C            4.94177076124305        2.71973927161050       -0.69865849751487
C            5.53439722028439        1.53422890537199       -1.09998248615017
C            4.85509828339923        0.33261968324868       -0.99309024665908
C            3.57660823229944        0.34099675605538       -0.42462873213877
N            2.89427884766136       -0.86240314574492       -0.28429090140710
C            3.64558855247666       -2.00791594545911       -0.05067461100950
C            3.15977230744039       -3.01924709663183        0.77426832895254
C            3.94562427044253       -4.11633983971076        1.06183616063333
C            5.22928470101862       -4.19738025765129        0.55142082830002
C            5.71880261327507       -3.18458810054319       -0.25662843112523
C            4.93990922789526       -2.08561367772763       -0.58047200489547
C            5.37101625058940       -0.98800170893129       -1.53515698231175
C            6.88078343099307       -0.97412998003025       -1.77278235264028
C            4.66904464420211       -1.24107869503357       -2.88711678293283
C           -3.25335249219933        0.67504920656256       -0.56735192445095
C           -4.23903384569464        1.09196295482381        0.33977654285230
C           -4.73980890253690        0.19791622046643        1.43503539790599
C           -4.75061679283306        2.37554445000017        0.23759455172241
C           -4.30724776341326        3.27078407047490       -0.72476609848746
C           -4.85410813417054        4.66509952881749       -0.77595705137792
C           -3.34640073321034        2.83759424476739       -1.62169252066708
C           -2.82133247415895        1.55546570962413       -1.57055721367272
C           -1.80364622485964        1.16705139502654       -2.60199968715354
C           -4.51856085263535       -1.98983060709398       -1.25949903831965
C           -4.81835488997872       -1.03361674007795       -2.37534701314297
C           -5.29320124431903       -3.13148548079016       -1.13206334463340
H           -6.20662944471845       -5.66061333357951       -1.01112724878042
H           -5.38949936805346       -6.09235729781157        0.49888163002743
H           -6.82204889266356       -5.06428924969925        0.52765429968217
H           -3.81474809841960       -4.55962759271091        1.52260183521375
H           -1.21597436766484       -2.96207760245343        1.36478787525668
H           -2.44927980967319       -3.00762287166732        2.62511715575613
H           -1.96689379658647       -1.46623371048853        1.90363740283207
H           -1.17366038056569       -2.66053065231805       -1.28886674730312
H            1.27899869308517       -2.77027466680035       -1.18045239824401
H           -1.06246263743027        1.22643711288959        0.47154995550166
H            3.24985178739984        2.88683850934691        2.36957375665019
H            3.81891230100059        2.47719331218306        4.71530616655968
H            2.87110151031914        0.52791873473724        5.90211660204575
H            1.33130075223459       -0.99110483361087        4.70929024044077
H            0.74911474999390       -0.57507223403177        2.37301304823218
H            1.21634812023941        2.78015618042806       -1.56373989140532
H           -0.22366906760533        4.72743397030676       -1.97823710059099
H           -1.44301833103230        5.78547951450395       -0.10832861000431
H           -1.18959755068804        4.88632490952265        2.17670390813020
H            0.24743005145491        2.94303624640068        2.58922155505750
H            3.21073810440619        3.64980048550329        0.13872059973178
H            5.47786295349591        3.65063079241557       -0.80715396036493
H            6.52834426349876        1.56664779461761       -1.51513779036371
H            2.17096935082801       -2.92871433710236        1.19818993060345
H            3.56114258465077       -4.90006437359390        1.69763207325745
H            5.85230609700520       -5.04896487721433        0.78008181404199
H            6.72246286644443       -3.27199291548821       -0.64024257567287
H            7.41824590897591       -0.79389841361881       -0.84440915488456
H            7.20495482285236       -1.92262837879842       -2.19316228462723
H            7.14255782823785       -0.20085530912172       -2.49030803544922
H            4.98241448231839       -2.19971946371723       -3.29576813730217
H            4.92734037250044       -0.45526600710922       -3.59418049195654
H            3.58830553558646       -1.25415839965579       -2.76818877708566
H           -5.35840951075030       -0.60531646885484        1.03539963490095
H           -3.91222090352685       -0.25669353557485        1.97419961403972
H           -5.33762806746177        0.77068701951171        2.14030804239792
H           -5.50628513578446        2.69390111025949        0.94241075620329
H           -5.94263437877409        4.65048815992764       -0.80596005314351
H           -4.55311998057941        5.21854063473462        0.11344267074772
H           -4.48714778640437        5.19393124772249       -1.65194581517303
H           -2.99589963569536        3.51035877303648       -2.39145590258983
H           -0.80376550991571        1.44488604789344       -2.26803160691428
H           -1.80258132999887        0.09645216941520       -2.79143920056704
H           -2.00605240836148        1.68937773800582       -3.53523108778801
H           -5.49979989290412       -1.49338463689560       -3.08754507609882
H           -3.90903967953434       -0.75071969802636       -2.89982174328125
H           -5.28188570725166       -0.12219769704749       -1.99832698435324
H           -6.10079308040897       -3.29490842522642       -1.83217330980138

          :  Hamiltonian                  GFN2-xTB          :
         :: gradient norm              0.000053259871 Eh/a0 ::
         :: HOMO-LUMO gap              2.834740914674 eV    ::
         :: SCC energy              -144.362896033325 Eh    ::
         :: -> dispersion             -0.158636228212 Eh    ::
         :: repulsion energy           2.582305922377 Eh    ::

    * Orbital Energies and Occupations

         #    Occupation            Energy/Eh            Energy/eV
      -------------------------------------------------------------
         1        2.0000           -0.6630246             -18.0418
       ...           ...                  ...                  ...
       121        2.0000           -0.3995890             -10.8734
       122        2.0000           -0.3981737             -10.8349
       123        2.0000           -0.3938227             -10.7165
       124        2.0000           -0.3926971             -10.6858
       125        2.0000           -0.3903970             -10.6232
       126        2.0000           -0.3886852             -10.5767
       127        2.0000           -0.3856013             -10.4927
       128        2.0000           -0.3837948             -10.4436
       129        2.0000           -0.3831695             -10.4266
       130        2.0000           -0.3821293             -10.3983
       131        2.0000           -0.3802557             -10.3473
       132        2.0000           -0.3518766              -9.5750
       133        2.0000           -0.3282472              -8.9321 (HOMO)
       134                         -0.2240724              -6.0973 (LUMO)
       135                         -0.2221691              -6.0455
       136                         -0.2201956              -5.9918
       137                         -0.2187332              -5.9520
       138                         -0.2173025              -5.9131
       139                         -0.2171931              -5.9101
       140                         -0.2154944              -5.8639
       141                         -0.2148742              -5.8470
       142                         -0.2136244              -5.8130
       143                         -0.2103403              -5.7237
       144                         -0.2089338              -5.6854
       ...                                ...                  ...
       264                          0.6957559              18.9325
      -------------------------------------------------------------
                  HL-Gap            0.1041748 Eh            2.8347 eV

     #   Z          covCN         q      C6AA      α(0)
     1   6 C        3.758    -0.107    22.592     6.777
     2   6 C        2.961     0.006    27.878     8.660
     3   6 C        2.933    -0.056    29.397     8.892
     4   6 C        2.964    -0.003    28.092     8.694
     5   6 C        3.758    -0.099    22.449     6.755
     6   6 C        2.922     0.042    27.052     8.529
     7   7 N        2.750    -0.073    22.662     7.070
     8   6 C        2.925     0.061    26.641     8.464
     9   6 C        2.921    -0.056    29.382     8.889
    10   6 C        2.920    -0.053    29.312     8.878
    11   6 C        2.931     0.044    27.010     8.523
    12   6 C        2.988    -0.009    28.226     8.715
    13   6 C        2.928    -0.060    29.502     8.907
    14   6 C        3.923     0.011    20.331     6.408
    15   6 C        2.980     0.014    27.703     8.634
    16   6 C        2.925    -0.035    28.867     8.811
    17   6 C        2.920    -0.031    28.763     8.795
    18   6 C        2.920    -0.033    28.813     8.802
    19   6 C        2.920    -0.031    28.765     8.795
    20   6 C        2.924    -0.035    28.882     8.813
    21   6 C        2.980     0.014    27.684     8.631
    22   6 C        2.926    -0.032    28.797     8.800
    23   6 C        2.919    -0.029    28.714     8.787
    24   6 C        2.920    -0.031    28.776     8.797
    25   6 C        2.920    -0.030    28.754     8.793
    26   6 C        2.923    -0.035    28.882     8.813
    27   6 C        2.987    -0.011    28.271     8.722
    28   6 C        2.923    -0.039    28.975     8.827
    29   6 C        2.918    -0.045    29.111     8.848
    30   6 C        2.923    -0.043    29.062     8.841
    31   6 C        2.984    -0.014    28.352     8.734
    32   6 C        2.955     0.049    26.906     8.508
    33   7 N        2.760    -0.061    22.411     7.031
    34   6 C        2.938     0.057    26.729     8.479
    35   6 C        2.922    -0.051    29.268     8.872
    36   6 C        2.919    -0.034    28.847     8.808
    37   6 C        2.919    -0.043    29.067     8.841
    38   6 C        2.923    -0.039    28.978     8.828
    39   6 C        2.984    -0.013    28.332     8.731
    40   6 C        3.911     0.023    20.136     6.378
    41   6 C        3.758    -0.105    22.556     6.771
    42   6 C        3.764    -0.099    22.424     6.750
    43   6 C        2.927     0.042    27.061     8.531
    44   6 C        2.964    -0.003    28.090     8.693
    45   6 C        3.758    -0.104    22.537     6.768
    46   6 C        2.933    -0.057    29.417     8.895
    47   6 C        2.962     0.007    27.858     8.657
    48   6 C        3.758    -0.106    22.571     6.773
    49   6 C        2.933    -0.055    29.366     8.887
    50   6 C        2.965    -0.001    28.053     8.688
    51   6 C        3.758    -0.102    22.497     6.762
    52   6 C        2.965    -0.003    28.099     8.695
    53   6 C        3.758    -0.105    22.553     6.771
    54   6 C        2.932    -0.057    29.407     8.893
    55   1 H        0.925     0.041     2.440     2.443
    56   1 H        0.925     0.040     2.453     2.449
    57   1 H        0.924     0.043     2.403     2.424
    58   1 H        0.925     0.028     2.617     2.530
    59   1 H        0.924     0.042     2.417     2.431
    60   1 H        0.925     0.039     2.460     2.453
    61   1 H        0.925     0.037     2.483     2.464
    62   1 H        0.926     0.029     2.602     2.522
    63   1 H        0.926     0.030     2.581     2.512
    64   1 H        0.926     0.030     2.591     2.517
    65   1 H        0.926     0.033     2.546     2.495
    66   1 H        0.926     0.028     2.611     2.527
    67   1 H        0.926     0.028     2.615     2.529
    68   1 H        0.926     0.028     2.617     2.530
    69   1 H        0.926     0.029     2.604     2.524
    70   1 H        0.925     0.026     2.648     2.545
    71   1 H        0.926     0.028     2.613     2.528
    72   1 H        0.926     0.028     2.608     2.525
    73   1 H        0.926     0.027     2.629     2.535
    74   1 H        0.926     0.029     2.603     2.523
    75   1 H        0.926     0.028     2.612     2.527
    76   1 H        0.926     0.027     2.635     2.538
    77   1 H        0.926     0.034     2.530     2.487
    78   1 H        0.926     0.029     2.602     2.523
    79   1 H        0.926     0.028     2.622     2.532
    80   1 H        0.926     0.026     2.642     2.542
    81   1 H        0.926     0.034     2.535     2.490
    82   1 H        0.925     0.037     2.494     2.470
    83   1 H        0.925     0.039     2.468     2.457
    84   1 H        0.925     0.039     2.468     2.457
    85   1 H        0.925     0.036     2.497     2.471
    86   1 H        0.925     0.036     2.503     2.474
    87   1 H        0.925     0.035     2.512     2.479
    88   1 H        0.925     0.044     2.394     2.419
    89   1 H        0.925     0.045     2.382     2.414
    90   1 H        0.925     0.038     2.479     2.462
    91   1 H        0.925     0.028     2.615     2.529
    92   1 H        0.925     0.042     2.423     2.434
    93   1 H        0.925     0.043     2.405     2.425
    94   1 H        0.925     0.038     2.470     2.458
    95   1 H        0.926     0.028     2.615     2.529
    96   1 H        0.925     0.046     2.372     2.409
    97   1 H        0.925     0.039     2.467     2.456
    98   1 H        0.925     0.039     2.458     2.452
    99   1 H        0.925     0.038     2.478     2.462
   100   1 H        0.925     0.045     2.378     2.412
   101   1 H        0.925     0.044     2.395     2.420
   102   1 H        0.925     0.027     2.625     2.533

molecular dipole:
                 x           y           z       tot (Debye)
 q only:       -0.369       0.023      -0.249
   full:       -0.374       0.031      -0.179       1.057

 projected vibrational frequencies (cm⁻¹)
eigval :       -0.00    -0.00    -0.00    -0.00     0.00     0.00
eigval :       -7.67    11.05    19.40    21.41    25.67    26.67
eigval :       27.99    36.36    43.43    46.45    49.05    56.90
eigval :       63.37    68.78    70.94    83.24    89.48    98.21
eigval :      114.88   120.67   138.29   156.02   165.16   170.09
eigval :      171.86   176.05   176.37   179.85   192.29   202.98
eigval :      206.16   211.05   212.81   214.35   218.69   222.78
eigval :      228.96   248.70   251.22   265.06   268.75   274.94
eigval :      279.78   283.35   286.14   297.04   301.78   309.12
eigval :      320.63   338.49   340.14   352.73   361.51   363.83
eigval :      369.19   375.39   377.19   386.29   395.01   405.80
eigval :      434.57   441.70   447.07   463.36   468.36   480.28
eigval :      488.02   493.81   494.13   495.94   497.87   502.16
eigval :      504.59   525.26   528.32   537.41   538.67   554.94
eigval :      555.73   567.29   579.23   583.70   589.30   590.19
eigval :      595.86   600.13   601.66   607.34   621.04   634.34
eigval :      651.18   655.60   669.21   670.83   676.12   679.94
eigval :      684.97   696.79   710.43   733.45   738.99   757.06
eigval :      761.85   776.91   800.39   820.39   832.66   843.88
eigval :      845.35   873.25   876.04   877.95   881.76   888.79
eigval :      889.46   891.30   894.05   896.91   899.40   904.71
eigval :      905.86   911.57   914.03   919.37   923.66   923.90
eigval :      927.01   928.97   931.23   931.73   936.15   937.89
eigval :      961.33   967.28   967.55   977.82   978.64   979.47
eigval :      997.76  1005.84  1009.52  1019.42  1023.91  1025.88
eigval :     1030.81  1031.35  1032.59  1033.65  1034.57  1036.13
eigval :     1041.03  1043.73  1050.40  1056.03  1075.96  1088.72
eigval :     1091.49  1103.65  1123.84  1126.77  1129.50  1135.54
eigval :     1137.67  1148.44  1151.42  1176.84  1179.55  1182.62
eigval :     1182.75  1185.24  1189.92  1200.62  1201.81  1204.77
eigval :     1210.74  1212.05  1226.20  1233.60  1241.65  1242.76
eigval :     1245.30  1251.85  1259.26  1271.59  1275.53  1283.16
eigval :     1288.89  1290.50  1299.89  1318.27  1318.68  1319.06
eigval :     1322.18  1325.73  1333.09  1334.89  1338.34  1346.19
eigval :     1360.69  1378.00  1397.35  1403.32  1404.70  1405.02
eigval :     1406.91  1409.63  1412.10  1413.70  1427.21  1432.67
eigval :     1436.20  1440.22  1442.18  1446.10  1450.63  1458.13
eigval :     1459.78  1461.90  1474.93  1476.02  1478.31  1482.51
eigval :     1483.06  1483.64  1484.91  1485.31  1486.93  1487.46
eigval :     1488.97  1489.96  1492.01  1492.72  1493.70  1495.90
eigval :     1497.24  1498.91  1506.13  1527.85  1557.17  1570.84
eigval :     1574.02  1578.29  1583.65  1586.55  1588.51  1590.54
eigval :     1598.46  1600.87  1602.86  1605.02  1605.74  1607.33
eigval :     2986.62  2992.30  2999.42  3000.77  3004.24  3005.28
eigval :     3017.96  3023.93  3024.10  3024.58  3025.67  3030.35
eigval :     3031.65  3033.93  3034.43  3034.49  3035.16  3038.54
eigval :     3038.88  3041.81  3041.87  3042.67  3043.04  3048.30
eigval :     3065.26  3067.82  3068.45  3069.92  3071.05  3072.42
eigval :     3073.42  3075.22  3076.09  3076.43  3078.51  3078.58
eigval :     3085.36  3086.21  3087.14  3087.96  3090.12  3092.95
eigval :     3093.14  3094.60  3099.21  3100.08  3109.36  3112.45

   temp. (K)  partition function   enthalpy   heat capacity  entropy
                                   cal/mol     cal/K/mol   cal/K/mol   J/K/mol
 298.15  VIB  0.441E+23            29135.252    179.657    181.080
         ROT  0.772E+08              888.752      2.981     39.074
         INT  0.341E+31            30024.005    182.638    220.154
         TR   0.180E+29             1481.254      4.968     45.502
         TOT                       31505.2587   187.6062   265.6555  1111.5025

       T/K    H(0)-H(T)+PV         H(T)/Eh          T*S/Eh         G(T)/Eh
   ------------------------------------------------------------------------
    298.15    0.502068E-01    0.883780E+00    0.126221E+00    0.757559E+00
   ------------------------------------------------------------------------

         :::::::::::::::::::::::::::::::::::::::::::::::::::::
         ::                  THERMODYNAMIC                  ::
         :::::::::::::::::::::::::::::::::::::::::::::::::::::
         :: total free energy        -141.023031404231 Eh   ::
         ::.................................................::
         :: total energy             -141.780590110946 Eh   ::
         :: zero point energy           0.833573374360 Eh   ::
         :: G(RRHO) w/o ZPVE           -0.076014667645 Eh   ::
         :: G(RRHO) contrib.            0.757558706715 Eh   ::
         :::::::::::::::::::::::::::::::::::::::::::::::::::::

           -------------------------------------------------
          | TOTAL ENERGY             -141.780590110946 Eh   |
          | TOTAL ENTHALPY           -140.896809911037 Eh   |
          | TOTAL FREE ENERGY        -141.023031404231 Eh   |
          | GRADIENT NORM               0.000053260560 Eh/α |
          | HOMO-LUMO GAP               2.834740025548 eV   |
           -------------------------------------------------

 * finished run on 2025/09/13 at 08:07:07.060
