   * xtb version 6.7.1 (edcfbbe) compiled by 'albert@albert-system' on 2024-07-22

   ID    Z sym.   atoms
    1    6 C      1-6, 8-32, 34-54
    2    7 N      7, 33
    3    1 H      55-102

          program call               : xtb data2507/gas/DMACN-B/DMACN-B_gas_S0_crest.xyz --gfn 2 --ohess vtight --parallel 40 --molden --ceasefiles --namespace data2507/gas/DMACN-B/DMACN-B_gas_S0_finalOpt
          :  Hamiltonian                  GFN2-xTB          :
 * total energy  :  -141.7805842 Eh     change       -0.3502606E-08 Eh
 * total energy  :  -141.7805853 Eh     change       -0.1108027E-05 Eh
 * total energy  :  -141.7805860 Eh     change       -0.7537293E-06 Eh
 * total energy  :  -141.7805871 Eh     change       -0.1105497E-05 Eh
 * total energy  :  -141.7805876 Eh     change       -0.4677842E-06 Eh
 * total energy  :  -141.7805884 Eh     change       -0.7657130E-06 Eh
 * total energy  :  -141.7805891 Eh     change       -0.7668670E-06 Eh
 * total energy  :  -141.7805895 Eh     change       -0.3729054E-06 Eh
 * total energy  :  -141.7805898 Eh     change       -0.3143065E-06 Eh
 * total energy  :  -141.7805902 Eh     change       -0.3722905E-06 Eh
 * total energy  :  -141.7805915 Eh     change       -0.3042989E-06 Eh
 * total energy  :  -141.7805918 Eh     change       -0.3423101E-06 Eh
 * total energy  :  -141.7805922 Eh     change       -0.3923747E-06 Eh
 * total energy  :  -141.7805926 Eh     change       -0.4096827E-06 Eh
 * total energy  :  -141.7805930 Eh     change       -0.3903103E-06 Eh
 * total energy  :  -141.7805933 Eh     change       -0.2818923E-06 Eh
 * total energy  :  -141.7805936 Eh     change       -0.2679688E-06 Eh
 * total energy  :  -141.7805938 Eh     change       -0.2207861E-06 Eh
 * total energy  :  -141.7805938 Eh     change       -0.5450829E-08 Eh
   *** GEOMETRY OPTIMIZATION CONVERGED AFTER 22 ITERATIONS ***

 final structure:
================
102
 xtb: 6.7.1 (edcfbbe)
C           -6.06149601922703       -5.38190514825428        0.47170199471021
C           -5.23021897203742       -4.15071134920858        0.27320214864091
C           -4.14345199348371       -3.87171174136244        1.08366775237064
C           -3.36971052805360       -2.73305788042629        0.91104043801321
C           -2.24324925394859       -2.49514825927111        1.87477523690292
C           -3.67674400989853       -1.84644967436868       -0.13271010820284
N           -2.89920020135315       -0.69104297751299       -0.34079356254084
C           -1.51300281550495       -0.77579034053439       -0.36502972563814
C           -0.85539468980199       -1.92705298241646       -0.80394260244103
C            0.52221384676693       -1.97955662136210       -0.81418515261351
C            1.28151349194158       -0.89016911454836       -0.39062171025154
C            0.63424181587905        0.27749213921566        0.01820352443779
C           -0.74598281078724        0.31438974354170        0.04486149094466
C            1.46381490464944        1.45619314169763        0.48949941071247
C            1.86014564849361        1.27118474353543        1.95379797454106
C            2.73935892972375        2.17309096504498        2.54391321469650
C            3.13154365164418        2.02201056575634        3.86047084614889
C            2.65496897726044        0.96132671860543        4.61238018873714
C            1.77816816631552        0.06095614623451        4.03588162777701
C            1.38220857374197        0.21543048938057        2.71815620961195
C            0.64287604887692        2.71479220941473        0.27201106857449
C            0.42841847462966        3.15461326419728       -1.03081471581992
C           -0.39902615513219        4.23100908993382       -1.28659810906241
C           -1.03488229421854        4.88174249321318       -0.24280129366129
C           -0.82849307130728        4.45150737489189        1.05510988489337
C            0.00359798714942        3.37456732707701        1.31207347547740
C            2.75936376927971        1.48871161294236       -0.30342894672075
C            3.43369773865116        2.67078990548833       -0.56747545879144
C            4.67898105214811        2.64581221586128       -1.16666110349712
C            5.25739568289755        1.44147332879390       -1.53092664800174
C            4.59047162394255        0.24593241263663       -1.32458681051177
C            3.34157709219425        0.28241645221176       -0.69466601126387
N            2.67326872404102       -0.91324525787004       -0.45579975545883
C            3.44108239471349       -2.04218553844939       -0.19656124180846
C            3.00176220905498       -3.00764881938490        0.70579209561291
C            3.80664495179256       -4.08504117976932        1.01438222292138
C            5.06407662163870       -4.19089964757156        0.44648259137061
C            5.50788106085041       -3.22311305068522       -0.43938130754616
C            4.70823461186033       -2.14570589360284       -0.78441335580996
C            5.08611528353184       -1.10127793398002       -1.81804489283141
C            6.58234668461971       -1.09666250616951       -2.13005605018228
C            4.31999577182174       -1.43046049416378       -3.11776519301803
C           -3.49191352008089        0.58470759223478       -0.46915246809905
C           -4.42400599671149        1.03964915623745        0.47536401315079
C           -4.85213015257333        0.19568211255089        1.63900578600787
C           -4.94885106198964        2.31544982685711        0.34510207571710
C           -4.56950464640632        3.16654755574899       -0.68229669664744
C           -5.12183689192455        4.55729520635032       -0.76260089277477
C           -3.66150474947794        2.69549165644570       -1.61473239129968
C           -3.12637263873373        1.41904360456842       -1.53620720722716
C           -2.16936083881060        0.98663720884350       -2.60742853720353
C           -4.77625458680559       -2.11495631972691       -0.96412285621512
C           -5.14789692258104       -1.21149469031279       -2.10210800546929
C           -5.53357962337563       -3.25253468645829       -0.73989711274289
H           -7.11207065918319       -5.11890596630615        0.58769162079006
H           -5.97730511087567       -6.03875533260191       -0.39390848487860
H           -5.73983997497635       -5.93038030771988        1.35343079403159
H           -3.89406894035847       -4.55023250303449        1.88771873416814
H           -1.32286220496626       -2.95438709920703        1.51117049857757
H           -2.48382889523413       -2.93919225915074        2.83905586552409
H           -2.04827686520752       -1.43464829402932        2.01699789884173
H           -1.43143080462019       -2.77422578969092       -1.14630358686424
H            1.02418760214323       -2.86910182271186       -1.16575829784741
H           -1.24984674385661        1.19877350134581        0.40394738511182
H            3.12036003375163        3.00272297993228        1.96807471483830
H            3.81390794664348        2.73462522544468        4.30069580151954
H            2.96436043543708        0.83959359391104        5.63998863394451
H            1.39636719338278       -0.76901257058671        4.61285246394286
H            0.68991117799134       -0.49407192164153        2.29010397553341
H            0.91805179491700        2.64431666138128       -1.84902573909586
H           -0.55317321017403        4.55882993724258       -2.30436882843146
H           -1.68943746892131        5.71720999519503       -0.44177992350598
H           -1.32320481524067        4.95008077685210        1.87608566839325
H            0.14523895843034        3.03976206444868        2.32938269147844
H            2.98676066399035        3.61632242442709       -0.29694598451006
H            5.20391300916445        3.57070127810717       -1.35306640457659
H            6.22946780363933        1.45344104546231       -1.99596556333609
H            2.03445333511843       -2.89660162697835        1.17227309943147
H            3.45801001699850       -4.83334049905355        1.71065408855110
H            5.70205815896133       -5.02695283475038        0.69067461824097
H            6.49192273374730       -3.32903742680588       -0.86666163259860
H            7.16369103168064       -0.86395705447405       -1.24060533981282
H            6.89054308478212       -2.06612922761846       -2.51294333330891
H            6.80456319148600       -0.36361931884638       -2.90114599126775
H            4.61751630041676       -2.40970933841394       -3.48755595885269
H            4.53973616171891       -0.68465615094413       -3.87910085177185
H            3.24644159671867       -1.43902159410988       -2.94536102372833
H           -5.48586932125706       -0.62944667545193        1.31487761086726
H           -3.99035110644422       -0.22767274759309        2.14932718277521
H           -5.41262849188440        0.79770225689409        2.35052690570799
H           -5.66271949012356        2.66336530979376        1.07891298565001
H           -6.20444578332496        4.55001190129595       -0.64739495704207
H           -4.70574730168891        5.17071355500641        0.03684610755914
H           -4.87317124808722        5.01940994112142       -1.71467389327734
H           -3.36201119596867        3.33318822468871       -2.43425440220017
H           -1.15370607866878        1.28616096429314       -2.34810482599054
H           -2.17044382964465       -0.09188017681371       -2.74478505197414
H           -2.43184287899267        1.46197380892608       -3.55075959724045
H           -5.86718379048153       -1.70589359486923       -2.75109008225282
H           -4.27309493800821       -0.94919043129082       -2.69188073986624
H           -5.59434785975810       -0.28574311336619       -1.73972665370532
H           -6.37980565714839       -3.45231704110079       -1.38258120038105

          :  Hamiltonian                  GFN2-xTB          :
         :: gradient norm              0.000045833359 Eh/a0 ::
         :: HOMO-LUMO gap              2.832270787894 eV    ::
         :: SCC energy              -144.362903249881 Eh    ::
         :: -> dispersion             -0.158701654041 Eh    ::
         :: repulsion energy           2.582309450041 Eh    ::

    * Orbital Energies and Occupations

         #    Occupation            Energy/Eh            Energy/eV
      -------------------------------------------------------------
         1        2.0000           -0.6629972             -18.0411
       ...           ...                  ...                  ...
       121        2.0000           -0.3996175             -10.8741
       122        2.0000           -0.3982051             -10.8357
       123        2.0000           -0.3937860             -10.7155
       124        2.0000           -0.3926312             -10.6840
       125        2.0000           -0.3903757             -10.6227
       126        2.0000           -0.3886561             -10.5759
       127        2.0000           -0.3856056             -10.4929
       128        2.0000           -0.3837741             -10.4430
       129        2.0000           -0.3830862             -10.4243
       130        2.0000           -0.3821457             -10.3987
       131        2.0000           -0.3803672             -10.3503
       132        2.0000           -0.3518847              -9.5753
       133        2.0000           -0.3282320              -8.9316 (HOMO)
       134                         -0.2241479              -6.0994 (LUMO)
       135                         -0.2221864              -6.0460
       136                         -0.2202283              -5.9927
       137                         -0.2187567              -5.9527
       138                         -0.2173329              -5.9139
       139                         -0.2171532              -5.9090
       140                         -0.2155008              -5.8641
       141                         -0.2148558              -5.8465
       142                         -0.2136119              -5.8127
       143                         -0.2103623              -5.7242
       144                         -0.2088744              -5.6838
       ...                                ...                  ...
       264                          0.6957732              18.9330
      -------------------------------------------------------------
                  HL-Gap            0.1040840 Eh            2.8323 eV

     #   Z          covCN         q      C6AA      α(0)
     1   6 C        3.758    -0.107    22.592     6.777
     2   6 C        2.961     0.006    27.878     8.660
     3   6 C        2.933    -0.056    29.392     8.891
     4   6 C        2.964    -0.003    28.093     8.694
     5   6 C        3.758    -0.099    22.449     6.755
     6   6 C        2.922     0.042    27.052     8.529
     7   7 N        2.750    -0.073    22.661     7.070
     8   6 C        2.925     0.061    26.641     8.464
     9   6 C        2.921    -0.056    29.383     8.889
    10   6 C        2.920    -0.053    29.311     8.878
    11   6 C        2.931     0.044    27.011     8.523
    12   6 C        2.988    -0.009    28.225     8.715
    13   6 C        2.928    -0.061    29.505     8.908
    14   6 C        3.923     0.011    20.331     6.408
    15   6 C        2.980     0.014    27.703     8.634
    16   6 C        2.925    -0.035    28.867     8.811
    17   6 C        2.920    -0.031    28.764     8.795
    18   6 C        2.920    -0.033    28.813     8.802
    19   6 C        2.920    -0.031    28.765     8.795
    20   6 C        2.924    -0.035    28.882     8.813
    21   6 C        2.980     0.014    27.684     8.631
    22   6 C        2.926    -0.032    28.798     8.801
    23   6 C        2.919    -0.029    28.714     8.787
    24   6 C        2.920    -0.031    28.775     8.797
    25   6 C        2.920    -0.030    28.753     8.793
    26   6 C        2.923    -0.035    28.881     8.813
    27   6 C        2.987    -0.011    28.272     8.722
    28   6 C        2.923    -0.039    28.975     8.827
    29   6 C        2.918    -0.045    29.112     8.848
    30   6 C        2.923    -0.043    29.062     8.841
    31   6 C        2.984    -0.014    28.353     8.734
    32   6 C        2.955     0.049    26.905     8.508
    33   7 N        2.760    -0.061    22.412     7.031
    34   6 C        2.938     0.057    26.729     8.479
    35   6 C        2.922    -0.051    29.269     8.872
    36   6 C        2.919    -0.034    28.847     8.808
    37   6 C        2.919    -0.043    29.068     8.841
    38   6 C        2.923    -0.039    28.978     8.828
    39   6 C        2.984    -0.013    28.332     8.731
    40   6 C        3.911     0.023    20.136     6.378
    41   6 C        3.758    -0.105    22.556     6.771
    42   6 C        3.764    -0.099    22.424     6.750
    43   6 C        2.927     0.042    27.062     8.531
    44   6 C        2.964    -0.003    28.089     8.693
    45   6 C        3.758    -0.104    22.538     6.768
    46   6 C        2.933    -0.057    29.417     8.895
    47   6 C        2.962     0.007    27.858     8.657
    48   6 C        3.758    -0.106    22.571     6.773
    49   6 C        2.933    -0.055    29.368     8.888
    50   6 C        2.965    -0.001    28.052     8.688
    51   6 C        3.758    -0.102    22.498     6.762
    52   6 C        2.965    -0.003    28.097     8.694
    53   6 C        3.758    -0.105    22.555     6.771
    54   6 C        2.933    -0.057    29.412     8.894
    55   1 H        0.925     0.042     2.421     2.433
    56   1 H        0.925     0.043     2.407     2.426
    57   1 H        0.925     0.039     2.468     2.457
    58   1 H        0.925     0.028     2.621     2.532
    59   1 H        0.924     0.042     2.416     2.431
    60   1 H        0.925     0.039     2.460     2.453
    61   1 H        0.925     0.037     2.484     2.465
    62   1 H        0.926     0.029     2.602     2.523
    63   1 H        0.926     0.030     2.582     2.513
    64   1 H        0.926     0.030     2.590     2.517
    65   1 H        0.926     0.033     2.546     2.495
    66   1 H        0.926     0.028     2.611     2.527
    67   1 H        0.926     0.028     2.615     2.529
    68   1 H        0.926     0.028     2.617     2.530
    69   1 H        0.926     0.029     2.605     2.524
    70   1 H        0.925     0.026     2.647     2.544
    71   1 H        0.926     0.028     2.613     2.528
    72   1 H        0.926     0.028     2.609     2.526
    73   1 H        0.926     0.027     2.630     2.536
    74   1 H        0.926     0.029     2.602     2.523
    75   1 H        0.926     0.028     2.612     2.528
    76   1 H        0.926     0.027     2.635     2.538
    77   1 H        0.926     0.034     2.530     2.487
    78   1 H        0.926     0.029     2.603     2.523
    79   1 H        0.926     0.028     2.622     2.532
    80   1 H        0.926     0.026     2.643     2.542
    81   1 H        0.926     0.034     2.535     2.490
    82   1 H        0.925     0.037     2.494     2.470
    83   1 H        0.925     0.039     2.468     2.457
    84   1 H        0.925     0.039     2.468     2.457
    85   1 H        0.925     0.036     2.498     2.471
    86   1 H        0.925     0.036     2.503     2.474
    87   1 H        0.925     0.035     2.512     2.479
    88   1 H        0.925     0.044     2.392     2.419
    89   1 H        0.925     0.045     2.382     2.413
    90   1 H        0.925     0.038     2.478     2.462
    91   1 H        0.925     0.028     2.615     2.529
    92   1 H        0.925     0.042     2.428     2.437
    93   1 H        0.925     0.044     2.401     2.423
    94   1 H        0.925     0.039     2.468     2.457
    95   1 H        0.926     0.028     2.614     2.528
    96   1 H        0.925     0.046     2.371     2.408
    97   1 H        0.925     0.039     2.467     2.456
    98   1 H        0.925     0.039     2.458     2.452
    99   1 H        0.925     0.038     2.478     2.462
   100   1 H        0.925     0.045     2.377     2.411
   101   1 H        0.925     0.044     2.394     2.420
   102   1 H        0.925     0.028     2.620     2.531

molecular dipole:
                 x           y           z       tot (Debye)
 q only:       -0.381       0.005      -0.241
   full:       -0.375       0.014      -0.182       1.062

 projected vibrational frequencies (cm⁻¹)
eigval :       -0.00    -0.00    -0.00     0.00     0.00     0.00
eigval :       -8.19    11.44    19.41    21.89    26.04    27.10
eigval :       32.22    36.91    43.51    46.56    49.63    57.28
eigval :       63.30    68.73    71.05    83.42    89.73    98.08
eigval :      114.91   120.74   138.47   156.23   164.97   170.08
eigval :      171.64   176.28   176.91   179.82   192.12   202.96
eigval :      206.16   211.13   212.96   214.06   218.81   222.69
eigval :      229.35   248.87   251.20   265.17   268.68   274.83
eigval :      279.58   282.80   286.47   297.12   301.85   309.11
eigval :      320.59   338.44   340.28   353.08   361.62   363.95
eigval :      369.16   375.38   377.24   386.28   394.99   405.75
eigval :      434.44   441.76   447.00   462.87   468.19   480.27
eigval :      488.27   493.44   494.03   496.49   498.11   502.64
eigval :      505.55   525.19   528.15   537.28   538.23   554.66
eigval :      555.41   567.29   579.25   584.08   589.33   590.18
eigval :      595.82   599.95   601.88   607.64   621.06   634.22
eigval :      651.14   655.39   669.54   670.76   676.11   679.92
eigval :      684.93   696.70   710.40   733.53   739.02   757.04
eigval :      761.92   776.84   800.37   820.38   832.76   843.79
eigval :      845.55   873.14   875.94   877.88   881.87   888.81
eigval :      889.43   891.35   894.28   896.87   899.32   904.72
eigval :      905.94   911.55   914.00   919.42   923.58   923.87
eigval :      926.97   928.98   931.28   931.69   936.25   937.90
eigval :      961.30   967.32   967.55   977.82   978.65   979.46
eigval :      997.75  1005.78  1009.47  1019.43  1024.03  1025.86
eigval :     1030.78  1031.42  1032.56  1033.29  1034.50  1036.83
eigval :     1040.78  1043.85  1050.39  1055.94  1075.98  1088.77
eigval :     1091.46  1103.72  1123.96  1126.80  1129.44  1135.63
eigval :     1137.73  1148.49  1151.43  1176.86  1179.55  1182.69
eigval :     1182.76  1185.23  1189.92  1200.63  1201.80  1204.82
eigval :     1210.67  1212.13  1226.27  1233.54  1241.72  1242.67
eigval :     1245.17  1251.85  1259.35  1271.59  1275.43  1283.15
eigval :     1288.93  1290.48  1299.85  1317.71  1318.57  1319.05
eigval :     1322.27  1325.74  1333.15  1334.87  1338.44  1346.58
eigval :     1360.98  1377.99  1397.37  1403.22  1404.73  1405.20
eigval :     1406.98  1409.58  1412.09  1413.63  1427.20  1432.62
eigval :     1436.25  1440.17  1442.07  1446.11  1450.62  1458.14
eigval :     1459.76  1461.90  1474.99  1476.08  1478.29  1482.31
eigval :     1482.99  1483.23  1483.91  1485.31  1487.18  1487.87
eigval :     1489.29  1490.35  1492.02  1492.70  1493.66  1496.02
eigval :     1497.28  1498.82  1506.12  1527.86  1557.24  1570.82
eigval :     1574.09  1578.32  1583.63  1586.56  1588.52  1590.57
eigval :     1598.48  1600.90  1602.85  1605.12  1605.85  1607.38
eigval :     2986.44  2998.18  2999.42  3001.38  3004.47  3005.54
eigval :     3016.91  3021.00  3023.88  3023.94  3024.57  3025.77
eigval :     3031.67  3034.19  3034.38  3034.51  3035.17  3038.54
eigval :     3041.63  3041.86  3041.89  3042.99  3043.50  3048.34
eigval :     3065.16  3067.55  3068.47  3070.06  3071.09  3072.26
eigval :     3073.71  3075.26  3076.10  3076.36  3078.39  3078.47
eigval :     3085.35  3086.09  3087.15  3087.99  3090.09  3092.74
eigval :     3093.07  3094.58  3099.46  3100.39  3109.39  3112.47

   temp. (K)  partition function   enthalpy   heat capacity  entropy
                                   cal/mol     cal/K/mol   cal/K/mol   J/K/mol
 298.15  VIB  0.320E+23            29122.385    179.755    180.867
         ROT  0.772E+08              888.752      2.981     39.073
         INT  0.247E+31            30011.137    182.736    219.940
         TR   0.180E+29             1481.254      4.968     45.502
         TOT                       31492.3910   187.7040   265.4421  1110.6097

       T/K    H(0)-H(T)+PV         H(T)/Eh          T*S/Eh         G(T)/Eh
   ------------------------------------------------------------------------
    298.15    0.501863E-01    0.883785E+00    0.126120E+00    0.757665E+00
   ------------------------------------------------------------------------

         :::::::::::::::::::::::::::::::::::::::::::::::::::::
         ::                  THERMODYNAMIC                  ::
         :::::::::::::::::::::::::::::::::::::::::::::::::::::
         :: total free energy        -141.022928571118 Eh   ::
         ::.................................................::
         :: total energy             -141.780593799840 Eh   ::
         :: zero point energy           0.833599008343 Eh   ::
         :: G(RRHO) w/o ZPVE           -0.075933779621 Eh   ::
         :: G(RRHO) contrib.            0.757665228722 Eh   ::
         :::::::::::::::::::::::::::::::::::::::::::::::::::::

           -------------------------------------------------
          | TOTAL ENERGY             -141.780593799840 Eh   |
          | TOTAL ENTHALPY           -140.896808471947 Eh   |
          | TOTAL FREE ENERGY        -141.022928571118 Eh   |
          | GRADIENT NORM               0.000045835753 Eh/α |
          | HOMO-LUMO GAP               2.832270877638 eV   |
           -------------------------------------------------

 * finished run on 2025/09/13 at 08:17:36.103
