   * xtb version 6.7.1 (edcfbbe) compiled by 'albert@albert-system' on 2024-07-22

   ID    Z sym.   atoms
    1    6 C      1-20, 22-26, 28, 30-33, 35-58
    2    7 N      21, 34
    3    8 O      27, 29
    4    1 H      59-114

          program call               : xtb data2507/toluene/DC-TC/DC-TC_toluene_S0_crest.xyz --gfn 2 --gbsa toluene --ohess vtight --parallel 40 --molden --ceasefiles --namespace data2507/toluene/DC-TC/DC-TC_toluene_S0_finalOpt
      * Solvation model:               GBSA
        Solvent                        toluene
        Solvent mass                       9.2140E+01 g/mol
          :  Hamiltonian                  GFN2-xTB          :
 * total energy  :  -158.3449967 Eh     change       -0.2360935E-08 Eh
 * total energy  :  -158.3452313 Eh     change       -0.2345658E-03 Eh
 * total energy  :  -158.3453634 Eh     change       -0.1321595E-03 Eh
 * total energy  :  -158.3454182 Eh     change       -0.5479792E-04 Eh
 * total energy  :  -158.3454980 Eh     change       -0.7977473E-04 Eh
 * total energy  :  -158.3455884 Eh     change       -0.9042701E-04 Eh
 * total energy  :  -158.3456733 Eh     change       -0.8482444E-04 Eh
 * total energy  :  -158.3457361 Eh     change       -0.6284431E-04 Eh
 * total energy  :  -158.3457848 Eh     change       -0.4873085E-04 Eh
 * total energy  :  -158.3458219 Eh     change       -0.3708748E-04 Eh
 * total energy  :  -158.3462809 Eh     change       -0.1014385E-05 Eh
 * total energy  :  -158.3462819 Eh     change       -0.1013603E-05 Eh
 * total energy  :  -158.3462828 Eh     change       -0.8678722E-06 Eh
 * total energy  :  -158.3462834 Eh     change       -0.6405657E-06 Eh
 * total energy  :  -158.3462839 Eh     change       -0.5053134E-06 Eh
 * total energy  :  -158.3462845 Eh     change       -0.5267843E-06 Eh
 * total energy  :  -158.3462851 Eh     change       -0.6016711E-06 Eh
 * total energy  :  -158.3462856 Eh     change       -0.5435917E-06 Eh
 * total energy  :  -158.3462856 Eh     change       -0.1727074E-08 Eh
   *** GEOMETRY OPTIMIZATION CONVERGED AFTER 68 ITERATIONS ***

 final structure:
================
114
 xtb: 6.7.1 (edcfbbe)
C            8.36276547255091       -3.07612537029322       -1.60369159874362
C            7.62327044023863       -3.36866576114278       -0.28928946673738
C            7.13423976063464       -4.81976964376953       -0.33256781455921
C            8.59126867323259       -3.22717756019873        0.89481679199185
C            6.48386074223307       -2.37187454089104       -0.12782365756953
C            6.78312752023319       -1.00399982992608       -0.07859717732291
C            5.81491139233554       -0.02770533095378        0.05119413428274
C            4.49138467136242       -0.43114478626969        0.12434669242092
C            4.16384826322914       -1.80224212396728        0.10943479482110
C            5.15790419649491       -2.76274734717566       -0.02077717692763
C            2.73294065542733       -1.88499306371304        0.25078176448441
C            1.84148861405367       -2.95025050933012        0.24550883352273
C            0.47961164459818       -2.70995877409687        0.34432069979474
C           -0.55656140231673       -3.82446258440259        0.33466797440773
C           -1.36804435902295       -3.76605050861759        1.63671109899700
C            0.07576844953358       -5.21568206271866        0.22686854485355
C           -1.49345825499152       -3.62889233177063       -0.86665500868043
C            0.03910862943009       -1.38344900887227        0.43754451033092
C            0.90345504291560       -0.30690224378967        0.44540632558081
C            2.26374034188571       -0.56179713894005        0.36838697440911
N            3.33773767528252        0.31701879182055        0.29495544336522
C            3.20837186902812        1.69694974073241        0.24932364687607
C            3.83344089201893        2.45064023517996       -0.74859503515962
C            3.53006531829834        3.78596368932211       -0.89068043428000
C            2.59354954449200        4.39949397760362       -0.05117988723969
C            2.05270378001744        5.71108660691917       -0.42615683840191
O            2.59995276730031        6.49755770057179       -1.17839054307781
C            0.65215916628216        5.99185888435169        0.13785572844341
O            0.43039180341109        6.99845215585418        0.78745839039675
C           -0.33115935002719        4.92494470482816       -0.09519977399541
C           -1.42887166126556        4.81691984951737        0.76589553944182
C           -2.24859746425064        3.71233334199049        0.72386508248102
C           -2.00353879309705        2.68610432041280       -0.19521917015632
N           -2.75806850045984        1.52306635057381       -0.16626162171472
C           -3.09972072860835        0.81439140050582        0.97933607897206
C           -2.77482204429548        1.03954777679388        2.30787171005047
C           -3.24125382382297        0.14629218864782        3.25247823018578
C           -4.00923632993906       -0.97862494053516        2.92553947562527
C           -4.52501571167108       -1.87114857695080        4.04547619959939
C           -5.31160607825750       -3.07620173274100        3.52100084859939
C           -5.45955374580242       -1.04098868917906        4.93911219828967
C           -3.34667035966630       -2.39878558492944        4.87654143724790
C           -4.28061637608685       -1.22316668918374        1.58800890369505
C           -3.82769556277901       -0.33738744862632        0.61892018487874
C           -3.93807829865211       -0.32170122324183       -0.81622584548050
C           -4.56540228760042       -1.16968437583879       -1.71904321770855
C           -4.54012281057865       -0.87332945649516       -3.07265994178419
C           -5.19907887288555       -1.75956067287305       -4.12014499350969
C           -6.27371012228124       -0.95107204979550       -4.86248507522287
C           -4.13083396899027       -2.24106691940956       -5.11333618231805
C           -5.87083118092248       -2.99334455080577       -3.50932780476498
C           -3.89325565207139        0.29886726252859       -3.48483890190689
C           -3.26333175303581        1.15966720170926       -2.60737293801498
C           -3.26402067995351        0.83358113742342       -1.26034236508032
C           -0.96865365755472        2.84005512389051       -1.12508292456609
C           -0.14561314659451        3.94109708801053       -1.07330019640255
C            2.07886155039994        3.67373902709308        1.03028394465467
C            2.38470381809048        2.34252802312992        1.17911510651866
H            9.16880770383605       -3.79283363316821       -1.74744518972523
H            7.67758153166546       -3.15329887873561       -2.44589046405517
H            8.79247488539311       -2.07814110194963       -1.60498048184723
H            7.98630345014763       -5.48510203722640       -0.45789807867223
H            6.63084149233534       -5.09125672178063        0.59260511101302
H            6.45769235520028       -4.97996630532491       -1.16908642803166
H            9.40110005792541       -3.94829694588369        0.80412699901834
H            8.06882152297988       -3.41055278149074        1.83186693117650
H            9.02618729057915       -2.23234907507425        0.93695811093829
H            7.81219846773403       -0.68470064080726       -0.14035020520228
H            6.09153913464543        1.01460871597392        0.10393194049109
H            4.87410845659416       -3.80157431028821       -0.03099962313394
H            2.23259357677568       -3.94932619174668        0.15080709042414
H           -0.70627913326981       -3.86151499889258        2.49593537834761
H           -2.08734652056136       -4.58227357647331        1.66371806803561
H           -1.91078285611304       -2.82830750228548        1.72256103623113
H            0.73494931257716       -5.41286802395136        1.06939183636294
H            0.63716445873768       -5.32003201361920       -0.69889641595013
H           -0.70763750253742       -5.97119227369086        0.23013484112265
H           -2.02888303128878       -2.68561111295474       -0.80400278656675
H           -0.92346920082983       -3.63694421833136       -1.79394405070971
H           -2.22369115008988       -4.43469319585195       -0.90352519212007
H           -1.01869787135826       -1.18058152105976        0.50192615341283
H            0.51900400977963        0.70098153753409        0.49000022071537
H            4.50108986712026        1.96757938750841       -1.44507955190322
H            3.95285684862094        4.36626779010482       -1.69781330509263
H           -1.59688666201315        5.60344097210066        1.48703852343994
H           -3.08873351436714        3.63509558203633        1.39652342115734
H           -2.16855712177677        1.88011652552968        2.60885370365944
H           -2.99584426654299        0.33743680561356        4.28576623502149
H           -6.18865667727638       -2.75920078374597        2.96119523805520
H           -5.65116654430673       -3.67967347679207        4.36057684071528
H           -4.68804357791268       -3.70249422069873        2.88760376901831
H           -6.28893337359314       -0.64701979169022        4.35441300440714
H           -5.86364915238069       -1.66075472234798        5.73700500084408
H           -4.93453316605399       -0.20380407689245        5.39140886458173
H           -3.71248692474246       -3.04521368357559        5.67176500406847
H           -2.67080454701634       -2.97359245545762        4.24780999886957
H           -2.78388480696501       -1.58910964126582        5.33264198382305
H           -4.83803305449900       -2.08957320006202        1.27457590207468
H           -5.06927635123146       -2.04358301646488       -1.34236682816159
H           -6.77480817498429       -1.57978968151895       -5.59574040210267
H           -5.84361567488669       -0.10018444129829       -5.38366999855651
H           -7.01798690371555       -0.57972279060641       -4.16041127494665
H           -3.66013011217482       -1.40686298689430       -5.62645668291074
H           -4.58102797377885       -2.88990346147185       -5.86190604161640
H           -3.35717300018366       -2.80066276387006       -4.59114653224756
H           -6.31762412591325       -3.59101353512096       -4.30156133263969
H           -6.66175981457363       -2.70755834626272       -2.81941190224909
H           -5.14676393478575       -3.61523076300475       -2.98836238622171
H           -3.88437351964632        0.55815873947766       -4.53243617815854
H           -2.80401190712103        2.06596332997572       -2.97159823758116
H           -0.78358548840821        2.06350686311764       -1.85064171720939
H            0.65746833903780        4.03849494661355       -1.78808088064256
H            1.43975984206522        4.16192760528364        1.75046555119345
H            1.98208353540393        1.77956005111548        2.00695583420865

          :  Hamiltonian                  GFN2-xTB          :
         :: gradient norm              0.000033067341 Eh/a0 ::
         :: HOMO-LUMO gap              1.356824779241 eV    ::
         :: SCC energy              -161.021537731964 Eh    ::
         :: -> dispersion             -0.153534551702 Eh    ::
         :: -> Gsolv                  -0.063341736674 Eh    ::
         :: repulsion energy           2.675252113709 Eh    ::

    * Orbital Energies and Occupations

         #    Occupation            Energy/Eh            Energy/eV
      -------------------------------------------------------------
         1        2.0000           -0.7281279             -19.8134
       ...           ...                  ...                  ...
       135        2.0000           -0.4176506             -11.3649
       136        2.0000           -0.4160627             -11.3216
       137        2.0000           -0.4115099             -11.1978
       138        2.0000           -0.4107416             -11.1768
       139        2.0000           -0.4091282             -11.1329
       140        2.0000           -0.4083101             -11.1107
       141        2.0000           -0.3999174             -10.8823
       142        2.0000           -0.3990410             -10.8585
       143        2.0000           -0.3871207             -10.5341
       144        2.0000           -0.3778583             -10.2820
       145        2.0000           -0.3766579             -10.2494
       146        2.0000           -0.3648851              -9.9290
       147        2.0000           -0.3636644              -9.8958 (HOMO)
       148                         -0.3138020              -8.5390 (LUMO)
       149                         -0.2871555              -7.8139
       150                         -0.2488373              -6.7712
       151                         -0.2460172              -6.6945
       152                         -0.2441936              -6.6448
       153                         -0.2438008              -6.6342
       154                         -0.2329931              -6.3401
       155                         -0.2220228              -6.0415
       156                         -0.2207361              -6.0065
       157                         -0.2096945              -5.7061
       158                         -0.1924421              -5.2366
       ...                                ...                  ...
       288                          0.7370633              20.0565
      -------------------------------------------------------------
                  HL-Gap            0.0498624 Eh            1.3568 eV

     #   Z          covCN         q      C6AA      α(0)
     1   6 C        3.761    -0.105    22.556     6.770
     2   6 C        3.902     0.025    20.095     6.372
     3   6 C        3.761    -0.107    22.601     6.777
     4   6 C        3.761    -0.105    22.555     6.770
     5   6 C        2.972     0.001    28.004     8.680
     6   6 C        2.931    -0.039    28.969     8.827
     7   6 C        2.908    -0.053    29.313     8.878
     8   6 C        3.069     0.041    27.004     8.521
     9   6 C        3.065    -0.017    28.372     8.735
    10   6 C        2.918    -0.044    29.084     8.844
    11   6 C        3.063    -0.017    28.365     8.734
    12   6 C        2.918    -0.044    29.085     8.844
    13   6 C        2.973     0.001    27.993     8.679
    14   6 C        3.903     0.025    20.099     6.373
    15   6 C        3.761    -0.102    22.496     6.761
    16   6 C        3.761    -0.107    22.593     6.776
    17   6 C        3.761    -0.103    22.520     6.765
    18   6 C        2.931    -0.038    28.937     8.822
    19   6 C        2.909    -0.053    29.304     8.876
    20   6 C        3.073     0.041    27.016     8.522
    21   7 N        2.801    -0.036    21.936     6.956
    22   6 C        2.914     0.078    26.262     8.403
    23   6 C        2.918    -0.041    29.022     8.834
    24   6 C        2.923    -0.014    28.352     8.732
    25   6 C        2.972    -0.021    28.534     8.762
    26   6 C        2.821     0.210    23.558     7.953
    27   8 O        0.857    -0.391    21.508     6.218
    28   6 C        2.821     0.210    23.563     7.954
    29   8 O        0.857    -0.391    21.494     6.216
    30   6 C        2.970    -0.021    28.531     8.761
    31   6 C        2.922    -0.014    28.357     8.733
    32   6 C        2.919    -0.042    29.037     8.837
    33   6 C        2.912     0.078    26.260     8.403
    34   7 N        2.799    -0.035    21.913     6.952
    35   6 C        3.069     0.042    26.997     8.520
    36   6 C        2.909    -0.053    29.304     8.876
    37   6 C        2.931    -0.038    28.955     8.825
    38   6 C        2.972     0.002    27.979     8.676
    39   6 C        3.902     0.026    20.085     6.370
    40   6 C        3.761    -0.108    22.609     6.778
    41   6 C        3.762    -0.105    22.545     6.769
    42   6 C        3.761    -0.107    22.589     6.775
    43   6 C        2.918    -0.043    29.080     8.843
    44   6 C        3.064    -0.017    28.363     8.733
    45   6 C        3.065    -0.017    28.365     8.733
    46   6 C        2.918    -0.043    29.078     8.843
    47   6 C        2.972     0.002    27.978     8.676
    48   6 C        3.902     0.025    20.090     6.371
    49   6 C        3.761    -0.105    22.552     6.770
    50   6 C        3.761    -0.105    22.560     6.771
    51   6 C        3.761    -0.108    22.609     6.778
    52   6 C        2.931    -0.038    28.956     8.825
    53   6 C        2.909    -0.053    29.310     8.877
    54   6 C        3.068     0.041    27.003     8.521
    55   6 C        2.919    -0.042    29.032     8.836
    56   6 C        2.920    -0.023    28.587     8.768
    57   6 C        2.920    -0.023    28.586     8.768
    58   6 C        2.921    -0.040    29.003     8.832
    59   1 H        0.925     0.038     2.473     2.459
    60   1 H        0.925     0.033     2.545     2.495
    61   1 H        0.925     0.036     2.503     2.474
    62   1 H        0.925     0.037     2.489     2.467
    63   1 H        0.925     0.037     2.496     2.470
    64   1 H        0.925     0.037     2.494     2.470
    65   1 H        0.925     0.038     2.472     2.459
    66   1 H        0.925     0.033     2.547     2.496
    67   1 H        0.925     0.036     2.506     2.475
    68   1 H        0.926     0.033     2.539     2.492
    69   1 H        0.926     0.029     2.598     2.521
    70   1 H        0.926     0.043     2.411     2.428
    71   1 H        0.926     0.043     2.409     2.427
    72   1 H        0.925     0.030     2.586     2.515
    73   1 H        0.925     0.037     2.489     2.467
    74   1 H        0.925     0.039     2.468     2.457
    75   1 H        0.925     0.036     2.505     2.475
    76   1 H        0.925     0.036     2.507     2.476
    77   1 H        0.925     0.037     2.486     2.466
    78   1 H        0.925     0.038     2.477     2.461
    79   1 H        0.925     0.030     2.583     2.513
    80   1 H        0.925     0.038     2.472     2.459
    81   1 H        0.926     0.033     2.543     2.494
    82   1 H        0.926     0.024     2.671     2.556
    83   1 H        0.926     0.061     2.182     2.310
    84   1 H        0.926     0.060     2.203     2.321
    85   1 H        0.926     0.059     2.215     2.327
    86   1 H        0.926     0.061     2.182     2.310
    87   1 H        0.926     0.029     2.604     2.524
    88   1 H        0.926     0.033     2.540     2.492
    89   1 H        0.925     0.036     2.504     2.475
    90   1 H        0.925     0.036     2.499     2.472
    91   1 H        0.925     0.039     2.458     2.452
    92   1 H        0.925     0.032     2.560     2.502
    93   1 H        0.925     0.038     2.478     2.462
    94   1 H        0.925     0.035     2.514     2.480
    95   1 H        0.925     0.037     2.486     2.466
    96   1 H        0.925     0.038     2.472     2.459
    97   1 H        0.925     0.035     2.519     2.482
    98   1 H        0.926     0.045     2.380     2.412
    99   1 H        0.926     0.045     2.380     2.413
   100   1 H        0.925     0.038     2.475     2.460
   101   1 H        0.925     0.035     2.514     2.480
   102   1 H        0.925     0.032     2.553     2.499
   103   1 H        0.925     0.035     2.513     2.479
   104   1 H        0.925     0.038     2.476     2.461
   105   1 H        0.925     0.035     2.520     2.482
   106   1 H        0.925     0.037     2.493     2.469
   107   1 H        0.925     0.036     2.497     2.471
   108   1 H        0.925     0.039     2.467     2.456
   109   1 H        0.926     0.033     2.548     2.496
   110   1 H        0.926     0.028     2.609     2.526
   111   1 H        0.926     0.060     2.195     2.317
   112   1 H        0.926     0.041     2.442     2.444
   113   1 H        0.926     0.041     2.435     2.440
   114   1 H        0.926     0.060     2.195     2.317

molecular dipole:
                 x           y           z       tot (Debye)
 q only:       -1.064      -4.680       0.161
   full:       -0.983      -4.297       0.138      11.211

 projected vibrational frequencies (cm⁻¹)
eigval :       -0.00    -0.00     0.00     0.00     0.00     0.00
eigval :       10.28    15.17    20.13    23.48    28.49    29.06
eigval :       31.15    33.14    34.56    39.24    50.52    54.03
eigval :       61.06    66.24    70.03    73.87    83.69    86.34
eigval :       97.97   103.09   115.33   118.18   122.73   130.53
eigval :      158.88   162.70   166.89   172.16   176.70   182.30
eigval :      185.00   188.21   191.57   202.11   205.81   211.81
eigval :      219.92   223.65   225.92   230.00   233.15   233.47
eigval :      245.87   255.08   259.52   261.82   262.17   276.42
eigval :      279.74   290.97   304.12   308.64   314.49   315.95
eigval :      318.71   325.68   330.25   333.78   338.07   345.63
eigval :      353.45   353.70   358.51   360.20   364.26   369.51
eigval :      382.39   383.72   391.78   395.43   401.48   402.58
eigval :      411.99   412.86   440.22   441.45   443.15   444.17
eigval :      455.32   457.93   460.29   463.45   465.24   466.32
eigval :      490.95   496.18   500.48   516.39   519.42   520.31
eigval :      567.85   572.08   583.10   584.95   586.74   591.85
eigval :      596.78   600.81   609.10   627.16   632.75   641.87
eigval :      644.63   669.36   672.27   689.69   691.14   696.34
eigval :      700.70   709.21   711.15   719.66   722.51   736.53
eigval :      752.86   754.92   818.35   820.98   825.42   826.31
eigval :      830.63   831.11   832.77   834.62   865.14   866.35
eigval :      872.74   873.18   875.63   876.41   877.18   878.14
eigval :      881.89   914.18   915.35   917.03   918.27   920.17
eigval :      924.28   924.55   927.04   929.94   933.32   936.24
eigval :      939.30   941.76   954.03   958.40   958.43   959.41
eigval :      961.15   961.40   961.81   962.51   962.81   962.91
eigval :      963.17   964.58   969.48   992.77  1014.52  1030.08
eigval :     1030.77  1033.16  1034.77  1034.89  1035.23  1035.48
eigval :     1036.64  1038.95  1040.33  1041.83  1112.96  1113.36
eigval :     1127.28  1128.21  1131.35  1135.04  1141.35  1143.36
eigval :     1174.25  1175.43  1176.34  1181.54  1203.51  1205.64
eigval :     1224.87  1225.22  1225.57  1226.15  1227.27  1229.25
eigval :     1229.74  1230.10  1231.27  1232.82  1234.36  1235.21
eigval :     1243.58  1245.11  1257.24  1258.13  1259.26  1260.53
eigval :     1282.61  1283.51  1299.99  1301.56  1303.79  1304.65
eigval :     1325.56  1328.93  1343.78  1344.04  1352.72  1353.18
eigval :     1367.67  1370.97  1398.44  1399.07  1401.35  1401.90
eigval :     1402.39  1402.54  1403.58  1406.15  1407.80  1408.18
eigval :     1415.31  1416.85  1426.27  1426.34  1427.28  1431.09
eigval :     1432.93  1434.41  1477.27  1477.44  1480.32  1480.40
eigval :     1481.36  1482.44  1488.31  1489.46  1489.62  1490.31
eigval :     1491.19  1491.41  1491.85  1495.00  1497.23  1498.36
eigval :     1498.44  1500.83  1502.86  1503.12  1504.23  1505.15
eigval :     1510.53  1511.06  1511.78  1512.54  1515.64  1516.76
eigval :     1516.92  1518.66  1539.37  1541.01  1566.31  1569.56
eigval :     1570.26  1571.27  1580.54  1581.46  1600.49  1600.83
eigval :     1611.04  1611.25  1658.74  1678.28  3017.16  3018.20
eigval :     3018.76  3018.97  3019.73  3020.50  3020.68  3020.71
eigval :     3022.58  3023.15  3023.47  3023.95  3024.43  3025.44
eigval :     3025.83  3026.21  3026.60  3027.38  3028.98  3029.87
eigval :     3030.92  3031.41  3032.19  3035.45  3035.85  3035.96
eigval :     3038.28  3039.13  3042.30  3043.12  3043.71  3043.82
eigval :     3046.44  3046.72  3047.36  3049.28  3078.93  3079.41
eigval :     3081.78  3083.24  3086.02  3087.25  3087.70  3089.58
eigval :     3092.89  3094.06  3095.84  3098.37  3101.79  3101.96
eigval :     3102.96  3107.72  3117.50  3120.22  3120.27  3123.48

   temp. (K)  partition function   enthalpy   heat capacity  entropy
                                   cal/mol     cal/K/mol   cal/K/mol   J/K/mol
 298.15  VIB  0.782E+25            33256.684    204.307    205.177
         ROT  0.141E+09              888.752      2.981     40.271
         INT  0.110E+34            34145.436    207.288    245.449
         TR   0.205E+29             1481.254      4.968     45.762
         TOT                       35626.6903   212.2563   291.2109  1218.4265

       T/K    H(0)-H(T)+PV         H(T)/Eh          T*S/Eh         G(T)/Eh
   ------------------------------------------------------------------------
    298.15    0.567747E-01    0.998909E+00    0.138364E+00    0.860545E+00
   ------------------------------------------------------------------------

         :::::::::::::::::::::::::::::::::::::::::::::::::::::
         ::                  THERMODYNAMIC                  ::
         :::::::::::::::::::::::::::::::::::::::::::::::::::::
         :: total free energy        -157.485740801115 Eh   ::
         ::.................................................::
         :: total energy             -158.346285621654 Eh   ::
         :: zero point energy           0.942133784006 Eh   ::
         :: G(RRHO) w/o ZPVE           -0.081588963467 Eh   ::
         :: G(RRHO) contrib.            0.860544820539 Eh   ::
         :::::::::::::::::::::::::::::::::::::::::::::::::::::

           -------------------------------------------------
          | TOTAL ENERGY             -158.346285621654 Eh   |
          | TOTAL ENTHALPY           -157.347377092789 Eh   |
          | TOTAL FREE ENERGY        -157.485740801115 Eh   |
          | GRADIENT NORM               0.000033066902 Eh/α |
          | HOMO-LUMO GAP               1.356825596265 eV   |
           -------------------------------------------------

 * finished run on 2025/09/12 at 11:04:38.807
