   * xtb version 6.7.1 (edcfbbe) compiled by 'albert@albert-system' on 2024-07-22

   ID    Z sym.   atoms
    1    6 C      1-20, 22-26, 28, 30-33, 35-58
    2    7 N      21, 34
    3    8 O      27, 29
    4    1 H      59-114

          program call               : xtb data2507/toluene/DC-TC/DC-TC.xyz --gfn 2 --gbsa toluene --ohess vtight --parallel 40 --molden --ceasefiles --namespace data2507/toluene/DC-TC/DC-TC_toluene_S0_preOpt
      * Solvation model:               GBSA
        Solvent                        toluene
        Solvent mass                       9.2140E+01 g/mol
          :  Hamiltonian                  GFN2-xTB          :
 * total energy  :  -158.3224848 Eh     change       -0.8250566E-08 Eh
 * total energy  :  -158.3394877 Eh     change       -0.1700294E-01 Eh
 * total energy  :  -158.3445531 Eh     change       -0.5065352E-02 Eh
 * total energy  :  -158.3459806 Eh     change       -0.1427508E-02 Eh
 * total energy  :  -158.3468233 Eh     change       -0.8427396E-03 Eh
 * total energy  :  -158.3471380 Eh     change       -0.3146296E-03 Eh
 * total energy  :  -158.3473192 Eh     change       -0.1812452E-03 Eh
 * total energy  :  -158.3474308 Eh     change       -0.1115531E-03 Eh
 * total energy  :  -158.3475003 Eh     change       -0.6950517E-04 Eh
 * total energy  :  -158.3475599 Eh     change       -0.5958671E-04 Eh
 * total energy  :  -158.3487872 Eh     change       -0.7835759E-06 Eh
 * total energy  :  -158.3487882 Eh     change       -0.9343256E-06 Eh
 * total energy  :  -158.3487894 Eh     change       -0.1205420E-05 Eh
 * total energy  :  -158.3487909 Eh     change       -0.1552015E-05 Eh
 * total energy  :  -158.3487927 Eh     change       -0.1827241E-05 Eh
 * total energy  :  -158.3487946 Eh     change       -0.1881124E-05 Eh
 * total energy  :  -158.3487965 Eh     change       -0.1864352E-05 Eh
 * total energy  :  -158.3487982 Eh     change       -0.1741220E-05 Eh
 * total energy  :  -158.3487982 Eh     change       -0.6243312E-08 Eh
   *** GEOMETRY OPTIMIZATION CONVERGED AFTER 221 ITERATIONS ***

 final structure:
================
114
 xtb: 6.7.1 (edcfbbe)
C           11.18228173542664        2.42953598082667        2.29334853110331
C           10.78070896567898        2.32338062151568        0.81448862465384
C           10.91601206992165        3.69634740246858        0.13901777211487
C           11.75071687288158        1.35843406934902        0.12548986341361
C            9.33304334889836        1.86132163974812        0.72349079786378
C            8.33046434238464        2.65440464542888        1.29597065926496
C            6.99104305371928        2.31947816165121        1.25550578856121
C            6.63074051740552        1.14921241417866        0.60618276527955
C            7.62355766763141        0.31389948633629        0.05720645389033
C            8.96308319354586        0.67421770436851        0.11064927053234
C            6.94480050861438       -0.84323309739466       -0.46494298144616
C            7.38623526040846       -1.97328165091959       -1.13320882360288
C            6.47479244629980       -2.93379451381280       -1.55529110441903
C            6.98663386687693       -4.17361024742356       -2.27641637437365
C            7.71962197413125       -3.74351824281503       -3.55612908939157
C            5.86505432403987       -5.13856726143662       -2.67269704413174
C            7.95555757737786       -4.92469899385385       -1.35060683798254
C            5.11751535490997       -2.71326743504410       -1.30867637953915
C            4.65006054679069       -1.59236783291233       -0.64375508305321
C            5.57180127469232       -0.66193238193400       -0.19586296537783
N            5.38546976811165        0.55298126955674        0.45101028424288
C            4.17650133616925        1.08203817551326        0.87600882857683
C            3.88197495271888        2.43276217457865        0.65476926618414
C            2.69409874595480        2.96213767128149        1.09861296211965
C            1.76424978242288        2.16598645385321        1.77956974299651
C            0.52822773238231        2.77695182026074        2.26619719953625
O            0.23119982194805        3.94887798563961        2.08650888491924
C           -0.39965345007590        1.89585724116510        3.10143979053219
O           -0.10137602858073        1.62805445437506        4.25569525747181
C           -1.65493397056425        1.49509294005563        2.46748658344032
C           -2.65476642668654        0.89974700675766        3.24674770045590
C           -3.86618290197259        0.55665083363229        2.69544247488118
C           -4.11268907605371        0.79282569890165        1.33787744346251
N           -5.34226351993970        0.47516527022208        0.78160043558446
C           -6.07049311917500       -0.68569279729993        1.00777496176577
C           -5.74166701609639       -1.82849973043160        1.71623365702143
C           -6.65537100247330       -2.86820035119078        1.74720234983279
C           -7.88355328579563       -2.81398515225136        1.08364282666607
C           -8.89521355065016       -3.95099562625187        1.13688257295896
C           -9.14112722746489       -4.47349421814165       -0.28656133826088
C          -10.20914896812645       -3.41958762990083        1.72983077066312
C           -8.42675832040116       -5.12642753127840        2.00014999570865
C           -8.18227697830067       -1.67803581341174        0.34078517654214
C           -7.28585357374784       -0.62306491843607        0.29423114086452
C           -7.29763472978662        0.64441211727260       -0.38826754834826
C           -8.23353282778719        1.26398258659923       -1.20516037839770
C           -7.98233261971756        2.53408786778495       -1.70058541800383
C           -8.95834726857395        3.27048848815379       -2.60777793093127
C          -10.20753771853909        2.44207505550715       -2.92424997315974
C           -9.40805166387985        4.56709056453677       -1.91777459102391
C           -8.25916941353182        3.60296081272202       -3.93450437681640
C           -6.78693936134822        3.16576086885163       -1.33456416317860
C           -5.83942190899154        2.57162919103980       -0.52385809248183
C           -6.08542105206741        1.28659633491601       -0.06665668533898
C           -3.10550789842750        1.36259426372642        0.55010477134101
C           -1.89573978674004        1.71053019113689        1.10622202386196
C            2.05192225596884        0.81172801989500        1.98140276335800
C            3.24034719702499        0.27833347576288        1.53689303811522
H           12.22309988476150        2.73555641876791        2.37744587472421
H           10.57064712199129        3.15709819884781        2.81984321732980
H           11.06467434750510        1.46594282482408        2.78565309935904
H           11.95025050312853        4.03222782450369        0.17890617681546
H           10.61334870737598        3.63365972176572       -0.90458068492438
H           10.29801397132265        4.44388584996433        0.62865969434842
H           12.76491042202927        1.74431629960852        0.20867948887809
H           11.51585741156459        1.25643394079160       -0.93169054805206
H           11.72679972486954        0.37733166734308        0.59442986321671
H            8.60217754361730        3.56878342228688        1.80078628472426
H            6.25841658724560        2.95128078699559        1.73423541411414
H            9.69318709543177        0.01169843291830       -0.32272150039244
H            8.44193895738796       -2.08767585030959       -1.32320314802349
H            8.57604922371616       -3.11411682502878       -3.33074535018492
H            7.04781329502366       -3.18504513599263       -4.20524848517124
H            8.07367935516513       -4.61884207710487       -4.09697121966624
H            5.32353699681800       -5.49141540839847       -1.79775792217577
H            6.29428850509974       -6.00478362390395       -3.17271715082321
H            5.16649905550890       -4.66732077473154       -3.36054760963599
H            8.81048225326644       -4.30845578639009       -1.08648367690853
H            7.44894067491048       -5.21584832947436       -0.43232345802985
H            8.32267969111986       -5.82356807019785       -1.84183524494813
H            4.38638175377718       -3.42934401731483       -1.64536232637483
H            3.58949811106929       -1.45409968381057       -0.49808643325571
H            4.58350437753917        3.04830241280411        0.11327232174694
H            2.45153715074600        4.00118283380893        0.93003776798848
H           -2.45882609493183        0.74316534001735        4.29739603013462
H           -4.64530911838285        0.13753668175079        3.31305465800097
H           -4.79528115098739       -1.92584517173552        2.22608413699802
H           -6.38592884731999       -3.74701014287247        2.30914250264076
H           -8.21054923755924       -4.83381343284331       -0.72104964509036
H           -9.53931529775312       -3.69561318701518       -0.93209403394905
H           -9.85348023782531       -5.29575003801571       -0.26541122004082
H          -10.62706981653324       -2.62371118474512        1.11958398317815
H          -10.94272166932929       -4.22070944400648        1.79380005055816
H          -10.03852509908173       -3.02732839447801        2.73070765340529
H           -9.19341517204665       -5.89895117625920        2.00458593777980
H           -7.51305618218318       -5.56458598636291        1.60482235765503
H           -8.25900266909823       -4.81533680084099        3.02887498922273
H           -9.10639896940606       -1.60196340123527       -0.21051145732906
H           -9.14764203898496        0.74126904714406       -1.43096885028099
H          -10.86064386232737        3.01017664424710       -3.58390040431074
H          -10.76493370184479        2.21194781892011       -2.01900217306566
H           -9.94496246400292        1.51506601451542       -3.42909783706528
H           -9.88202058312000        4.34148615674131       -0.96426848530091
H          -10.12511973347010        5.09470476112866       -2.54345266139219
H           -8.56782819573073        5.23024287091747       -1.73108131959279
H           -8.94981311882790        4.11092830204607       -4.60454039991812
H           -7.91688415531500        2.69006160360835       -4.41837828661214
H           -7.39964440231335        4.24943973584946       -3.78015587166648
H           -6.58573361625566        4.16513772490373       -1.68898851764335
H           -4.94582430664397        3.11069331157213       -0.24808008931988
H           -3.27730249909326        1.50765776816001       -0.50520505637925
H           -1.12520742744661        2.14483277732799        0.48651237626057
H            1.34733492480969        0.18576775666842        2.50827938932258
H            3.47214019336238       -0.75805954040705        1.72753954966100

          :  Hamiltonian                  GFN2-xTB          :
         :: gradient norm              0.000059803937 Eh/a0 ::
         :: HOMO-LUMO gap              1.569354143542 eV    ::
         :: SCC energy              -161.023996990703 Eh    ::
         :: -> dispersion             -0.140318043906 Eh    ::
         :: -> Gsolv                  -0.068113455259 Eh    ::
         :: repulsion energy           2.675198759897 Eh    ::

    * Orbital Energies and Occupations

         #    Occupation            Energy/Eh            Energy/eV
      -------------------------------------------------------------
         1        2.0000           -0.7252491             -19.7350
       ...           ...                  ...                  ...
       135        2.0000           -0.4181010             -11.3771
       136        2.0000           -0.4179700             -11.3735
       137        2.0000           -0.4105847             -11.1726
       138        2.0000           -0.4104590             -11.1692
       139        2.0000           -0.4090928             -11.1320
       140        2.0000           -0.4089484             -11.1281
       141        2.0000           -0.3987335             -10.8501
       142        2.0000           -0.3985872             -10.8461
       143        2.0000           -0.3858584             -10.4997
       144        2.0000           -0.3777323             -10.2786
       145        2.0000           -0.3775904             -10.2748
       146        2.0000           -0.3638553              -9.9010
       147        2.0000           -0.3635668              -9.8932 (HOMO)
       148                         -0.3058941              -8.3238 (LUMO)
       149                         -0.2942768              -8.0077
       150                         -0.2447073              -6.6588
       151                         -0.2445613              -6.6549
       152                         -0.2444207              -6.6510
       153                         -0.2441625              -6.6440
       154                         -0.2232635              -6.0753
       155                         -0.2216732              -6.0320
       156                         -0.2215118              -6.0276
       157                         -0.2135861              -5.8120
       158                         -0.1894761              -5.1559
       ...                                ...                  ...
       288                          0.7396296              20.1263
      -------------------------------------------------------------
                  HL-Gap            0.0576727 Eh            1.5694 eV

     #   Z          covCN         q      C6AA      α(0)
     1   6 C        3.761    -0.105    22.555     6.770
     2   6 C        3.902     0.025    20.093     6.372
     3   6 C        3.761    -0.105    22.560     6.771
     4   6 C        3.761    -0.107    22.599     6.777
     5   6 C        2.972     0.001    27.994     8.679
     6   6 C        2.931    -0.039    28.963     8.826
     7   6 C        2.909    -0.053    29.312     8.878
     8   6 C        3.069     0.041    27.000     8.520
     9   6 C        3.063    -0.017    28.363     8.733
    10   6 C        2.918    -0.043    29.079     8.843
    11   6 C        3.064    -0.016    28.352     8.731
    12   6 C        2.920    -0.039    28.977     8.828
    13   6 C        2.972     0.001    27.995     8.679
    14   6 C        3.903     0.025    20.093     6.372
    15   6 C        3.761    -0.105    22.558     6.771
    16   6 C        3.761    -0.107    22.600     6.777
    17   6 C        3.761    -0.105    22.558     6.771
    18   6 C        2.928    -0.043    29.080     8.844
    19   6 C        2.909    -0.054    29.330     8.880
    20   6 C        3.067     0.041    27.009     8.522
    21   7 N        2.799    -0.035    21.918     6.953
    22   6 C        2.912     0.079    26.234     8.399
    23   6 C        2.919    -0.041    29.024     8.834
    24   6 C        2.923    -0.013    28.341     8.730
    25   6 C        2.971    -0.019    28.480     8.754
    26   6 C        2.822     0.210    23.557     7.953
    27   8 O        0.857    -0.405    21.784     6.258
    28   6 C        2.822     0.210    23.550     7.952
    29   8 O        0.857    -0.405    21.772     6.256
    30   6 C        2.971    -0.019    28.477     8.753
    31   6 C        2.922    -0.013    28.335     8.729
    32   6 C        2.919    -0.041    29.025     8.835
    33   6 C        2.912     0.079    26.236     8.399
    34   7 N        2.799    -0.035    21.923     6.954
    35   6 C        3.067     0.041    27.007     8.522
    36   6 C        2.909    -0.053    29.327     8.880
    37   6 C        2.928    -0.043    29.079     8.843
    38   6 C        2.972     0.001    27.995     8.679
    39   6 C        3.903     0.025    20.093     6.372
    40   6 C        3.761    -0.105    22.558     6.771
    41   6 C        3.761    -0.105    22.558     6.770
    42   6 C        3.761    -0.107    22.599     6.777
    43   6 C        2.920    -0.039    28.978     8.828
    44   6 C        3.063    -0.016    28.354     8.732
    45   6 C        3.063    -0.017    28.364     8.733
    46   6 C        2.918    -0.044    29.081     8.843
    47   6 C        2.972     0.001    27.997     8.679
    48   6 C        3.902     0.025    20.093     6.372
    49   6 C        3.761    -0.107    22.599     6.777
    50   6 C        3.761    -0.105    22.555     6.770
    51   6 C        3.761    -0.105    22.559     6.771
    52   6 C        2.931    -0.039    28.964     8.826
    53   6 C        2.909    -0.053    29.314     8.878
    54   6 C        3.069     0.042    27.000     8.520
    55   6 C        2.920    -0.041    29.013     8.833
    56   6 C        2.919    -0.019    28.484     8.752
    57   6 C        2.919    -0.019    28.484     8.752
    58   6 C        2.919    -0.041    29.013     8.833
    59   1 H        0.925     0.039     2.466     2.456
    60   1 H        0.925     0.036     2.505     2.475
    61   1 H        0.925     0.033     2.548     2.496
    62   1 H        0.925     0.038     2.469     2.457
    63   1 H        0.925     0.033     2.541     2.493
    64   1 H        0.925     0.036     2.500     2.473
    65   1 H        0.925     0.037     2.484     2.465
    66   1 H        0.925     0.037     2.495     2.470
    67   1 H        0.925     0.036     2.499     2.472
    68   1 H        0.926     0.034     2.532     2.488
    69   1 H        0.926     0.030     2.591     2.517
    70   1 H        0.926     0.042     2.416     2.431
    71   1 H        0.926     0.036     2.503     2.474
    72   1 H        0.925     0.037     2.487     2.466
    73   1 H        0.925     0.033     2.550     2.497
    74   1 H        0.925     0.039     2.468     2.457
    75   1 H        0.925     0.036     2.506     2.475
    76   1 H        0.925     0.038     2.482     2.464
    77   1 H        0.925     0.036     2.506     2.475
    78   1 H        0.925     0.037     2.488     2.466
    79   1 H        0.925     0.032     2.551     2.498
    80   1 H        0.925     0.038     2.470     2.458
    81   1 H        0.926     0.041     2.431     2.438
    82   1 H        0.926     0.030     2.586     2.515
    83   1 H        0.926     0.060     2.193     2.316
    84   1 H        0.926     0.061     2.189     2.314
    85   1 H        0.926     0.060     2.194     2.316
    86   1 H        0.926     0.060     2.194     2.316
    87   1 H        0.926     0.031     2.578     2.511
    88   1 H        0.926     0.041     2.430     2.438
    89   1 H        0.925     0.033     2.549     2.497
    90   1 H        0.925     0.037     2.488     2.467
    91   1 H        0.925     0.039     2.469     2.457
    92   1 H        0.925     0.037     2.487     2.466
    93   1 H        0.925     0.038     2.471     2.458
    94   1 H        0.925     0.032     2.552     2.498
    95   1 H        0.925     0.037     2.483     2.464
    96   1 H        0.925     0.036     2.506     2.476
    97   1 H        0.925     0.036     2.506     2.475
    98   1 H        0.926     0.036     2.505     2.475
    99   1 H        0.926     0.043     2.415     2.430
   100   1 H        0.925     0.037     2.484     2.465
   101   1 H        0.925     0.036     2.499     2.472
   102   1 H        0.925     0.037     2.494     2.470
   103   1 H        0.925     0.033     2.549     2.497
   104   1 H        0.925     0.039     2.466     2.456
   105   1 H        0.925     0.036     2.506     2.476
   106   1 H        0.925     0.039     2.468     2.457
   107   1 H        0.925     0.033     2.541     2.493
   108   1 H        0.925     0.036     2.502     2.473
   109   1 H        0.926     0.034     2.536     2.490
   110   1 H        0.926     0.029     2.600     2.521
   111   1 H        0.926     0.059     2.206     2.322
   112   1 H        0.926     0.043     2.408     2.426
   113   1 H        0.926     0.045     2.389     2.417
   114   1 H        0.926     0.059     2.206     2.323

molecular dipole:
                 x           y           z       tot (Debye)
 q only:       -0.021      -1.927      -2.133
   full:       -0.007      -1.790      -2.004       6.830

 projected vibrational frequencies (cm⁻¹)
eigval :       -0.00    -0.00     0.00     0.00     0.00     0.00
eigval :        2.37     4.61     6.12    19.99    20.85    26.29
eigval :       29.39    30.43    31.24    32.82    33.69    53.87
eigval :       57.46    67.01    72.49    74.92    77.14    92.91
eigval :       98.46   101.41   108.03   112.94   115.58   126.10
eigval :      135.55   159.51   160.46   165.89   175.54   180.54
eigval :      181.12   184.40   190.14   194.33   197.88   217.79
eigval :      219.78   220.38   223.87   228.76   233.85   239.32
eigval :      242.27   254.56   258.32   265.94   270.14   274.74
eigval :      281.62   300.36   302.89   311.72   316.64   318.58
eigval :      319.85   324.62   325.78   326.15   336.38   347.53
eigval :      350.97   354.96   356.05   357.44   361.62   367.96
eigval :      377.84   382.55   387.50   392.30   400.42   403.37
eigval :      411.41   412.32   440.58   441.71   443.24   444.43
eigval :      455.31   458.11   460.27   461.83   466.18   466.68
eigval :      490.75   492.14   507.43   510.82   519.04   519.45
eigval :      570.65   570.82   581.91   583.41   584.52   589.39
eigval :      601.02   601.66   625.34   626.41   641.00   641.29
eigval :      644.04   665.73   670.86   689.02   689.98   692.74
eigval :      707.21   709.12   714.37   718.14   721.42   732.24
eigval :      745.86   759.31   815.25   816.67   820.99   822.91
eigval :      828.31   831.55   832.04   833.85   864.17   866.12
eigval :      867.70   872.51   872.63   875.76   876.30   881.79
eigval :      884.95   905.87   907.28   913.60   915.62   919.52
eigval :      923.78   924.18   924.45   928.16   931.62   935.18
eigval :      938.36   941.80   949.73   958.62   958.95   959.17
eigval :      959.43   961.23   961.79   962.26   962.40   962.59
eigval :      963.01   963.10   963.92   999.83  1013.98  1031.30
eigval :     1031.86  1034.59  1034.79  1035.00  1035.06  1035.22
eigval :     1035.80  1038.52  1038.92  1052.24  1114.00  1114.40
eigval :     1128.49  1128.77  1133.81  1134.16  1142.45  1142.82
eigval :     1173.08  1176.67  1177.91  1182.49  1205.17  1211.73
eigval :     1225.22  1225.25  1225.33  1225.41  1226.55  1227.04
eigval :     1229.80  1230.61  1231.19  1232.19  1233.07  1245.95
eigval :     1247.70  1254.09  1257.94  1259.90  1260.88  1264.10
eigval :     1282.88  1283.08  1295.99  1296.60  1302.97  1303.27
eigval :     1330.13  1330.92  1345.02  1345.24  1355.67  1356.20
eigval :     1367.07  1369.08  1398.32  1398.85  1400.87  1401.81
eigval :     1402.59  1402.67  1402.77  1403.28  1407.50  1407.75
eigval :     1417.97  1418.23  1426.48  1426.67  1426.89  1427.34
eigval :     1432.71  1433.59  1471.09  1471.25  1478.98  1479.40
eigval :     1482.29  1483.40  1488.48  1488.72  1489.22  1490.85
eigval :     1491.13  1491.80  1491.99  1492.23  1498.30  1498.41
eigval :     1498.76  1500.09  1502.36  1502.66  1502.70  1504.03
eigval :     1511.16  1511.42  1511.55  1511.76  1517.23  1517.64
eigval :     1517.79  1517.99  1541.50  1542.11  1567.04  1568.30
eigval :     1570.90  1571.16  1582.78  1582.90  1601.36  1601.37
eigval :     1613.37  1613.44  1649.11  1660.06  3018.67  3018.93
eigval :     3019.05  3019.27  3020.41  3020.52  3020.64  3021.05
eigval :     3023.62  3023.68  3023.98  3024.09  3024.99  3025.16
eigval :     3025.23  3025.76  3027.28  3027.55  3027.65  3027.99
eigval :     3030.62  3030.64  3030.83  3031.22  3035.39  3035.49
eigval :     3035.85  3035.88  3043.37  3044.45  3044.64  3045.17
eigval :     3046.80  3047.81  3047.93  3048.45  3080.38  3081.96
eigval :     3083.57  3084.63  3085.02  3087.33  3088.32  3088.61
eigval :     3092.40  3092.69  3093.18  3094.58  3101.70  3102.51
eigval :     3103.71  3104.06  3118.31  3118.83  3119.24  3119.60

   temp. (K)  partition function   enthalpy   heat capacity  entropy
                                   cal/mol     cal/K/mol   cal/K/mol   J/K/mol
 298.15  VIB  0.189E+28            33466.995    203.683    210.541
         ROT  0.278E+09              888.752      2.981     41.619
         INT  0.527E+36            34355.747    206.663    252.160
         TR   0.205E+29             1481.254      4.968     45.762
         TOT                       35837.0012   211.6315   297.9228  1246.5091

       T/K    H(0)-H(T)+PV         H(T)/Eh          T*S/Eh         G(T)/Eh
   ------------------------------------------------------------------------
    298.15    0.571099E-01    0.998724E+00    0.141553E+00    0.857172E+00
   ------------------------------------------------------------------------

         :::::::::::::::::::::::::::::::::::::::::::::::::::::
         ::                  THERMODYNAMIC                  ::
         :::::::::::::::::::::::::::::::::::::::::::::::::::::
         :: total free energy        -157.491626525991 Eh   ::
         ::.................................................::
         :: total energy             -158.348798231096 Eh   ::
         :: zero point energy           0.941614554279 Eh   ::
         :: G(RRHO) w/o ZPVE           -0.084442849174 Eh   ::
         :: G(RRHO) contrib.            0.857171705105 Eh   ::
         :::::::::::::::::::::::::::::::::::::::::::::::::::::

           -------------------------------------------------
          | TOTAL ENERGY             -158.348798231096 Eh   |
          | TOTAL ENTHALPY           -157.350073780232 Eh   |
          | TOTAL FREE ENERGY        -157.491626525991 Eh   |
          | GRADIENT NORM               0.000059805959 Eh/α |
          | HOMO-LUMO GAP               1.569353613430 eV   |
           -------------------------------------------------

 * finished run on 2025/09/12 at 10:52:53.177
