   * xtb version 6.7.1 (edcfbbe) compiled by 'albert@albert-system' on 2024-07-22

   ID    Z sym.   atoms
    1    6 C      1-20, 22-26, 28, 30-33, 35-58
    2    7 N      21, 34
    3    8 O      27, 29
    4    1 H      59-114

          program call               : xtb data2507/toluene/DC-TC/DC-TC_toluene_T1_crest.xyz --gfn 2 --uhf 2 --gbsa toluene --ohess vtight --parallel 40 --molden --ceasefiles --namespace data2507/toluene/DC-TC/DC-TC_toluene_T1_finalOpt
      * Solvation model:               GBSA
        Solvent                        toluene
        Solvent mass                       9.2140E+01 g/mol
          :  Hamiltonian                  GFN2-xTB          :
 * total energy  :  -158.2837156 Eh     change       -0.1661968E-07 Eh
 * total energy  :  -158.2842090 Eh     change       -0.4934313E-03 Eh
 * total energy  :  -158.2844808 Eh     change       -0.2717954E-03 Eh
 * total energy  :  -158.2846129 Eh     change       -0.1320613E-03 Eh
 * total energy  :  -158.2847797 Eh     change       -0.1668286E-03 Eh
 * total energy  :  -158.2849468 Eh     change       -0.1670465E-03 Eh
 * total energy  :  -158.2850809 Eh     change       -0.1341341E-03 Eh
 * total energy  :  -158.2851592 Eh     change       -0.7828031E-04 Eh
 * total energy  :  -158.2851981 Eh     change       -0.3888568E-04 Eh
 * total energy  :  -158.2852231 Eh     change       -0.2499694E-04 Eh
 * total energy  :  -158.2855464 Eh     change       -0.1300078E-05 Eh
 * total energy  :  -158.2855476 Eh     change       -0.1204709E-05 Eh
 * total energy  :  -158.2855488 Eh     change       -0.1276631E-05 Eh
 * total energy  :  -158.2855495 Eh     change       -0.6668664E-06 Eh
 * total energy  :  -158.2855500 Eh     change       -0.5327211E-06 Eh
 * total energy  :  -158.2855508 Eh     change       -0.7562097E-06 Eh
 * total energy  :  -158.2855510 Eh     change       -0.2003454E-06 Eh
 * total energy  :  -158.2855513 Eh     change       -0.3072651E-06 Eh
 * total energy  :  -158.2855513 Eh     change       -0.5385715E-08 Eh
   *** GEOMETRY OPTIMIZATION CONVERGED AFTER 58 ITERATIONS ***

 final structure:
================
114
 xtb: 6.7.1 (edcfbbe)
C            6.09167176547288       -4.08274316181385       -0.58851145063112
C            6.50646068716350       -2.63437643521217       -0.31195250065212
C            7.03710916846658       -2.55579669268442        1.12771141967803
C            7.62348924558007       -2.26096197131010       -1.29869058451309
C            5.35529023333887       -1.65391627332181       -0.47326338067993
C            5.58698623312883       -0.29090847727300       -0.24487911947426
C            4.60191528554692        0.66908191959210       -0.36658875990021
C            3.32545281305607        0.25329337700711       -0.71920567951147
C            3.07229644840214       -1.11087493052103       -0.98508426179794
C            4.08013473307645       -2.05353097561486       -0.85669396898745
C            1.68896764313395       -1.20097377933467       -1.38082726916276
C            0.87450635611038       -2.25284984597733       -1.75898101489304
C           -0.46540715845360       -2.02428575932474       -2.06817528266355
C           -1.33277032462694       -3.18670812181323       -2.52397082927739
C           -2.78802016833399       -2.78034989146341       -2.77388639813626
C           -1.32657380461349       -4.28008337242068       -1.44711064437644
C           -0.75543371394955       -3.74410348397745       -3.83489568424558
C           -0.95932487019949       -0.72258807917457       -1.96093622053450
C           -0.16323783463652        0.34856918279413       -1.59901064318120
C            1.17713259907329        0.11414992857576       -1.33275562568037
N            2.17577530693308        0.98610158363381       -0.93870053372695
C            1.98897305698254        2.35879055051814       -0.76641421757675
C            1.25630229371101        3.07087464676406       -1.71784513954168
C            0.89588454834457        4.37716668682635       -1.47826291179932
C            1.28823807228881        5.02006206957406       -0.30210348750261
C            0.71897842862735        6.36563752940786       -0.01940747874641
O            1.40436661940092        7.39935432341363        0.12928560618818
C           -0.75096567952348        6.36227215792478       -0.00803777559023
O           -1.44112554876073        7.39209437226876       -0.16172721219745
C           -1.31397857849541        5.01541016942117        0.28079758957572
C           -0.91870094214967        4.37966495939424        1.45984840597754
C           -1.27253113231486        3.07258738031720        1.70501033265227
C           -2.00115416030027        2.35263686368861        0.75641039397218
N           -2.18074482405140        0.97963858175827        0.93427818167958
C           -1.17755992850858        0.11437023598881        1.33178744146028
C            0.16139959702385        0.35679074362938        1.59788088267822
C            0.96306017522150       -0.70895182838340        1.96354112158405
C            0.47610657042378       -2.01295127468588        2.07466303714124
C            1.34950455474595       -3.16940674953553        2.53419631896793
C            0.77509449801493       -3.72566010990056        3.84688294558297
C            2.80264294256403       -2.75472501135540        2.78270133166273
C            1.34903531915889       -4.26619149331909        1.46078929819085
C           -0.86239720933841       -2.24963312478298        1.76569476115819
C           -1.68234599915759       -1.20331178366871        1.38393353031986
C           -3.06588025698357       -1.12206424897272        0.98711812681380
C           -4.06846453324507       -2.07068957569932        0.86121204545765
C           -5.34544881640730       -1.67940581906448        0.47544660424265
C           -6.49104377253699       -2.66677775054015        0.31631048305838
C           -7.61139439625799       -2.29583643815641        1.30019013412988
C           -7.02027668822903       -2.59641598197679       -1.12429294651370
C           -6.06869418484191       -4.11181677606360        0.59877400290999
C           -5.58446130379635       -0.31845816688768        0.24241084628888
C           -4.60479269575039        0.64735819540074        0.36173296883141
C           -3.32632398758172        0.23977960125593        0.71654435139171
C           -2.48007065725131        3.01456036183805       -0.37544511771751
C           -2.15585630683027        4.33986445142915       -0.59745669145922
C            2.13355492385536        4.35252855494981        0.57897595586358
C            2.46460476279528        3.02797876163488        0.36253916439033
H            6.95013986167917       -4.73641909161888       -0.44777735767498
H            5.31060628877236       -4.40443898866834        0.09584776450939
H            5.74551386744060       -4.20296978711001       -1.61256787650730
H            7.85351276365847       -3.26210524430822        1.26255693467104
H            7.40768941993935       -1.56196550308378        1.36280755425539
H            6.24745955926400       -2.80185671879215        1.83435008127443
H            8.44650767703540       -2.96750348914098       -1.21429336165444
H            8.01112642044194       -1.26464196130522       -1.10489262624359
H            7.24920873022574       -2.28800968817417       -2.32039311659031
H            6.57625297288485        0.03840109246453        0.03220600013109
H            4.83148062896013        1.71138548095643       -0.20721388342290
H            3.85701416532355       -3.08573670472810       -1.06643797506479
H            1.29041142995166       -3.24594144495200       -1.81842198487785
H           -3.24559516700034       -2.39011938984210       -1.86709005844415
H           -3.35456481960004       -3.65371127928959       -3.09156875739113
H           -2.86094384335374       -2.03448326015164       -3.56224775898379
H           -1.68721171421874       -3.86814737499831       -0.50849161470807
H           -0.32955798773865       -4.68003673388134       -1.29036625483077
H           -1.97713885436715       -5.09968652990191       -1.74509487384362
H           -0.74687340319924       -2.97223405049804       -4.60220485327586
H            0.26192379356639       -4.10103732582560       -3.70019533008517
H           -1.36444112562082       -4.57351754361450       -4.18821268385354
H           -1.99826364103069       -0.52438484313314       -2.16327483406646
H           -0.58562125261167        1.33804120048947       -1.51683815728805
H            0.97188996850647        2.59195478975397       -2.64196257838891
H            0.30464476739013        4.91673163594015       -2.20313256583720
H           -0.33046058497672        4.92542738066994        2.18251742119386
H           -0.98580987555035        2.59910628586922        2.63121274659104
H            0.57857203540122        1.34821529278162        1.51268321766411
H            2.00084763128006       -0.50452873035420        2.16562054466278
H            0.76377173789057       -2.95175883066582        4.61210477318463
H            1.38760387081507       -4.55167765566970        4.20211521718237
H           -0.24088764403668       -4.08704790105617        3.71363181606307
H            3.25809554008158       -2.36488648444395        1.87467271945454
H            2.87178177236939       -2.00610605161206        3.56879493102735
H            3.37372244584465       -3.62418032338913        3.10295339556371
H            0.35419715122166       -4.67216583543949        1.30568937036567
H            1.70699058083783       -3.85515759208966        0.52075292515937
H            2.00423853396366       -5.08126431435054        1.76103602142745
H           -1.27297570506291       -3.24475578942384        1.82795574970812
H           -3.83989057888475       -3.10093102821478        1.07465559333570
H           -8.00408541183976       -1.30228301848780        1.10239939710974
H           -7.23828133980310       -2.31726292062091        2.32244777902805
H           -8.43056650151904       -3.00702035941984        1.21728336906176
H           -6.22878686594808       -2.84240586486914       -1.82889616234655
H           -7.39441391921721       -1.60503845222415       -1.36410123551501
H           -7.83376667310603       -3.30646896221677       -1.25711093835571
H           -6.92336015092170       -4.77073867980348        0.45933957272018
H           -5.72321487590697       -4.22632991824199        1.62371333134634
H           -5.28498285824087       -4.43175387548872       -0.08337461897292
H           -6.57529194958204        0.00449856412929       -0.03655866042914
H           -4.84000599562637        1.68784773196451        0.19883545094351
H           -3.06531516461617        2.47866164634583       -1.10688850788852
H           -2.50698465705722        4.84216482047243       -1.48671112137415
H            2.48225167969307        4.86045194065795        1.46599699767368
H            3.05277891167752        2.49821055467257        1.09609981933151

          :  Hamiltonian                  GFN2-xTB          :
         :: gradient norm              0.000136601353 Eh/a0 ::
         :: HOMO-LUMO gap              1.191319752803 eV    ::
         :: SCC energy              -160.951036384775 Eh    ::
         :: -> dispersion             -0.170570733306 Eh    ::
         :: -> Gsolv                  -0.073852316973 Eh    ::
         :: repulsion energy           2.665485081498 Eh    ::

    * Orbital Energies and Occupations

         #    Occupation            Energy/Eh            Energy/eV
      -------------------------------------------------------------
         1        2.0000           -0.6921943             -18.8356
       ...           ...                  ...                  ...
       136        2.0000           -0.4159601             -11.3189
       137        2.0000           -0.4158412             -11.3156
       138        2.0000           -0.4144775             -11.2785
       139        2.0000           -0.4141430             -11.2694
       140        2.0000           -0.4072117             -11.0808
       141        2.0000           -0.4058949             -11.0450
       142        2.0000           -0.4024728             -10.9518
       143        2.0000           -0.3872713             -10.5382
       144        2.0000           -0.3839858             -10.4488
       145        1.9874           -0.3709151             -10.0931
       146        1.5408           -0.3669304              -9.9847
       147        1.4718           -0.3666679              -9.9775
       148        1.0000           -0.3042651              -8.2795 (HOMO)
       149                         -0.2604844              -7.0881 (LUMO)
       150                         -0.2516890              -6.8488
       151                         -0.2514738              -6.8430
       152                         -0.2468685              -6.7176
       153                         -0.2388077              -6.4983
       154                         -0.2374352              -6.4609
       155                         -0.2326648              -6.3311
       156                         -0.2284778              -6.2172
       157                         -0.2021832              -5.5017
       158                         -0.2003186              -5.4509
       159                         -0.1952737              -5.3137
       ...                                ...                  ...
       288                          0.7325695              19.9342
      -------------------------------------------------------------
                  HL-Gap            0.0437807 Eh            1.1913 eV

     #   Z          covCN         q      C6AA      α(0)
     1   6 C        3.761    -0.110    22.649     6.784
     2   6 C        3.903     0.027    20.063     6.367
     3   6 C        3.761    -0.107    22.593     6.776
     4   6 C        3.761    -0.106    22.572     6.773
     5   6 C        2.972     0.009    27.809     8.650
     6   6 C        2.929    -0.036    28.905     8.817
     7   6 C        2.908    -0.047    29.159     8.854
     8   6 C        3.072     0.044    26.948     8.512
     9   6 C        3.065    -0.012    28.259     8.717
    10   6 C        2.917    -0.039    28.970     8.826
    11   6 C        3.061    -0.012    28.261     8.718
    12   6 C        2.920    -0.034    28.842     8.807
    13   6 C        2.973     0.010    27.778     8.645
    14   6 C        3.903     0.027    20.063     6.367
    15   6 C        3.761    -0.107    22.601     6.777
    16   6 C        3.762    -0.109    22.623     6.780
    17   6 C        3.762    -0.106    22.578     6.774
    18   6 C        2.927    -0.040    28.990     8.830
    19   6 C        2.909    -0.047    29.155     8.854
    20   6 C        3.078     0.042    26.973     8.515
    21   7 N        2.800    -0.015    21.548     6.894
    22   6 C        2.913     0.063    26.599     8.457
    23   6 C        2.922    -0.041    29.015     8.833
    24   6 C        2.925    -0.031    28.766     8.796
    25   6 C        2.976    -0.006    28.175     8.707
    26   6 C        2.828     0.165    24.439     8.101
    27   8 O        0.856    -0.459    22.889     6.414
    28   6 C        2.828     0.165    24.439     8.101
    29   8 O        0.856    -0.459    22.890     6.414
    30   6 C        2.976    -0.006    28.175     8.707
    31   6 C        2.925    -0.031    28.766     8.796
    32   6 C        2.922    -0.041    29.015     8.833
    33   6 C        2.912     0.063    26.599     8.457
    34   7 N        2.800    -0.015    21.549     6.895
    35   6 C        3.078     0.042    26.973     8.515
    36   6 C        2.909    -0.047    29.156     8.854
    37   6 C        2.927    -0.040    28.990     8.830
    38   6 C        2.973     0.010    27.779     8.645
    39   6 C        3.903     0.027    20.063     6.367
    40   6 C        3.761    -0.106    22.578     6.774
    41   6 C        3.761    -0.107    22.601     6.777
    42   6 C        3.762    -0.109    22.623     6.780
    43   6 C        2.920    -0.034    28.842     8.807
    44   6 C        3.061    -0.012    28.261     8.718
    45   6 C        3.065    -0.012    28.259     8.717
    46   6 C        2.917    -0.039    28.970     8.826
    47   6 C        2.972     0.009    27.809     8.650
    48   6 C        3.903     0.027    20.064     6.367
    49   6 C        3.761    -0.106    22.572     6.773
    50   6 C        3.761    -0.107    22.593     6.776
    51   6 C        3.761    -0.110    22.648     6.784
    52   6 C        2.929    -0.036    28.905     8.817
    53   6 C        2.908    -0.047    29.159     8.854
    54   6 C        3.072     0.044    26.948     8.512
    55   6 C        2.920    -0.042    29.032     8.836
    56   6 C        2.920    -0.024    28.598     8.769
    57   6 C        2.920    -0.024    28.598     8.769
    58   6 C        2.920    -0.042    29.032     8.836
    59   1 H        0.925     0.039     2.468     2.457
    60   1 H        0.925     0.042     2.420     2.433
    61   1 H        0.925     0.038     2.479     2.462
    62   1 H        0.925     0.040     2.448     2.447
    63   1 H        0.925     0.037     2.491     2.468
    64   1 H        0.925     0.038     2.470     2.458
    65   1 H        0.925     0.040     2.444     2.445
    66   1 H        0.925     0.036     2.496     2.471
    67   1 H        0.925     0.034     2.535     2.490
    68   1 H        0.926     0.040     2.450     2.448
    69   1 H        0.926     0.036     2.507     2.476
    70   1 H        0.926     0.053     2.288     2.365
    71   1 H        0.926     0.048     2.348     2.396
    72   1 H        0.925     0.039     2.466     2.456
    73   1 H        0.925     0.039     2.466     2.456
    74   1 H        0.925     0.034     2.532     2.489
    75   1 H        0.925     0.041     2.437     2.441
    76   1 H        0.925     0.042     2.418     2.432
    77   1 H        0.925     0.040     2.443     2.444
    78   1 H        0.925     0.032     2.554     2.499
    79   1 H        0.925     0.040     2.455     2.450
    80   1 H        0.925     0.042     2.426     2.436
    81   1 H        0.926     0.045     2.380     2.413
    82   1 H        0.926     0.031     2.565     2.505
    83   1 H        0.926     0.058     2.228     2.334
    84   1 H        0.926     0.035     2.519     2.482
    85   1 H        0.926     0.035     2.519     2.482
    86   1 H        0.926     0.058     2.228     2.334
    87   1 H        0.926     0.031     2.565     2.505
    88   1 H        0.926     0.045     2.381     2.413
    89   1 H        0.925     0.032     2.554     2.499
    90   1 H        0.925     0.042     2.426     2.436
    91   1 H        0.925     0.040     2.455     2.450
    92   1 H        0.925     0.039     2.467     2.456
    93   1 H        0.925     0.034     2.532     2.489
    94   1 H        0.925     0.039     2.466     2.456
    95   1 H        0.925     0.042     2.418     2.432
    96   1 H        0.925     0.041     2.436     2.441
    97   1 H        0.925     0.040     2.443     2.444
    98   1 H        0.926     0.048     2.348     2.396
    99   1 H        0.926     0.053     2.288     2.365
   100   1 H        0.925     0.036     2.496     2.471
   101   1 H        0.925     0.034     2.535     2.490
   102   1 H        0.925     0.040     2.444     2.445
   103   1 H        0.925     0.038     2.470     2.458
   104   1 H        0.925     0.037     2.491     2.468
   105   1 H        0.925     0.040     2.448     2.447
   106   1 H        0.925     0.039     2.468     2.457
   107   1 H        0.925     0.038     2.479     2.462
   108   1 H        0.925     0.042     2.420     2.433
   109   1 H        0.926     0.040     2.451     2.448
   110   1 H        0.926     0.036     2.507     2.476
   111   1 H        0.926     0.060     2.196     2.317
   112   1 H        0.926     0.045     2.382     2.414
   113   1 H        0.926     0.045     2.382     2.414
   114   1 H        0.926     0.060     2.196     2.317

molecular dipole:
                 x           y           z       tot (Debye)
 q only:        0.025      -9.588       0.019
   full:        0.023      -8.971       0.018      22.803

 projected vibrational frequencies (cm⁻¹)
eigval :       -0.00     0.00     0.00     0.00     0.00     0.00
eigval :       15.61    19.91    22.72    26.25    30.45    31.54
eigval :       38.35    38.69    40.77    44.59    47.45    57.40
eigval :       66.48    68.78    69.86    79.59    83.54    92.64
eigval :       94.34   103.19   107.42   128.86   131.81   141.41
eigval :      161.84   162.96   167.62   174.05   179.93   183.58
eigval :      189.62   191.66   193.13   202.04   202.83   209.56
eigval :      225.01   229.60   230.75   231.35   233.88   242.09
eigval :      246.30   249.43   258.55   271.51   273.46   276.70
eigval :      278.79   302.37   304.22   311.59   315.62   317.26
eigval :      318.14   328.81   335.85   337.70   340.65   348.94
eigval :      351.48   353.38   354.69   356.49   380.51   381.57
eigval :      384.59   385.66   388.37   394.27   405.15   408.06
eigval :      408.76   409.17   417.13   443.57   443.82   444.83
eigval :      445.16   457.93   461.50   466.90   467.72   472.97
eigval :      477.26   487.98   503.45   516.32   516.82   525.68
eigval :      548.77   572.56   579.43   582.32   582.72   586.03
eigval :      591.85   593.42   606.09   620.08   627.56   642.61
eigval :      642.85   643.34   655.86   681.56   690.35   691.18
eigval :      692.22   696.92   707.47   709.23   718.67   719.47
eigval :      730.56   754.23   812.77   812.97   824.36   824.97
eigval :      827.81   829.11   831.34   831.43   860.43   861.06
eigval :      863.91   869.24   870.08   872.85   872.97   879.84
eigval :      880.63   907.82   909.82   914.39   915.63   917.44
eigval :      921.52   923.66   924.39   925.47   925.70   934.95
eigval :      937.14   939.73   946.77   958.55   958.69   960.96
eigval :      961.32   962.37   962.43   962.77   963.01   963.93
eigval :      964.29   965.42   968.48   993.98  1013.13  1030.69
eigval :     1030.76  1033.91  1034.07  1034.16  1035.01  1036.11
eigval :     1038.37  1038.71  1039.54  1039.74  1109.34  1111.77
eigval :     1123.99  1125.57  1129.88  1130.13  1140.43  1142.55
eigval :     1165.19  1165.34  1166.62  1172.24  1187.03  1187.94
eigval :     1213.99  1215.18  1222.38  1222.48  1224.41  1224.63
eigval :     1226.17  1226.23  1228.26  1228.51  1228.74  1229.41
eigval :     1240.95  1243.27  1252.48  1253.47  1255.16  1256.58
eigval :     1281.25  1281.34  1289.31  1290.21  1296.97  1297.26
eigval :     1311.90  1313.67  1334.56  1337.32  1345.22  1348.73
eigval :     1362.22  1363.42  1393.01  1393.95  1400.05  1400.80
eigval :     1400.96  1401.03  1401.66  1402.07  1403.67  1403.72
eigval :     1410.71  1411.61  1426.11  1426.41  1426.95  1426.99
eigval :     1431.40  1431.83  1448.08  1456.71  1456.91  1465.49
eigval :     1468.70  1470.89  1470.97  1483.59  1488.57  1488.74
eigval :     1489.21  1490.48  1491.70  1491.85  1492.62  1496.09
eigval :     1496.27  1496.94  1501.82  1503.05  1503.53  1503.71
eigval :     1504.13  1511.16  1511.22  1513.46  1513.67  1515.96
eigval :     1516.32  1518.99  1520.72  1538.10  1539.12  1558.97
eigval :     1560.22  1560.59  1567.31  1571.43  1574.23  1574.40
eigval :     1575.94  1576.96  1592.11  1605.72  3018.72  3018.94
eigval :     3022.01  3022.03  3022.77  3022.86  3022.95  3023.04
eigval :     3024.25  3024.45  3025.95  3026.09  3028.13  3028.44
eigval :     3028.47  3028.54  3029.25  3029.31  3031.87  3031.92
eigval :     3034.16  3034.23  3034.89  3035.02  3040.93  3040.95
eigval :     3045.57  3045.59  3045.63  3045.64  3048.80  3048.95
eigval :     3049.02  3049.75  3055.27  3057.03  3081.45  3082.10
eigval :     3085.01  3085.49  3086.80  3086.97  3091.93  3092.59
eigval :     3097.77  3098.18  3098.33  3099.04  3099.07  3099.13
eigval :     3099.59  3100.17  3123.59  3123.85  3124.58  3124.67

   temp. (K)  partition function   enthalpy   heat capacity  entropy
                                   cal/mol     cal/K/mol   cal/K/mol   J/K/mol
 298.15  VIB  0.998E+24            33165.758    205.723    203.435
         ROT  0.534E+08              888.752      2.981     38.342
         INT  0.533E+32            34054.511    208.704    241.777
         TR   0.205E+29             1481.254      4.968     45.762
         TOT                       35535.7646   213.6721   287.5391  1203.0636

       T/K    H(0)-H(T)+PV         H(T)/Eh          T*S/Eh         G(T)/Eh
   ------------------------------------------------------------------------
    298.15    0.566298E-01    0.996791E+00    0.136619E+00    0.860172E+00
   ------------------------------------------------------------------------

         :::::::::::::::::::::::::::::::::::::::::::::::::::::
         ::                  THERMODYNAMIC                  ::
         :::::::::::::::::::::::::::::::::::::::::::::::::::::
         :: total free energy        -157.425379145941 Eh   ::
         ::.................................................::
         :: total energy             -158.285551304199 Eh   ::
         :: zero point energy           0.940161419992 Eh   ::
         :: G(RRHO) w/o ZPVE           -0.079989261734 Eh   ::
         :: G(RRHO) contrib.            0.860172158258 Eh   ::
         :::::::::::::::::::::::::::::::::::::::::::::::::::::

           -------------------------------------------------
          | TOTAL ENERGY             -158.285551304199 Eh   |
          | TOTAL ENTHALPY           -157.288760038629 Eh   |
          | TOTAL FREE ENERGY        -157.425379145941 Eh   |
          | GRADIENT NORM               0.000141001374 Eh/α |
          | HOMO-LUMO GAP               1.191333298018 eV   |
           -------------------------------------------------

 * finished run on 2025/09/12 at 11:24:46.413
