   * xtb version 6.7.1 (edcfbbe) compiled by 'albert@albert-system' on 2024-07-22

   ID    Z sym.   atoms
    1    6 C      1-20, 22-26, 28, 30-33, 35-58
    2    7 N      21, 34
    3    8 O      27, 29
    4    1 H      59-114

          program call               : xtb data2507/toluene/DC-TC/DC-TC_toluene_S0_finalOpt.xtbopt.xyz --gfn 2 --uhf 2 --gbsa toluene --ohess vtight --parallel 40 --molden --ceasefiles --namespace data2507/toluene/DC-TC/DC-TC_toluene_T1_preOpt
      * Solvation model:               GBSA
        Solvent                        toluene
        Solvent mass                       9.2140E+01 g/mol
          :  Hamiltonian                  GFN2-xTB          :
 * total energy  :  -158.2816110 Eh     change       -0.8081255E-07 Eh
 * total energy  :  -158.2850783 Eh     change       -0.3467329E-02 Eh
 * total energy  :  -158.2865476 Eh     change       -0.1469234E-02 Eh
 * total energy  :  -158.2871136 Eh     change       -0.5660147E-03 Eh
 * total energy  :  -158.2881400 Eh     change       -0.1026469E-02 Eh
 * total energy  :  -158.2886998 Eh     change       -0.5597190E-03 Eh
 * total energy  :  -158.2890669 Eh     change       -0.3671685E-03 Eh
 * total energy  :  -158.2891704 Eh     change       -0.1034621E-03 Eh
 * total energy  :  -158.2893439 Eh     change       -0.1734945E-03 Eh
 * total energy  :  -158.2894025 Eh     change       -0.5856953E-04 Eh
 * total energy  :  -158.2896386 Eh     change       -0.3950846E-06 Eh
 * total energy  :  -158.2896390 Eh     change       -0.4201084E-06 Eh
 * total energy  :  -158.2896395 Eh     change       -0.4534140E-06 Eh
 * total energy  :  -158.2896399 Eh     change       -0.4266669E-06 Eh
 * total energy  :  -158.2896403 Eh     change       -0.4159472E-06 Eh
 * total energy  :  -158.2896407 Eh     change       -0.3829159E-06 Eh
 * total energy  :  -158.2896411 Eh     change       -0.4227452E-06 Eh
 * total energy  :  -158.2896416 Eh     change       -0.4502535E-06 Eh
 * total energy  :  -158.2896416 Eh     change       -0.2523961E-08 Eh
   *** GEOMETRY OPTIMIZATION CONVERGED AFTER 68 ITERATIONS ***

 final structure:
================
114
 xtb: 6.7.1 (edcfbbe)
C            8.34578515717441       -3.01684927558775       -1.63773442007548
C            7.60160698902641       -3.33720543311683       -0.33195417678205
C            7.13165849731933       -4.79373594651839       -0.39697776255746
C            8.56017725138751       -3.19744866775062        0.86045803974253
C            6.45079064665381       -2.35699821086147       -0.16694011611284
C            6.73222799185057       -0.98564763588654       -0.09389403677980
C            5.75006832042930       -0.02417913738751        0.03498743283684
C            4.42852414920191       -0.44669139397373        0.08347150342600
C            4.11909474719480       -1.82481571341602        0.04568201319255
C            5.12512819043802       -2.76867391752084       -0.08246759359820
C            2.68500604126077       -1.92400280719813        0.16148106414737
C            1.80455448326765       -2.99451943553714        0.15619442938557
C            0.43646373724112       -2.76281600910111        0.25059245197508
C           -0.58779423672586       -3.88596661542962        0.25147927458716
C           -1.39043172167368       -3.82691307621447        1.55966859488395
C            0.05543199283168       -5.27216346050623        0.14547108494504
C           -1.53513670394719       -3.70262178712345       -0.94397731785265
C           -0.01613961954267       -1.43912829116209        0.33541756968590
C            0.83829541168548       -0.35559101167089        0.34019276468655
C            2.20327292422577       -0.60145660705589        0.27028856331641
N            3.26581652054615        0.28110151362057        0.22492465305756
C            3.12608784105256        1.67141040186112        0.22368474424698
C            3.75245979433744        2.45514713481700       -0.74636863243682
C            3.47120865532129        3.80247201832483       -0.83070762552125
C            2.53856812523791        4.38877363362312        0.02885760636925
C            2.10681041585819        5.77944439063210       -0.19058561518072
O            2.89661485583199        6.68927726085297       -0.51552223057861
C            0.66409873101948        6.04538476345329        0.00369357435213
O            0.24779041537975        7.20124731274608        0.23001531832723
C           -0.24238205638345        4.88951622002703       -0.09986350666061
C           -1.35466344436689        4.81189018149442        0.74576714495921
C           -2.17737118424427        3.70702834755152        0.72533361094779
C           -1.91754523788131        2.65154053600532       -0.15128306300095
N           -2.69525319270603        1.49047426762671       -0.11876308107388
C           -3.02036216535438        0.78044976499721        1.02036243493661
C           -2.66945025388814        0.99937425007530        2.34571017820858
C           -3.13818078230956        0.11344830937349        3.29509282896782
C           -3.93477509340654       -0.99495130512451        2.97624995457115
C           -4.44468432944041       -1.88474968674606        4.09893808398493
C           -5.28386980118691       -3.05860279108203        3.58540690835784
C           -5.32530895402157       -1.03827185529852        5.03175743164895
C           -3.25630870470111       -2.45693133587342        4.88579545501285
C           -4.23867315054626       -1.23040020625274        1.63979757787391
C           -3.78480363771689       -0.35356080328093        0.66688490889379
C           -3.92331523161731       -0.31882264392385       -0.76755276619471
C           -4.57418575606922       -1.14234473258669       -1.67261112684076
C           -4.55765259935980       -0.82697234800614       -3.02622610688085
C           -5.24453717270466       -1.68764639818034       -4.07490697185608
C           -6.30851007054877       -0.84751631842477       -4.79799867766409
C           -4.19550480975560       -2.17863903906342       -5.08442128528625
C           -5.93636749865899       -2.91402456274551       -3.47176661248114
C           -3.89105623195943        0.33707246656859       -3.43304317310727
C           -3.23671506675925        1.17514630036328       -2.55264704823947
C           -3.23532586669026        0.83363893448850       -1.20704304062827
C           -0.85868323735047        2.76018470706812       -1.05485437578879
C           -0.03997311887877        3.86713051679268       -1.03354472458502
C            2.00857713422356        3.62271086095185        1.07344291337547
C            2.29971585935475        2.28155880371278        1.16995802630371
H            9.16181722739933       -3.72131249139553       -1.78403106810288
H            7.66809896313421       -3.09255234139874       -2.48604398498349
H            8.76256955861547       -2.01362100180539       -1.62336770190199
H            7.99390178762815       -5.44552533115157       -0.52225961750926
H            6.62436315209837       -5.08336774218547        0.52041957201228
H            6.46608309133473       -4.95344405840462       -1.24221228983519
H            9.37770774911007       -3.90900462160650        0.76597110876964
H            8.03424600413606       -3.39748922181677        1.79200047055752
H            8.98481462722303       -2.19904946311838        0.91664003117820
H            7.75763992917010       -0.65312260202163       -0.13704487946917
H            6.00847834203820        1.02152012592124        0.10414475928286
H            4.85842163973979       -3.81131217177002       -0.11268608724579
H            2.20091557363815       -3.99206611725406        0.07130437213125
H           -0.72206228246790       -3.91645265240617        2.41417533430047
H           -2.10407941818502       -4.64751610273687        1.59323374982224
H           -1.93743076113476       -2.89198871518128        1.64701784377883
H            0.71819474039787       -5.46267390875986        0.98658005244164
H            0.61399802424991       -5.37543780442734       -0.78201832792875
H           -0.72215131769170       -6.03337672655544        0.15360268425174
H           -2.07600557551722       -2.76256428925481       -0.88294017816895
H           -0.97205189198696       -3.71344480180185       -1.87525667234346
H           -2.25949371660347       -4.51383009938312       -0.96942332208327
H           -1.07542164541068       -1.24631219483248        0.39718907679013
H            0.45136073314821        0.65107613353817        0.38122490458462
H            4.41680240400949        1.99659914814092       -1.46288554795473
H            3.92234912887359        4.41133615579211       -1.60043475267655
H           -1.54350250960739        5.62941589774421        1.42602529517018
H           -3.03450969716126        3.65919972079261        1.38000444765040
H           -2.04563897378102        1.83241601344258        2.63121914654790
H           -2.87347504021140        0.29547141759600        4.32489081677015
H           -6.16518258594429       -2.70812545021060        3.05302956391832
H           -5.62026976769587       -3.65760890679033        4.42923785794243
H           -4.69878175269334       -3.70029358397245        2.93129513292478
H           -6.15730479224914       -0.60732752363421        4.47780966149581
H           -5.72726442441731       -1.65866685148534        5.83001728468948
H           -4.76109417301650       -0.22704905662293        5.48382309744737
H           -3.61706099688564       -3.09616495536112        5.68881221462080
H           -2.62226309762169       -3.04969958617433        4.23086318707597
H           -2.65176735651503       -1.66957241507732        5.32701429519865
H           -4.82456367466129       -2.08187891145209        1.33844972379561
H           -5.08862017098182       -2.01379229742621       -1.30531643230371
H           -6.82757825077570       -1.45750289619272       -5.53431672616140
H           -5.86615996055711        0.00079057753520       -5.31289658264529
H           -7.03980508712033       -0.47022506196771       -4.08567018350266
H           -3.71440430612360       -1.34858248531067       -5.59437065763403
H           -4.66716631565751       -2.81011538132464       -5.83434291875272
H           -3.42769807219680       -2.75924395188270       -4.57711027323142
H           -6.40562484328298       -3.49024186954367       -4.26668007510218
H           -6.71328519742870       -2.62011665528279       -2.76961439745109
H           -5.22079737404314       -3.55972423911902       -2.96857608976693
H           -3.88589275082372        0.60572708537874       -4.47789641320330
H           -2.75602301423078        2.07472080021040       -2.90543703950226
H           -0.66545968733133        1.96077815519925       -1.75386340693235
H            0.76786935329338        3.94328511414975       -1.74460596736120
H            1.36872090091870        4.08999188851781        1.80613798548725
H            1.89288987300896        1.69358895984337        1.97863630308627

          :  Hamiltonian                  GFN2-xTB          :
         :: gradient norm              0.000055873522 Eh/a0 ::
         :: HOMO-LUMO gap              1.221526014415 eV    ::
         :: SCC energy              -160.952999140949 Eh    ::
         :: -> dispersion             -0.154147229640 Eh    ::
         :: -> Gsolv                  -0.078802960000 Eh    ::
         :: repulsion energy           2.663357581152 Eh    ::

    * Orbital Energies and Occupations

         #    Occupation            Energy/Eh            Energy/eV
      -------------------------------------------------------------
         1        2.0000           -0.6936794             -18.8760
       ...           ...                  ...                  ...
       136        2.0000           -0.4167084             -11.3392
       137        2.0000           -0.4162774             -11.3275
       138        2.0000           -0.4137307             -11.2582
       139        2.0000           -0.4135478             -11.2532
       140        2.0000           -0.4071524             -11.0792
       141        2.0000           -0.4063755             -11.0580
       142        2.0000           -0.4060899             -11.0503
       143        2.0000           -0.3848337             -10.4719
       144        2.0000           -0.3846768             -10.4676
       145        1.9183           -0.3702466             -10.0749
       146        1.7070           -0.3687848             -10.0351
       147        1.3748           -0.3674619              -9.9991
       148        1.0000           -0.3080317              -8.3820 (HOMO)
       149                         -0.2631411              -7.1604 (LUMO)
       150                         -0.2519824              -6.8568
       151                         -0.2499343              -6.8011
       152                         -0.2428176              -6.6074
       153                         -0.2384122              -6.4875
       154                         -0.2332426              -6.3469
       155                         -0.2298650              -6.2549
       156                         -0.2296742              -6.2498
       157                         -0.2045202              -5.5653
       158                         -0.1989691              -5.4142
       159                         -0.1945460              -5.2939
       ...                                ...                  ...
       288                          0.7299230              19.8622
      -------------------------------------------------------------
                  HL-Gap            0.0448906 Eh            1.2215 eV

     #   Z          covCN         q      C6AA      α(0)
     1   6 C        3.761    -0.106    22.580     6.774
     2   6 C        3.903     0.027    20.069     6.368
     3   6 C        3.761    -0.110    22.646     6.784
     4   6 C        3.761    -0.106    22.580     6.774
     5   6 C        2.973     0.010    27.801     8.649
     6   6 C        2.929    -0.036    28.907     8.817
     7   6 C        2.908    -0.046    29.140     8.851
     8   6 C        3.073     0.043    26.957     8.513
     9   6 C        3.064    -0.014    28.285     8.721
    10   6 C        2.917    -0.039    28.972     8.827
    11   6 C        3.062    -0.013    28.278     8.720
    12   6 C        2.916    -0.039    28.968     8.826
    13   6 C        2.973     0.010    27.792     8.647
    14   6 C        3.903     0.026    20.074     6.369
    15   6 C        3.761    -0.105    22.543     6.768
    16   6 C        3.761    -0.109    22.641     6.783
    17   6 C        3.761    -0.106    22.568     6.772
    18   6 C        2.929    -0.036    28.898     8.816
    19   6 C        2.908    -0.046    29.148     8.853
    20   6 C        3.078     0.042    26.971     8.514
    21   7 N        2.802    -0.015    21.537     6.893
    22   6 C        2.914     0.061    26.626     8.461
    23   6 C        2.919    -0.040    28.995     8.830
    24   6 C        2.922    -0.022    28.557     8.763
    25   6 C        2.972    -0.007    28.197     8.710
    26   6 C        2.824     0.171    24.325     8.082
    27   8 O        0.857    -0.455    22.804     6.403
    28   6 C        2.825     0.169    24.361     8.087
    29   8 O        0.857    -0.457    22.862     6.411
    30   6 C        2.970    -0.008    28.210     8.712
    31   6 C        2.922    -0.022    28.560     8.764
    32   6 C        2.919    -0.040    28.997     8.830
    33   6 C        2.912     0.061    26.635     8.463
    34   7 N        2.801    -0.017    21.574     6.898
    35   6 C        3.076     0.043    26.956     8.512
    36   6 C        2.908    -0.046    29.140     8.852
    37   6 C        2.929    -0.036    28.898     8.816
    38   6 C        2.972     0.010    27.800     8.649
    39   6 C        3.903     0.027    20.063     6.367
    40   6 C        3.761    -0.110    22.655     6.785
    41   6 C        3.762    -0.106    22.567     6.772
    42   6 C        3.761    -0.108    22.617     6.780
    43   6 C        2.917    -0.040    28.983     8.828
    44   6 C        3.063    -0.014    28.300     8.724
    45   6 C        3.064    -0.014    28.304     8.724
    46   6 C        2.917    -0.039    28.980     8.828
    47   6 C        2.973     0.010    27.800     8.649
    48   6 C        3.903     0.027    20.068     6.368
    49   6 C        3.761    -0.106    22.572     6.773
    50   6 C        3.761    -0.107    22.586     6.775
    51   6 C        3.761    -0.110    22.653     6.785
    52   6 C        2.930    -0.036    28.899     8.816
    53   6 C        2.908    -0.046    29.147     8.853
    54   6 C        3.074     0.043    26.961     8.513
    55   6 C        2.919    -0.041    29.014     8.833
    56   6 C        2.921    -0.032    28.804     8.801
    57   6 C        2.921    -0.031    28.779     8.797
    58   6 C        2.920    -0.040    28.985     8.829
    59   1 H        0.925     0.041     2.433     2.439
    60   1 H        0.925     0.035     2.517     2.481
    61   1 H        0.925     0.038     2.481     2.463
    62   1 H        0.925     0.040     2.455     2.450
    63   1 H        0.925     0.039     2.462     2.454
    64   1 H        0.925     0.039     2.462     2.454
    65   1 H        0.925     0.041     2.433     2.439
    66   1 H        0.925     0.035     2.516     2.481
    67   1 H        0.925     0.037     2.483     2.464
    68   1 H        0.926     0.040     2.443     2.444
    69   1 H        0.926     0.036     2.502     2.474
    70   1 H        0.926     0.053     2.287     2.365
    71   1 H        0.926     0.052     2.289     2.366
    72   1 H        0.925     0.032     2.552     2.498
    73   1 H        0.925     0.041     2.434     2.440
    74   1 H        0.925     0.041     2.438     2.442
    75   1 H        0.925     0.038     2.476     2.461
    76   1 H        0.925     0.038     2.479     2.462
    77   1 H        0.925     0.040     2.448     2.447
    78   1 H        0.925     0.040     2.447     2.446
    79   1 H        0.925     0.033     2.549     2.496
    80   1 H        0.925     0.042     2.419     2.432
    81   1 H        0.926     0.041     2.441     2.443
    82   1 H        0.926     0.033     2.542     2.493
    83   1 H        0.926     0.057     2.236     2.338
    84   1 H        0.926     0.046     2.376     2.411
    85   1 H        0.926     0.044     2.392     2.419
    86   1 H        0.926     0.056     2.241     2.341
    87   1 H        0.926     0.034     2.525     2.485
    88   1 H        0.926     0.040     2.454     2.449
    89   1 H        0.925     0.038     2.478     2.462
    90   1 H        0.925     0.039     2.468     2.457
    91   1 H        0.925     0.042     2.421     2.433
    92   1 H        0.925     0.033     2.539     2.492
    93   1 H        0.925     0.040     2.445     2.445
    94   1 H        0.925     0.037     2.495     2.470
    95   1 H        0.925     0.040     2.449     2.447
    96   1 H        0.925     0.041     2.438     2.442
    97   1 H        0.925     0.036     2.496     2.471
    98   1 H        0.926     0.054     2.265     2.354
    99   1 H        0.926     0.054     2.268     2.355
   100   1 H        0.925     0.040     2.442     2.444
   101   1 H        0.925     0.036     2.496     2.471
   102   1 H        0.925     0.034     2.531     2.488
   103   1 H        0.925     0.037     2.492     2.469
   104   1 H        0.925     0.041     2.441     2.443
   105   1 H        0.925     0.037     2.486     2.466
   106   1 H        0.925     0.039     2.464     2.455
   107   1 H        0.925     0.038     2.470     2.458
   108   1 H        0.925     0.041     2.431     2.438
   109   1 H        0.926     0.039     2.462     2.454
   110   1 H        0.926     0.034     2.529     2.487
   111   1 H        0.926     0.056     2.244     2.342
   112   1 H        0.926     0.036     2.501     2.473
   113   1 H        0.926     0.036     2.500     2.473
   114   1 H        0.926     0.057     2.237     2.339

molecular dipole:
                 x           y           z       tot (Debye)
 q only:       -1.857      -8.797       0.197
   full:       -1.730      -8.260       0.176      21.455

 projected vibrational frequencies (cm⁻¹)
eigval :       -0.00    -0.00    -0.00     0.00     0.00     0.00
eigval :        9.77    18.63    21.78    24.43    29.94    31.68
eigval :       32.21    34.47    35.27    42.78    47.87    51.98
eigval :       60.87    65.30    69.31    75.44    81.91    86.69
eigval :       98.79   103.07   109.11   119.49   122.85   137.30
eigval :      160.42   166.27   168.11   174.91   176.56   180.99
eigval :      186.53   188.79   195.62   202.97   206.16   215.22
eigval :      219.33   227.02   227.87   231.59   233.03   234.82
eigval :      246.38   252.57   258.39   259.91   267.33   278.00
eigval :      285.91   296.25   303.75   314.44   317.25   319.40
eigval :      320.82   324.47   331.19   333.87   339.04   344.98
eigval :      350.76   357.15   357.18   357.77   376.32   382.07
eigval :      385.82   390.13   393.34   398.47   404.77   405.58
eigval :      406.30   410.79   428.40   441.53   443.07   443.36
eigval :      445.17   454.56   462.03   465.44   465.93   466.87
eigval :      483.02   487.89   498.36   514.73   516.95   521.82
eigval :      547.94   571.19   579.82   582.84   584.13   586.55
eigval :      592.30   597.96   603.85   622.57   628.21   640.42
eigval :      643.08   645.78   658.29   684.76   686.94   691.43
eigval :      693.66   697.19   708.24   711.37   717.90   718.31
eigval :      730.69   753.68   812.94   814.99   826.05   826.51
eigval :      829.61   829.88   830.54   832.19   859.75   863.46
eigval :      869.84   870.26   871.81   872.23   872.45   872.89
eigval :      874.26   911.75   912.89   916.29   917.46   917.88
eigval :      921.80   923.29   924.50   924.99   927.28   933.53
eigval :      933.89   938.98   948.87   958.53   959.03   959.47
eigval :      960.87   962.16   962.53   962.69   962.82   963.28
eigval :      964.05   964.95   969.21   993.37  1014.20  1029.45
eigval :     1029.96  1033.76  1033.99  1035.05  1035.39  1036.33
eigval :     1037.74  1039.73  1040.35  1041.07  1108.70  1110.57
eigval :     1125.74  1126.53  1129.26  1133.77  1138.64  1140.63
eigval :     1157.38  1160.52  1161.21  1172.57  1191.83  1193.78
eigval :     1214.40  1216.94  1222.24  1222.30  1222.49  1224.10
eigval :     1226.98  1227.25  1227.33  1227.63  1228.25  1229.34
eigval :     1236.59  1237.80  1252.88  1253.89  1256.55  1260.82
eigval :     1279.17  1279.49  1287.82  1288.35  1298.80  1299.36
eigval :     1313.76  1319.68  1332.63  1334.21  1342.89  1346.85
eigval :     1361.63  1362.98  1395.82  1397.28  1400.71  1401.09
eigval :     1401.22  1401.49  1402.01  1402.52  1403.43  1406.85
eigval :     1410.17  1411.16  1425.78  1426.21  1427.10  1430.35
eigval :     1430.76  1431.48  1437.06  1457.91  1458.88  1461.28
eigval :     1469.10  1473.71  1473.81  1486.75  1488.25  1489.15
eigval :     1489.46  1490.14  1490.21  1491.11  1493.08  1496.04
eigval :     1496.62  1496.68  1498.77  1501.32  1502.15  1503.42
eigval :     1503.59  1510.39  1510.92  1512.44  1512.71  1514.74
eigval :     1515.21  1515.36  1516.85  1527.75  1531.39  1547.18
eigval :     1557.18  1557.22  1565.26  1569.87  1570.38  1571.45
eigval :     1572.38  1573.58  1589.49  1601.86  3020.36  3021.58
eigval :     3022.06  3022.09  3022.53  3023.02  3023.04  3023.14
eigval :     3025.13  3025.63  3025.93  3026.23  3026.38  3027.29
eigval :     3028.07  3028.87  3029.47  3029.74  3030.31  3031.80
eigval :     3032.89  3033.29  3034.27  3036.83  3037.51  3037.55
eigval :     3039.80  3040.47  3043.74  3044.96  3045.04  3045.27
eigval :     3047.83  3048.42  3049.36  3050.53  3083.78  3084.22
eigval :     3085.21  3085.88  3086.28  3087.51  3088.82  3091.13
eigval :     3094.65  3096.26  3097.71  3098.52  3098.91  3100.11
eigval :     3102.12  3105.68  3122.12  3124.53  3124.95  3127.42

   temp. (K)  partition function   enthalpy   heat capacity  entropy
                                   cal/mol     cal/K/mol   cal/K/mol   J/K/mol
 298.15  VIB  0.458E+25            33276.886    205.167    204.872
         ROT  0.140E+09              888.752      2.981     40.261
         INT  0.644E+33            34165.638    208.148    245.133
         TR   0.205E+29             1481.254      4.968     45.762
         TOT                       35646.8918   213.1165   290.8957  1217.1075

       T/K    H(0)-H(T)+PV         H(T)/Eh          T*S/Eh         G(T)/Eh
   ------------------------------------------------------------------------
    298.15    0.568069E-01    0.996504E+00    0.138214E+00    0.858290E+00
   ------------------------------------------------------------------------

         :::::::::::::::::::::::::::::::::::::::::::::::::::::
         ::                  THERMODYNAMIC                  ::
         :::::::::::::::::::::::::::::::::::::::::::::::::::::
         :: total free energy        -157.431351733176 Eh   ::
         ::.................................................::
         :: total energy             -158.289641563059 Eh   ::
         :: zero point energy           0.939696818762 Eh   ::
         :: G(RRHO) w/o ZPVE           -0.081406988880 Eh   ::
         :: G(RRHO) contrib.            0.858289829882 Eh   ::
         :::::::::::::::::::::::::::::::::::::::::::::::::::::

           -------------------------------------------------
          | TOTAL ENERGY             -158.289641563059 Eh   |
          | TOTAL ENTHALPY           -157.293137806235 Eh   |
          | TOTAL FREE ENERGY        -157.431351733176 Eh   |
          | GRADIENT NORM               0.000055985949 Eh/α |
          | HOMO-LUMO GAP               1.221534746155 eV   |
           -------------------------------------------------

 * finished run on 2025/09/12 at 11:04:57.632
