   * xtb version 6.7.1 (edcfbbe) compiled by 'albert@albert-system' on 2024-07-22

   ID    Z sym.   atoms
    1    6 C      1, 3-14, 16-18, 20-28, 30-35, 37, 39-47, 49-53
    2    8 O      2, 29, 48
    3    7 N      15, 19, 36, 38
    4    1 H      54-85

          program call               : xtb data2507/toluene/OCzBN/OCzBN_toluene_T1_crest.xyz --gfn 2 --uhf 2 --gbsa toluene --ohess vtight --parallel 40 --molden --ceasefiles --namespace data2507/toluene/OCzBN/OCzBN_toluene_T1_finalOpt
      * Solvation model:               GBSA
        Solvent                        toluene
        Solvent mass                       9.2140E+01 g/mol
          :  Hamiltonian                  GFN2-xTB          :
 * total energy  :  -138.7713593 Eh     change       -0.7155393E-08 Eh
 * total energy  :  -138.7714671 Eh     change       -0.1078054E-03 Eh
 * total energy  :  -138.7715173 Eh     change       -0.5015353E-04 Eh
 * total energy  :  -138.7715296 Eh     change       -0.1235822E-04 Eh
 * total energy  :  -138.7715381 Eh     change       -0.8531634E-05 Eh
 * total energy  :  -138.7715443 Eh     change       -0.6115768E-05 Eh
 * total energy  :  -138.7715493 Eh     change       -0.5064652E-05 Eh
 * total energy  :  -138.7715560 Eh     change       -0.6674670E-05 Eh
 * total energy  :  -138.7715615 Eh     change       -0.5519663E-05 Eh
 * total energy  :  -138.7715673 Eh     change       -0.5804492E-05 Eh
 * total energy  :  -138.7716237 Eh     change       -0.1614492E-06 Eh
 * total energy  :  -138.7716239 Eh     change       -0.2020269E-06 Eh
 * total energy  :  -138.7716241 Eh     change       -0.1287093E-06 Eh
 * total energy  :  -138.7716242 Eh     change       -0.1109230E-06 Eh
 * total energy  :  -138.7716244 Eh     change       -0.2157862E-06 Eh
 * total energy  :  -138.7716247 Eh     change       -0.3186067E-06 Eh
 * total energy  :  -138.7716250 Eh     change       -0.3067137E-06 Eh
 * total energy  :  -138.7716253 Eh     change       -0.2540681E-06 Eh
 * total energy  :  -138.7716253 Eh     change       -0.2253586E-08 Eh
   *** GEOMETRY OPTIMIZATION CONVERGED AFTER 44 ITERATIONS ***

 final structure:
================
85
 xtb: 6.7.1 (edcfbbe)
C           -7.82426872414275        3.97779402325776       -0.36046664953521
O           -7.06610100867522        2.88975465365246       -0.84357733506742
C           -5.76966016386467        2.76657579229178       -0.45250602966500
C           -5.09439851802717        1.64999392925287       -0.98783960944437
C           -3.78257431007378        1.38381876991951       -0.67416587039371
C           -3.12166531376632        2.24544640345798        0.19612491525440
C           -3.78185315316922        3.39296532795634        0.71138360752933
C           -5.11003910949648        3.64916674942221        0.39356830860245
C           -2.81809480691808        4.09087003399305        1.50854012503203
C           -2.86072924691603        5.25784038825991        2.26136497092262
C           -1.72953881163315        5.64043207519575        2.95818031270482
C           -0.56935720159439        4.86776666951624        2.92513894627928
C           -0.50029296055298        3.70480018018437        2.17723760196881
C           -1.62100884675165        3.32894274683461        1.45138070732863
N           -1.82176248913759        2.22053067903260        0.64648279697954
C           -0.87383369322663        1.24038368486675        0.36137785270461
C           -1.19634408510065       -0.12931795041790        0.48334734258750
C           -0.25690757851221       -1.09625574140347        0.25157621008366
N           -0.59032711156076       -2.45237321530184        0.38700599056429
C            0.05733744018876       -3.36781641558302        1.19020973682761
C            1.11605232059205       -3.17765706639749        2.06569167927012
C            1.57174425558379       -4.27220833621442        2.77673385278188
C            0.98062875975446       -5.52525312602649        2.63518753497620
C           -0.09176351730162       -5.71623886524544        1.78235331862865
C           -0.56376039854830       -4.63301511657793        1.05535564063347
C           -1.63842903331350       -4.45836854246442        0.11673880976781
C           -2.58193228198868       -5.32679804915090       -0.41429894896796
C           -3.49139962154458       -4.82816931120270       -1.33989417575192
O           -4.47080365936227       -5.56104558209782       -1.93605441264896
C           -4.59345748311295       -6.92839089912173       -1.60746965798414
C           -3.43831906333703       -3.47858755947143       -1.73613196207902
C           -2.50831286491577       -2.61022291869435       -1.21477808663234
C           -1.61261251887350       -3.09726436188908       -0.26893862881166
C            1.08274689983176       -0.75280386164793       -0.15873842396967
C            1.97410277764266       -1.71471552053726       -0.57494048614601
N            2.72499042182906       -2.52955291906734       -0.93415728539794
C            1.39051148305158        0.65208954407792       -0.26182365572703
N            2.68059515655420        1.02586692753787       -0.67128434758365
C            2.98357864845114        1.78345011534115       -1.78436096412692
C            2.13200027178269        2.36595359938220       -2.71181030083783
C            2.70156402414566        3.07131558958480       -3.75667416221925
C            4.08350575747402        3.19379570942049       -3.88078340809146
C            4.93740800310160        2.60098067384757       -2.96789019819872
C            4.39005313763052        1.88586995050958       -1.91198451181836
C            4.95128128310951        1.14291196653145       -0.81654446611676
C            6.25492258830085        0.89149804911258       -0.41381607564144
C            6.45577897781886        0.13116450516991        0.73251248371673
O            7.67445380312086       -0.19474999486663        1.24145088876601
C            8.83438334826148        0.24399337928077        0.56643880055732
C            5.35814425934146       -0.35060928046421        1.47048501183628
C            4.06329227693317       -0.10645257575457        1.08060441042656
C            3.85650114065336        0.62860183059421       -0.08234118088055
C            0.44045731369594        1.60282856869597       -0.01148437284277
H           -8.81533150062618        3.85837624050987       -0.79505106817144
H           -7.39869783804979        4.93329566511329       -0.68136230082502
H           -7.89976372964616        3.95691976043092        0.73078081303004
H           -5.64290463034586        1.00882935142928       -1.65910817728636
H           -3.28009654920589        0.53468508395861       -1.10772456804049
H           -5.59637850375015        4.52102341722420        0.79898060155889
H           -3.76218318146864        5.85026016134201        2.30332283574721
H           -1.74433621261575        6.54455581770929        3.54869147346875
H            0.29130702565303        5.17886989764945        3.49824545974722
H            0.39577719109404        3.10331562367759        2.17758346857388
H           -2.18246276547206       -0.41467920511597        0.81766211107716
H            1.57242130853359       -2.20770421486483        2.18754208590118
H            2.40066617845989       -4.15109474801058        3.45805254494678
H            1.36467129981350       -6.35697017279621        3.20675280399665
H           -0.55347515687047       -6.68702715543779        1.68437417346482
H           -2.58716968635317       -6.36015778259244       -0.10942998405023
H           -3.69039748234724       -7.48478702235317       -1.87560587622132
H           -5.43305475368632       -7.29464222864715       -2.19586810076395
H           -4.80690348622879       -7.06443591335499       -0.54315248871068
H           -4.15274105380569       -3.14591618510485       -2.47231385185669
H           -2.46496411092680       -1.58420293229866       -1.54398264009569
H            1.06076057704788        2.26271677430713       -2.62719056929987
H            2.06076937358722        3.53410662287775       -4.49245607476264
H            4.49152047105737        3.75473722570504       -4.70831569784827
H            6.00789751376174        2.68812051550135       -3.07516721150746
H            7.07724707190014        1.28460673464198       -0.98846923784656
H            8.88422270453479        1.33634112234894        0.53035512442893
H            8.88118777102054       -0.16076386505156       -0.44880491225583
H            9.67096880905343       -0.13860643142131        1.14862094366813
H            5.56778918271896       -0.92270776868467        2.36039245850775
H            3.23438443489758       -0.47750803738096        1.66211609037709
H            0.69062248073809        2.64711707410354       -0.12158894400905

          :  Hamiltonian                  GFN2-xTB          :
         :: gradient norm              0.000086927008 Eh/a0 ::
         :: HOMO-LUMO gap              0.321149186376 eV    ::
         :: SCC energy              -141.132087051345 Eh    ::
         :: -> dispersion             -0.121478488841 Eh    ::
         :: -> Gsolv                  -0.063280898892 Eh    ::
         :: repulsion energy           2.360461774116 Eh    ::

    * Orbital Energies and Occupations

         #    Occupation            Energy/Eh            Energy/eV
      -------------------------------------------------------------
         1        2.0000           -0.7244753             -19.7140
       ...           ...                  ...                  ...
       116        2.0000           -0.4148442             -11.2885
       117        2.0000           -0.4059020             -11.0452
       118        2.0000           -0.4045760             -11.0091
       119        2.0000           -0.4034273             -10.9778
       120        2.0000           -0.3968018             -10.7975
       121        2.0000           -0.3955884             -10.7645
       122        2.0000           -0.3849336             -10.4746
       123        2.0000           -0.3845927             -10.4653
       124        2.0000           -0.3828655             -10.4183
       125        1.9825           -0.3659064              -9.9568
       126        1.6590           -0.3627079              -9.8698
       127        1.3586           -0.3615296              -9.8377
       128        0.9975           -0.2660133              -7.2386 (HOMO)
       129        0.0016           -0.2542115              -6.9174 (LUMO)
       130        0.0008           -0.2536064              -6.9010
       131        0.0001           -0.2519077              -6.8548
       132                         -0.2336970              -6.3592
       133                         -0.2272560              -6.1840
       134                         -0.2271495              -6.1811
       135                         -0.2270551              -6.1785
       136                         -0.2042750              -5.5586
       137                         -0.1970869              -5.3630
       138                         -0.1953086              -5.3146
       139                         -0.1938807              -5.2758
       ...                                ...                  ...
       244                          1.1641745              31.6788
      -------------------------------------------------------------
                  HL-Gap            0.0118018 Eh            0.3211 eV

     #   Z          covCN         q      C6AA      α(0)
     1   6 C        3.642     0.031    20.389     6.492
     2   8 O        1.705    -0.273    18.520     5.810
     3   6 C        2.864     0.141    24.933     8.185
     4   6 C        2.922    -0.060    29.490     8.905
     5   6 C        2.908    -0.042    29.035     8.836
     6   6 C        3.075     0.036    27.121     8.538
     7   6 C        3.064    -0.015    28.329     8.728
     8   6 C        2.908    -0.070    29.736     8.942
     9   6 C        3.063    -0.017    28.381     8.736
    10   6 C        2.911    -0.032    28.793     8.799
    11   6 C        2.919    -0.037    28.911     8.817
    12   6 C        2.922    -0.037    28.916     8.818
    13   6 C        2.909    -0.042    29.048     8.838
    14   6 C        3.076     0.040    27.015     8.522
    15   7 N        2.796    -0.006    21.367     6.865
    16   6 C        2.907     0.018    27.605     8.615
    17   6 C        2.914    -0.063    29.555     8.915
    18   6 C        2.908     0.044    27.019     8.523
    19   7 N        2.802    -0.029    21.798     6.934
    20   6 C        3.080     0.052    26.748     8.479
    21   6 C        2.910    -0.039    28.963     8.825
    22   6 C        2.923    -0.032    28.795     8.800
    23   6 C        2.920    -0.037    28.913     8.818
    24   6 C        2.912    -0.031    28.779     8.797
    25   6 C        3.067    -0.016    28.338     8.729
    26   6 C        3.067    -0.014    28.284     8.721
    27   6 C        2.909    -0.069    29.712     8.938
    28   6 C        2.864     0.139    24.958     8.189
    29   8 O        1.705    -0.274    18.545     5.814
    30   6 C        3.642     0.031    20.396     6.493
    31   6 C        2.923    -0.057    29.408     8.893
    32   6 C        2.909    -0.043    29.079     8.842
    33   6 C        3.080     0.042    26.979     8.515
    34   6 C        2.963    -0.048    29.187     8.861
    35   6 C        1.906     0.103    28.546     8.629
    36   7 N        0.911    -0.388    30.028     7.925
    37   6 C        2.908     0.044    27.019     8.523
    38   7 N        2.803    -0.031    21.846     6.942
    39   6 C        3.080     0.048    26.834     8.492
    40   6 C        2.909    -0.045    29.129     8.850
    41   6 C        2.923    -0.033    28.822     8.804
    42   6 C        2.919    -0.038    28.938     8.821
    43   6 C        2.912    -0.031    28.773     8.796
    44   6 C        3.067    -0.016    28.331     8.728
    45   6 C        3.067    -0.014    28.296     8.722
    46   6 C        2.909    -0.069    29.718     8.939
    47   6 C        2.865     0.140    24.941     8.186
    48   8 O        1.705    -0.273    18.530     5.812
    49   6 C        3.642     0.031    20.401     6.494
    50   6 C        2.923    -0.055    29.364     8.886
    51   6 C        2.909    -0.038    28.948     8.822
    52   6 C        3.080     0.047    26.854     8.496
    53   6 C        2.915    -0.060    29.496     8.906
    54   1 H        0.925     0.070     2.080     2.256
    55   1 H        0.924     0.052     2.294     2.369
    56   1 H        0.924     0.052     2.294     2.369
    57   1 H        0.926     0.051     2.310     2.377
    58   1 H        0.926     0.044     2.392     2.419
    59   1 H        0.926     0.049     2.338     2.391
    60   1 H        0.926     0.037     2.484     2.465
    61   1 H        0.926     0.035     2.517     2.481
    62   1 H        0.926     0.034     2.525     2.485
    63   1 H        0.926     0.036     2.507     2.476
    64   1 H        0.926     0.040     2.443     2.444
    65   1 H        0.926     0.027     2.636     2.539
    66   1 H        0.926     0.038     2.474     2.460
    67   1 H        0.926     0.040     2.453     2.449
    68   1 H        0.926     0.042     2.427     2.436
    69   1 H        0.926     0.051     2.305     2.374
    70   1 H        0.924     0.051     2.304     2.374
    71   1 H        0.925     0.071     2.072     2.251
    72   1 H        0.924     0.052     2.295     2.369
    73   1 H        0.926     0.055     2.264     2.353
    74   1 H        0.926     0.042     2.416     2.431
    75   1 H        0.926     0.035     2.513     2.479
    76   1 H        0.926     0.039     2.463     2.454
    77   1 H        0.926     0.039     2.466     2.455
    78   1 H        0.926     0.040     2.443     2.444
    79   1 H        0.926     0.052     2.292     2.367
    80   1 H        0.924     0.053     2.283     2.363
    81   1 H        0.924     0.052     2.294     2.368
    82   1 H        0.925     0.072     2.063     2.246
    83   1 H        0.926     0.053     2.286     2.364
    84   1 H        0.926     0.036     2.508     2.477
    85   1 H        0.926     0.043     2.412     2.429

molecular dipole:
                 x           y           z       tot (Debye)
 q only:       -1.497       1.450       0.567
   full:       -1.673       1.730       0.697       6.369

 projected vibrational frequencies (cm⁻¹)
eigval :       -0.00    -0.00    -0.00     0.00     0.00     0.00
eigval :       10.76    14.55    18.29    19.30    20.08    25.01
eigval :       39.68    49.77    58.22    66.76    73.64    74.90
eigval :       81.41    91.59    94.06    97.17   114.53   117.43
eigval :      128.40   131.47   141.53   142.40   144.52   154.01
eigval :      154.58   174.13   195.07   196.89   204.70   211.60
eigval :      225.39   230.37   244.24   251.83   258.84   259.98
eigval :      262.22   276.53   291.59   297.61   300.57   305.24
eigval :      335.19   355.53   374.04   377.56   382.14   388.45
eigval :      391.90   393.05   397.49   402.99   409.58   416.74
eigval :      421.18   424.41   436.44   464.71   466.63   472.52
eigval :      481.76   485.36   491.46   499.24   503.81   531.01
eigval :      532.40   537.70   548.51   571.22   576.62   578.74
eigval :      583.13   584.86   585.50   596.41   599.43   603.46
eigval :      613.93   628.24   636.64   646.33   666.78   671.19
eigval :      671.59   678.71   695.87   704.68   705.22   706.22
eigval :      719.64   722.79   754.39   764.85   767.71   771.14
eigval :      779.55   802.09   803.60   806.85   832.59   836.98
eigval :      838.60   844.36   850.94   857.27   859.40   861.01
eigval :      862.59   866.70   878.30   886.96   891.08   894.28
eigval :      898.31   900.77   901.93   905.15   913.66   914.13
eigval :      918.15   918.80   920.53   923.33   996.57  1013.87
eigval :     1017.07  1019.46  1027.83  1047.35  1049.02  1049.81
eigval :     1065.44  1066.75  1067.67  1084.18  1112.09  1112.65
eigval :     1113.94  1114.80  1118.18  1122.37  1133.22  1133.71
eigval :     1146.43  1148.16  1149.46  1153.15  1160.06  1172.01
eigval :     1172.97  1173.32  1176.96  1178.97  1185.00  1189.31
eigval :     1216.60  1218.56  1223.14  1229.16  1232.18  1239.69
eigval :     1246.72  1257.75  1261.53  1266.91  1268.31  1279.66
eigval :     1282.66  1298.24  1308.38  1325.79  1347.41  1351.01
eigval :     1351.34  1352.11  1355.37  1360.55  1361.65  1368.99
eigval :     1389.13  1390.77  1393.14  1395.48  1408.20  1415.32
eigval :     1415.63  1420.97  1431.14  1443.62  1453.50  1458.70
eigval :     1459.77  1459.95  1460.87  1461.32  1471.62  1472.57
eigval :     1472.81  1479.99  1481.57  1482.53  1485.69  1525.10
eigval :     1541.40  1550.31  1551.59  1556.11  1562.97  1566.53
eigval :     1570.61  1575.78  1577.71  1581.24  1586.07  1597.04
eigval :     2206.04  2939.09  2939.30  2939.55  2950.51  2950.65
eigval :     2950.83  3025.85  3026.53  3026.84  3076.17  3078.05
eigval :     3078.36  3082.19  3082.82  3083.48  3088.94  3089.34
eigval :     3090.74  3091.59  3093.75  3095.03  3095.92  3096.09
eigval :     3096.67  3097.95  3103.64  3109.51  3109.77  3113.14
eigval :     3114.47  3114.62  3115.30

   temp. (K)  partition function   enthalpy   heat capacity  entropy
                                   cal/mol     cal/K/mol   cal/K/mol   J/K/mol
 298.15  VIB  0.104E+21            26181.463    162.913    162.830
         ROT  0.109E+09              888.752      2.981     39.766
         INT  0.114E+29            27070.215    165.894    202.596
         TR   0.175E+29             1481.254      4.968     45.450
         TOT                       28551.4690   170.8620   248.0454  1037.8221

       T/K    H(0)-H(T)+PV         H(T)/Eh          T*S/Eh         G(T)/Eh
   ------------------------------------------------------------------------
    298.15    0.454997E-01    0.684573E+00    0.117854E+00    0.566719E+00
   ------------------------------------------------------------------------

         :::::::::::::::::::::::::::::::::::::::::::::::::::::
         ::                  THERMODYNAMIC                  ::
         :::::::::::::::::::::::::::::::::::::::::::::::::::::
         :: total free energy        -138.204906431584 Eh   ::
         ::.................................................::
         :: total energy             -138.771625279394 Eh   ::
         :: zero point energy           0.639073581470 Eh   ::
         :: G(RRHO) w/o ZPVE           -0.072354733660 Eh   ::
         :: G(RRHO) contrib.            0.566718847810 Eh   ::
         :::::::::::::::::::::::::::::::::::::::::::::::::::::

           -------------------------------------------------
          | TOTAL ENERGY             -138.771625279394 Eh   |
          | TOTAL ENTHALPY           -138.087052035864 Eh   |
          | TOTAL FREE ENERGY        -138.204906431584 Eh   |
          | GRADIENT NORM               0.000087230371 Eh/α |
          | HOMO-LUMO GAP               0.321143438736 eV   |
           -------------------------------------------------

 * finished run on 2025/08/30 at 17:36:41.464
