   * xtb version 6.7.1 (edcfbbe) compiled by 'albert@albert-system' on 2024-07-22

   ID    Z sym.   atoms
    1    6 C      1, 3-14, 16-18, 20-28, 30-35, 37, 39-47, 49-53
    2    8 O      2, 29, 48
    3    7 N      15, 19, 36, 38
    4    1 H      54-85

          program call               : xtb data2507/toluene/OCzBN/OCzBN.xyz --gfn 2 --gbsa toluene --ohess vtight --parallel 40 --molden --ceasefiles --namespace data2507/toluene/OCzBN/OCzBN_toluene_S0_preOpt
      * Solvation model:               GBSA
        Solvent                        toluene
        Solvent mass                       9.2140E+01 g/mol
          :  Hamiltonian                  GFN2-xTB          :
 * total energy  :  -138.8359486 Eh     change       -0.3372776E-08 Eh
 * total energy  :  -138.8531818 Eh     change       -0.1723325E-01 Eh
 * total energy  :  -138.8568632 Eh     change       -0.3681319E-02 Eh
 * total energy  :  -138.8572938 Eh     change       -0.4305962E-03 Eh
 * total energy  :  -138.8575839 Eh     change       -0.2901318E-03 Eh
 * total energy  :  -138.8577272 Eh     change       -0.1433098E-03 Eh
 * total energy  :  -138.8578505 Eh     change       -0.1232985E-03 Eh
 * total energy  :  -138.8579337 Eh     change       -0.8318251E-04 Eh
 * total energy  :  -138.8579962 Eh     change       -0.6256886E-04 Eh
 * total energy  :  -138.8580451 Eh     change       -0.4889177E-04 Eh
 * total energy  :  -138.8586460 Eh     change       -0.1957057E-06 Eh
 * total energy  :  -138.8586463 Eh     change       -0.2472660E-06 Eh
 * total energy  :  -138.8586466 Eh     change       -0.2861292E-06 Eh
 * total energy  :  -138.8586469 Eh     change       -0.3000340E-06 Eh
 * total energy  :  -138.8586471 Eh     change       -0.2705386E-06 Eh
 * total energy  :  -138.8586474 Eh     change       -0.2320851E-06 Eh
 * total energy  :  -138.8586477 Eh     change       -0.2811632E-06 Eh
 * total energy  :  -138.8586480 Eh     change       -0.3106235E-06 Eh
 * total energy  :  -138.8586480 Eh     change       -0.1392038E-08 Eh
   *** GEOMETRY OPTIMIZATION CONVERGED AFTER 68 ITERATIONS ***

 final structure:
================
85
 xtb: 6.7.1 (edcfbbe)
C           -7.72012932919114       -4.11116061062846        1.28332988004492
O           -7.01332051437497       -2.91647581718742        1.53331195378911
C           -5.73402108957058       -2.80647976673006        1.06450515961177
C           -5.09752241029015       -1.59088226862200        1.36023588675720
C           -3.80901775816394       -1.32537245644261        0.95012213482784
C           -3.14393972158097       -2.29673423413140        0.21394663519179
C           -3.76246073301443       -3.53262847609423       -0.06078576163845
C           -5.06236059948716       -3.79231615078260        0.35904450112931
C           -2.79900980136573       -4.32785113940975       -0.77175530873097
C           -2.83891153614358       -5.60317835171862       -1.32064090858023
C           -1.72333788286536       -6.07335288576066       -1.98492419934888
C           -0.58705904213412       -5.27977708359352       -2.12217865803580
C           -0.52483317190605       -4.00729190878054       -1.58458534813912
C           -1.63019103486704       -3.54174534584969       -0.88661896227461
N           -1.84751287881161       -2.31095749560233       -0.28654565295174
C           -0.92813920233762       -1.27295763737545       -0.19684598327308
C           -1.31710343141248        0.03652016234726       -0.47854381576427
C           -0.41112360136708        1.08054272305133       -0.37323205039418
N           -0.82876092748022        2.38790122137908       -0.62647805935547
C           -1.43470517842649        2.83224483608740       -1.78753131943329
C           -1.73210435940271        2.13489368342356       -2.94895141102987
C           -2.31965668427148        2.83385808996825       -3.98688628200235
C           -2.59768419226898        4.19485966002702       -3.88031934545808
C           -2.28584870043718        4.89683632946951       -2.73261222861814
C           -1.69603950341643        4.21660709102370       -1.67442829189081
C           -1.23971160070754        4.61541812435431       -0.37107427662459
C           -1.26701486091278        5.83032028548167        0.30546238394084
C           -0.77485491170713        5.87234866604481        1.60000174980809
O           -0.73697491452347        6.99276812579595        2.38319486646527
C           -1.21098950398866        8.20638191949212        1.84240225199670
C           -0.28221464723076        4.70815966351583        2.21063859947287
C           -0.24880872097869        3.50043460966113        1.54938829700280
C           -0.71034157270741        3.46266684795916        0.24163445467699
C            0.92634434764714        0.81807186059052       -0.01905521816587
C            1.85814402275615        1.87122194287014        0.06911793580318
N            2.61721891955148        2.73011916056759        0.14037693407360
C            1.32077758269165       -0.50744977087214        0.24684030125332
N            2.64171169559261       -0.79514327445720        0.59211230088411
C            3.05015940382443       -1.46485911900470        1.73145610095920
C            2.29257221293619       -1.96086941681153        2.78206096822668
C            2.96164794311058       -2.57257393217166        3.82579219830536
C            4.35053719265472       -2.68186074457981        3.83355821625634
C            5.10978961897873       -2.17108507500228        2.79919364643764
C            4.46059282989974       -1.55458423834183        1.73679354119653
C            4.91690273164171       -0.92260063242676        0.52919902697995
C            6.18231919966644       -0.74337140438808       -0.01937102293905
C            6.28122914355029       -0.11891516583823       -1.25228789783431
O            7.45503758531763        0.12663679654513       -1.90940890694184
C            8.66404303681859       -0.24715866233127       -1.28599727380819
C            5.12559669510399        0.29796253938770       -1.93160557772245
C            3.86780724510286        0.12604360820745       -1.39731129485903
C            3.76820304432321       -0.46693756304273       -0.14710524806746
C            0.39066824593468       -1.53322607605694        0.17520207724077
H           -8.70067674503697       -3.96965874872748        1.73500898889297
H           -7.22721518625244       -4.97125563982062        1.74719077972430
H           -7.83652664825560       -4.28911228022389        0.20975432729093
H           -5.65160011924118       -0.86184548500470        1.93034305159966
H           -3.34080847991840       -0.39059758600886        1.21549431127580
H           -5.51296359692390       -4.74520607147276        0.13614430394736
H           -3.72817047893265       -6.20869188202125       -1.23323724318662
H           -1.73183167542904       -7.06337751321852       -2.41599190654713
H            0.26436703235625       -5.66359439555074       -2.66458336316998
H            0.35541586939476       -3.39835285369326       -1.72270345064214
H           -2.33030930455025        0.24704878356840       -0.78163745876592
H           -1.50830069388200        1.08300936787533       -3.04593990831292
H           -2.56490238641344        2.31344084699582       -4.90090942605227
H           -3.05825662965538        4.70594983828391       -4.71261406979088
H           -2.49000494041799        5.95404856678325       -2.65733484175749
H           -1.67168080920688        6.70176343173601       -0.18205221321826
H           -0.63516245671492        8.50173227124049        0.95986951067890
H           -1.07516294587548        8.94768745952311        2.62823690295508
H           -2.27252723233801        8.14056979762658        1.58398103538725
H            0.07272955461650        4.78701584129171        3.22608138638365
H            0.12587609974952        2.61839262392842        2.04634929848772
H            1.21681446195430       -1.86818879327699        2.79244994111843
H            2.39445250809532       -2.97160604422701        4.65364850354174
H            4.83685560730957       -3.16718442041537        4.66670713214168
H            6.18657002691212       -2.24419239326465        2.81349020865257
H            7.04878775030310       -1.09524329255950        0.51567103913247
H            9.45246018881294        0.06157706464057       -1.97054952907632
H            8.71703621928798       -1.32995623669765       -1.13491971367013
H            8.79309990562116        0.26454654891732       -0.32733652867979
H            5.25210545395841        0.76150161516757       -2.89727101608119
H            2.99552102327333        0.44611947664272       -1.94673250294321
H            0.69840994765556       -2.53936314121750        0.41155475224377

          :  Hamiltonian                  GFN2-xTB          :
         :: gradient norm              0.000037801779 Eh/a0 ::
         :: HOMO-LUMO gap              2.089911701857 eV    ::
         :: SCC energy              -141.238109831971 Eh    ::
         :: -> dispersion             -0.119885172130 Eh    ::
         :: -> Gsolv                  -0.060022941627 Eh    ::
         :: repulsion energy           2.379461859418 Eh    ::

    * Orbital Energies and Occupations

         #    Occupation            Energy/Eh            Energy/eV
      -------------------------------------------------------------
         1        2.0000           -0.7181855             -19.5428
       ...           ...                  ...                  ...
       115        2.0000           -0.4245801             -11.5534
       116        2.0000           -0.4244319             -11.5494
       117        2.0000           -0.4231389             -11.5142
       118        2.0000           -0.4229651             -11.5095
       119        2.0000           -0.4036597             -10.9841
       120        2.0000           -0.4020713             -10.9409
       121        2.0000           -0.4018428             -10.9347
       122        2.0000           -0.3854975             -10.4899
       123        2.0000           -0.3835290             -10.4364
       124        2.0000           -0.3832908             -10.4299
       125        2.0000           -0.3674533              -9.9989
       126        2.0000           -0.3649760              -9.9315
       127        2.0000           -0.3640322              -9.9058 (HOMO)
       128                         -0.2872294              -7.8159 (LUMO)
       129                         -0.2619453              -7.1279
       130                         -0.2533678              -6.8945
       131                         -0.2517303              -6.8499
       132                         -0.2498458              -6.7987
       133                         -0.2270928              -6.1795
       134                         -0.2251659              -6.1271
       135                         -0.2247556              -6.1159
       136                         -0.2185199              -5.9462
       137                         -0.2081461              -5.6639
       138                         -0.1973035              -5.3689
       ...                                ...                  ...
       244                          1.1554973              31.4427
      -------------------------------------------------------------
                  HL-Gap            0.0768028 Eh            2.0899 eV

     #   Z          covCN         q      C6AA      α(0)
     1   6 C        3.642     0.036    20.320     6.481
     2   8 O        1.705    -0.291    18.836     5.860
     3   6 C        2.865     0.134    25.060     8.206
     4   6 C        2.925    -0.057    29.408     8.893
     5   6 C        2.909    -0.049    29.219     8.864
     6   6 C        3.067     0.035    27.155     8.545
     7   6 C        3.066    -0.014    28.304     8.724
     8   6 C        2.911    -0.071    29.777     8.948
     9   6 C        3.067    -0.014    28.288     8.721
    10   6 C        2.913    -0.032    28.808     8.801
    11   6 C        2.920    -0.039    28.973     8.827
    12   6 C        2.924    -0.032    28.810     8.802
    13   6 C        2.910    -0.050    29.250     8.868
    14   6 C        3.066     0.045    26.937     8.511
    15   7 N        2.801    -0.032    21.868     6.945
    16   6 C        2.908     0.075    26.326     8.413
    17   6 C        2.924    -0.065    29.619     8.925
    18   6 C        2.915     0.075    26.333     8.415
    19   7 N        2.803    -0.050    22.207     6.999
    20   6 C        3.071     0.046    26.887     8.502
    21   6 C        2.909    -0.052    29.291     8.875
    22   6 C        2.924    -0.033    28.826     8.805
    23   6 C        2.920    -0.040    29.005     8.832
    24   6 C        2.913    -0.033    28.819     8.803
    25   6 C        3.068    -0.015    28.324     8.727
    26   6 C        3.067    -0.017    28.354     8.731
    27   6 C        2.911    -0.072    29.797     8.951
    28   6 C        2.865     0.134    25.073     8.208
    29   8 O        1.705    -0.291    18.838     5.860
    30   6 C        3.642     0.035    20.324     6.482
    31   6 C        2.925    -0.056    29.388     8.890
    32   6 C        2.909    -0.046    29.154     8.854
    33   6 C        3.071     0.039    27.060     8.529
    34   6 C        2.973    -0.021    28.520     8.760
    35   6 C        1.909     0.131    27.888     8.529
    36   7 N        0.911    -0.278    27.172     7.539
    37   6 C        2.914     0.075    26.335     8.415
    38   7 N        2.803    -0.050    22.200     6.998
    39   6 C        3.070     0.046    26.888     8.502
    40   6 C        2.909    -0.052    29.290     8.874
    41   6 C        2.924    -0.033    28.825     8.804
    42   6 C        2.919    -0.040    29.003     8.831
    43   6 C        2.913    -0.033    28.819     8.803
    44   6 C        3.068    -0.015    28.322     8.726
    45   6 C        3.067    -0.017    28.353     8.731
    46   6 C        2.911    -0.072    29.798     8.951
    47   6 C        2.865     0.134    25.072     8.208
    48   8 O        1.705    -0.291    18.836     5.860
    49   6 C        3.642     0.035    20.324     6.482
    50   6 C        2.925    -0.056    29.387     8.890
    51   6 C        2.909    -0.046    29.150     8.853
    52   6 C        3.071     0.039    27.061     8.530
    53   6 C        2.924    -0.065    29.613     8.924
    54   1 H        0.925     0.066     2.133     2.284
    55   1 H        0.924     0.046     2.369     2.407
    56   1 H        0.924     0.046     2.367     2.406
    57   1 H        0.926     0.048     2.339     2.392
    58   1 H        0.926     0.041     2.437     2.441
    59   1 H        0.926     0.046     2.371     2.408
    60   1 H        0.926     0.038     2.481     2.463
    61   1 H        0.926     0.035     2.519     2.482
    62   1 H        0.926     0.036     2.504     2.474
    63   1 H        0.926     0.033     2.548     2.496
    64   1 H        0.926     0.066     2.130     2.282
    65   1 H        0.926     0.030     2.585     2.514
    66   1 H        0.926     0.036     2.497     2.471
    67   1 H        0.926     0.035     2.515     2.480
    68   1 H        0.926     0.037     2.487     2.466
    69   1 H        0.926     0.047     2.361     2.403
    70   1 H        0.924     0.046     2.366     2.406
    71   1 H        0.925     0.067     2.122     2.278
    72   1 H        0.924     0.047     2.363     2.404
    73   1 H        0.926     0.048     2.345     2.395
    74   1 H        0.926     0.028     2.616     2.529
    75   1 H        0.926     0.030     2.582     2.513
    76   1 H        0.926     0.036     2.496     2.470
    77   1 H        0.926     0.035     2.514     2.479
    78   1 H        0.926     0.037     2.485     2.465
    79   1 H        0.926     0.047     2.360     2.402
    80   1 H        0.925     0.067     2.122     2.278
    81   1 H        0.924     0.047     2.363     2.404
    82   1 H        0.924     0.046     2.366     2.405
    83   1 H        0.926     0.048     2.345     2.395
    84   1 H        0.926     0.028     2.616     2.529
    85   1 H        0.926     0.066     2.128     2.281

molecular dipole:
                 x           y           z       tot (Debye)
 q only:       -1.125      -1.567      -0.227
   full:       -1.353      -1.895      -0.281       5.960

 projected vibrational frequencies (cm⁻¹)
eigval :       -0.00    -0.00    -0.00     0.00     0.00     0.00
eigval :       13.94    14.70    15.89    17.32    22.67    24.30
eigval :       42.63    46.02    62.39    69.04    69.56    77.46
eigval :       82.79    92.77    95.50    99.27   115.05   121.56
eigval :      131.03   135.87   140.87   144.28   149.01   155.16
eigval :      157.04   173.38   196.41   206.68   209.24   219.50
eigval :      225.82   239.79   247.87   255.00   258.12   266.63
eigval :      268.82   279.02   295.74   300.38   303.85   307.17
eigval :      342.06   364.05   377.89   379.97   384.62   394.53
eigval :      396.24   398.95   399.63   401.83   425.44   427.85
eigval :      430.00   442.12   467.81   469.14   474.61   490.43
eigval :      491.78   497.19   503.14   521.20   528.23   531.23
eigval :      531.89   553.85   556.23   575.49   584.53   585.38
eigval :      589.26   591.79   593.97   600.26   603.41   622.15
eigval :      639.34   645.96   649.73   668.55   668.82   672.22
eigval :      674.09   692.28   704.13   704.99   708.14   712.74
eigval :      721.75   727.15   760.13   773.16   774.08   775.60
eigval :      793.28   802.52   803.21   806.91   846.33   846.56
eigval :      848.52   854.89   857.82   859.61   863.06   867.40
eigval :      872.00   879.71   893.41   897.68   899.67   900.98
eigval :      901.25   903.26   907.05   913.18   921.61   922.88
eigval :      923.15   923.30   924.92   927.00  1016.65  1020.52
eigval :     1021.29  1032.29  1044.06  1054.22  1055.28  1056.10
eigval :     1069.27  1071.23  1073.38  1097.97  1117.63  1118.08
eigval :     1119.25  1120.54  1143.13  1143.70  1144.03  1146.27
eigval :     1152.81  1153.54  1154.08  1161.82  1175.43  1177.94
eigval :     1178.44  1180.47  1181.10  1181.82  1188.99  1192.61
eigval :     1220.95  1231.75  1233.92  1238.27  1243.18  1244.52
eigval :     1252.92  1269.44  1273.68  1281.40  1297.58  1304.17
eigval :     1313.35  1313.83  1336.75  1344.34  1351.99  1352.17
eigval :     1352.66  1357.83  1359.57  1360.76  1393.69  1394.68
eigval :     1395.02  1407.09  1415.39  1417.23  1420.83  1421.58
eigval :     1423.84  1438.95  1446.17  1462.92  1465.26  1465.51
eigval :     1465.74  1471.42  1472.38  1474.90  1476.41  1476.88
eigval :     1477.31  1487.06  1487.64  1487.90  1517.05  1553.81
eigval :     1570.91  1571.94  1572.42  1583.26  1584.80  1585.29
eigval :     1599.14  1600.17  1600.92  1612.63  1615.13  1615.46
eigval :     2349.72  2931.93  2932.20  2932.86  2945.16  2945.45
eigval :     2945.65  3023.99  3024.10  3024.13  3075.87  3076.54
eigval :     3077.45  3079.91  3080.66  3081.52  3082.61  3082.99
eigval :     3087.40  3087.71  3090.06  3092.12  3096.02  3096.08
eigval :     3097.17  3106.44  3107.21  3107.37  3114.33  3114.83
eigval :     3115.23  3115.35  3115.54

   temp. (K)  partition function   enthalpy   heat capacity  entropy
                                   cal/mol     cal/K/mol   cal/K/mol   J/K/mol
 298.15  VIB  0.510E+20            25824.865    161.040    160.438
         ROT  0.110E+09              888.752      2.981     39.785
         INT  0.563E+28            26713.618    164.021    200.223
         TR   0.175E+29             1481.254      4.968     45.450
         TOT                       28194.8717   168.9888   245.6726  1027.8940

       T/K    H(0)-H(T)+PV         H(T)/Eh          T*S/Eh         G(T)/Eh
   ------------------------------------------------------------------------
    298.15    0.449314E-01    0.688639E+00    0.116727E+00    0.571912E+00
   ------------------------------------------------------------------------

         :::::::::::::::::::::::::::::::::::::::::::::::::::::
         ::                  THERMODYNAMIC                  ::
         :::::::::::::::::::::::::::::::::::::::::::::::::::::
         :: total free energy        -138.286735746386 Eh   ::
         ::.................................................::
         :: total energy             -138.858647966482 Eh   ::
         :: zero point energy           0.643707797728 Eh   ::
         :: G(RRHO) w/o ZPVE           -0.071795577631 Eh   ::
         :: G(RRHO) contrib.            0.571912220097 Eh   ::
         :::::::::::::::::::::::::::::::::::::::::::::::::::::

           -------------------------------------------------
          | TOTAL ENERGY             -138.858647966482 Eh   |
          | TOTAL ENTHALPY           -138.170008780665 Eh   |
          | TOTAL FREE ENERGY        -138.286735746386 Eh   |
          | GRADIENT NORM               0.000037768152 Eh/α |
          | HOMO-LUMO GAP               2.089911348858 eV   |
           -------------------------------------------------

 * finished run on 2025/08/30 at 17:16:47.548
