   * xtb version 6.7.1 (edcfbbe) compiled by 'albert@albert-system' on 2024-07-22

   ID    Z sym.   atoms
    1    6 C      1, 3-14, 16-18, 20-28, 30-35, 37, 39-47, 49-53
    2    8 O      2, 29, 48
    3    7 N      15, 19, 36, 38
    4    1 H      54-85

          program call               : xtb data2507/toluene/OCzBN/OCzBN_toluene_S0_crest.xyz --gfn 2 --gbsa toluene --ohess vtight --parallel 40 --molden --ceasefiles --namespace data2507/toluene/OCzBN/OCzBN_toluene_S0_finalOpt
      * Solvation model:               GBSA
        Solvent                        toluene
        Solvent mass                       9.2140E+01 g/mol
          :  Hamiltonian                  GFN2-xTB          :
 * total energy  :  -138.8594186 Eh     change       -0.1689955E-08 Eh
 * total energy  :  -138.8595048 Eh     change       -0.8616115E-04 Eh
 * total energy  :  -138.8595430 Eh     change       -0.3823232E-04 Eh
 * total energy  :  -138.8595496 Eh     change       -0.6646522E-05 Eh
 * total energy  :  -138.8595557 Eh     change       -0.6056982E-05 Eh
 * total energy  :  -138.8595603 Eh     change       -0.4553728E-05 Eh
 * total energy  :  -138.8595642 Eh     change       -0.3964517E-05 Eh
 * total energy  :  -138.8595684 Eh     change       -0.4226486E-05 Eh
 * total energy  :  -138.8595722 Eh     change       -0.3727094E-05 Eh
 * total energy  :  -138.8595756 Eh     change       -0.3409093E-05 Eh
 * total energy  :  -138.8596131 Eh     change       -0.3709075E-06 Eh
 * total energy  :  -138.8596135 Eh     change       -0.3372371E-06 Eh
 * total energy  :  -138.8596139 Eh     change       -0.4245300E-06 Eh
 * total energy  :  -138.8596142 Eh     change       -0.3591197E-06 Eh
 * total energy  :  -138.8596145 Eh     change       -0.2413606E-06 Eh
 * total energy  :  -138.8596147 Eh     change       -0.1988626E-06 Eh
 * total energy  :  -138.8596149 Eh     change       -0.1691479E-06 Eh
 * total energy  :  -138.8596150 Eh     change       -0.1128953E-06 Eh
 * total energy  :  -138.8596150 Eh     change       -0.3798502E-07 Eh
   *** GEOMETRY OPTIMIZATION CONVERGED AFTER 36 ITERATIONS ***

 final structure:
================
85
 xtb: 6.7.1 (edcfbbe)
C           -2.39975645769704       -8.08967088476743        2.47528280696339
O           -2.76855281976424       -6.72957473507603        2.53476206853554
C           -1.97323344356816       -5.81155960705662        1.90754921079076
C           -2.40275545444901       -4.48009032189884        2.02110726778011
C           -1.71291378655522       -3.44042390319480        1.43635804179405
C           -0.56987902114931       -3.74123458441401        0.70769464179318
C           -0.11146874025797       -5.07045887644772        0.61689042593304
C           -0.81341897289205       -6.11312368409106        1.21164464483502
C            1.11544340215215       -5.03420618630537       -0.13086769882608
C            1.99855499225024       -6.01781306377540       -0.55738287654938
C            3.09873087664143       -5.64279019321486       -1.30303460481449
C            3.31091462615172       -4.30833022747163       -1.64011120194696
C            2.44337475785610       -3.31397212346733       -1.22823489482147
C            1.35380707991464       -3.67852951902234       -0.45131537793460
N            0.32563656415900       -2.90039663037049        0.05669558049357
C            0.20612155539418       -1.51925430044585       -0.04948389251277
C           -1.02436257997993       -0.95182090086955       -0.38115505650310
C           -1.17275043136357        0.42511822280399       -0.45448204525146
N           -2.40577525995212        0.97396214777358       -0.80167482222502
C           -3.15303167439071        0.64110567113866       -1.91891474991105
C           -2.87409103244151       -0.26502561551057       -2.93127856928811
C           -3.78887323921712       -0.38350234246562       -3.96116873454748
C           -4.94984199551444        0.38551607231362       -3.99428932298103
C           -5.22038255270494        1.30562129517181       -3.00071340320576
C           -4.31712505198545        1.44153424400429       -1.95397592363736
C           -4.27039881105368        2.28757731975240       -0.79305064012269
C           -5.14429742050641        3.24615222167000       -0.29182442148862
C           -4.81739736585492        3.87525596423925        0.89879335426715
O           -5.57411266811575        4.83921336645449        1.50463653282694
C           -6.76400255513258        5.25514034647038        0.87111904879882
C           -3.64428678392738        3.52634094564526        1.58598264010759
C           -2.77411276293110        2.57703305188769        1.09807872562073
C           -3.07772650258954        1.97327635670352       -0.11298312743853
C           -0.06716997631479        1.26138217016869       -0.20535914869418
C           -0.15821451250096        2.64824102305929       -0.43238493576505
N           -0.20735925092251        3.76791585352719       -0.68357993281455
C            1.16966624115758        0.68701768033823        0.14740939355569
N            2.26274738347006        1.50532657227452        0.43218659758983
C            2.28812364113687        2.54359681563933        1.34650043302450
C            1.30886606541947        2.96239826205915        2.23360436892686
C            1.60581376286547        4.01688395128905        3.07554998348607
C            2.85462129308573        4.63341299553614        3.05257427863720
C            3.84569467654404        4.19809737423863        2.19551278912766
C            3.56828805004845        3.14155294166362        1.33735968213969
C            4.34708469056233        2.42934260636707        0.36186015267163
C            5.65298819318571        2.57857395658259       -0.09285481218913
C            6.10710716171235        1.72200849607765       -1.08330005233309
O            7.36466449725882        1.74728172359127       -1.61986326327590
C            8.27905340842727        2.70952273289413       -1.14311451762345
C            5.25519358709971        0.74470796384722       -1.62144680543909
C            3.95922920934579        0.59191188820142       -1.18010101835694
C            3.51071000573742        1.42712420681028       -0.16784065847691
C            1.29818045490098       -0.69220511081605        0.21515073156569
H           -3.17091927707741       -8.62541449946088        3.02644918090060
H           -1.42854139874123       -8.26079794743963        2.95001291828364
H           -2.37320146281198       -8.45125165039382        1.44262905303280
H           -3.29791915518341       -4.29024108111504        2.59225551505127
H           -2.05589645038087       -2.42594238918875        1.56520264470603
H           -0.44142893234747       -7.12074348026461        1.12732230595861
H            1.82173102596877       -7.05435196252051       -0.31369289893848
H            3.79950050838997       -6.39158964567736       -1.64105686479755
H            4.16878522347379       -4.04284215138170       -2.24011014663961
H            2.61006772676133       -2.28927270596722       -1.51883391153065
H           -1.87187639044480       -1.58511567763545       -0.58858523672564
H           -1.96900211586568       -0.85334063235607       -2.92698228846938
H           -3.59577906875787       -1.08523999722465       -4.75908545503010
H           -5.64099183436038        0.26322651291274       -4.81485238279570
H           -6.11184889248614        1.91313667073685       -3.03580964514593
H           -6.04902625063615        3.47429382093433       -0.83055410628724
H           -6.56286217895639        5.67251107796340       -0.12030201661622
H           -7.17998270729671        6.03001832221898        1.51297691117255
H           -7.47922028965176        4.43112980181606        0.78515988928126
H           -3.44215898175266        4.02767702793762        2.51931206550764
H           -1.88789689969844        2.31735243188812        1.65572057641309
H            0.34340878141276        2.48143802140187        2.27480979820285
H            0.85405618648432        4.36643141113699        3.76753660395716
H            3.04856541348801        5.45660560705919        3.72382633181137
H            4.81942572896534        4.66392115161107        2.19266015803817
H            6.27541813613826        3.35288455046709        0.32399728212272
H            8.47422768083271        2.57937256399755       -0.07410791206362
H            7.92166666336852        3.72696380562718       -1.32994454720186
H            9.19789401790349        2.54040532223447       -1.70225747110941
H            5.64732175867666        0.11474983003900       -2.40429182356675
H            3.31359488149764       -0.14723822513891       -1.62698754807251
H            2.24050819113906       -1.11927478172314        0.51979510555958

          :  Hamiltonian                  GFN2-xTB          :
         :: gradient norm              0.000199752884 Eh/a0 ::
         :: HOMO-LUMO gap              2.119272887052 eV    ::
         :: SCC energy              -141.240482326818 Eh    ::
         :: -> dispersion             -0.121849051622 Eh    ::
         :: -> Gsolv                  -0.059249192912 Eh    ::
         :: repulsion energy           2.380867322211 Eh    ::

    * Orbital Energies and Occupations

         #    Occupation            Energy/Eh            Energy/eV
      -------------------------------------------------------------
         1        2.0000           -0.7179999             -19.5378
       ...           ...                  ...                  ...
       115        2.0000           -0.4251564             -11.5691
       116        2.0000           -0.4244027             -11.5486
       117        2.0000           -0.4226962             -11.5021
       118        2.0000           -0.4222041             -11.4888
       119        2.0000           -0.4034084             -10.9773
       120        2.0000           -0.4024281             -10.9506
       121        2.0000           -0.4020885             -10.9414
       122        2.0000           -0.3851138             -10.4795
       123        2.0000           -0.3841118             -10.4522
       124        2.0000           -0.3837241             -10.4417
       125        2.0000           -0.3668806              -9.9833
       126        2.0000           -0.3664873              -9.9726
       127        2.0000           -0.3641522              -9.9091 (HOMO)
       128                         -0.2862705              -7.7898 (LUMO)
       129                         -0.2615526              -7.1172
       130                         -0.2531142              -6.8876
       131                         -0.2521172              -6.8605
       132                         -0.2501654              -6.8073
       133                         -0.2266943              -6.1687
       134                         -0.2255487              -6.1375
       135                         -0.2252609              -6.1297
       136                         -0.2176758              -5.9233
       137                         -0.2082299              -5.6662
       138                         -0.1983143              -5.3964
       ...                                ...                  ...
       244                          1.1547900              31.4234
      -------------------------------------------------------------
                  HL-Gap            0.0778818 Eh            2.1193 eV

     #   Z          covCN         q      C6AA      α(0)
     1   6 C        3.642     0.036    20.319     6.481
     2   8 O        1.705    -0.291    18.838     5.860
     3   6 C        2.865     0.134    25.062     8.206
     4   6 C        2.925    -0.057    29.410     8.893
     5   6 C        2.910    -0.049    29.220     8.864
     6   6 C        3.068     0.035    27.155     8.545
     7   6 C        3.066    -0.014    28.305     8.724
     8   6 C        2.911    -0.071    29.780     8.948
     9   6 C        3.067    -0.014    28.295     8.722
    10   6 C        2.913    -0.032    28.809     8.801
    11   6 C        2.920    -0.039    28.976     8.827
    12   6 C        2.923    -0.032    28.809     8.802
    13   6 C        2.910    -0.050    29.238     8.867
    14   6 C        3.066     0.045    26.933     8.510
    15   7 N        2.801    -0.033    21.875     6.946
    16   6 C        2.908     0.075    26.331     8.414
    17   6 C        2.924    -0.067    29.659     8.931
    18   6 C        2.914     0.074    26.341     8.416
    19   7 N        2.802    -0.048    22.167     6.993
    20   6 C        3.069     0.046    26.891     8.503
    21   6 C        2.910    -0.052    29.284     8.873
    22   6 C        2.924    -0.033    28.820     8.804
    23   6 C        2.920    -0.040    28.995     8.830
    24   6 C        2.913    -0.033    28.817     8.803
    25   6 C        3.069    -0.015    28.313     8.725
    26   6 C        3.067    -0.016    28.346     8.730
    27   6 C        2.911    -0.072    29.794     8.950
    28   6 C        2.865     0.134    25.068     8.207
    29   8 O        1.705    -0.290    18.827     5.858
    30   6 C        3.642     0.035    20.326     6.482
    31   6 C        2.925    -0.056    29.394     8.891
    32   6 C        2.910    -0.046    29.133     8.851
    33   6 C        3.071     0.039    27.064     8.530
    34   6 C        2.974    -0.022    28.541     8.763
    35   6 C        1.909     0.132    27.883     8.528
    36   7 N        0.911    -0.281    27.257     7.551
    37   6 C        2.915     0.074    26.343     8.416
    38   7 N        2.802    -0.049    22.178     6.994
    39   6 C        3.071     0.048    26.842     8.495
    40   6 C        2.910    -0.047    29.169     8.856
    41   6 C        2.924    -0.032    28.800     8.801
    42   6 C        2.920    -0.040    28.988     8.829
    43   6 C        2.913    -0.033    28.823     8.803
    44   6 C        3.069    -0.016    28.332     8.728
    45   6 C        3.067    -0.016    28.333     8.728
    46   6 C        2.911    -0.072    29.782     8.949
    47   6 C        2.865     0.133    25.082     8.209
    48   8 O        1.705    -0.291    18.831     5.859
    49   6 C        3.642     0.035    20.323     6.481
    50   6 C        2.925    -0.057    29.417     8.895
    51   6 C        2.910    -0.049    29.226     8.865
    52   6 C        3.072     0.037    27.099     8.535
    53   6 C        2.923    -0.065    29.621     8.925
    54   1 H        0.925     0.066     2.134     2.284
    55   1 H        0.924     0.046     2.370     2.408
    56   1 H        0.924     0.046     2.367     2.406
    57   1 H        0.926     0.048     2.341     2.393
    58   1 H        0.926     0.041     2.437     2.441
    59   1 H        0.926     0.046     2.373     2.409
    60   1 H        0.926     0.037     2.486     2.466
    61   1 H        0.926     0.035     2.522     2.483
    62   1 H        0.926     0.036     2.497     2.471
    63   1 H        0.926     0.032     2.561     2.502
    64   1 H        0.926     0.066     2.130     2.283
    65   1 H        0.926     0.032     2.564     2.504
    66   1 H        0.926     0.037     2.489     2.467
    67   1 H        0.926     0.036     2.507     2.476
    68   1 H        0.926     0.038     2.480     2.463
    69   1 H        0.926     0.047     2.357     2.401
    70   1 H        0.924     0.047     2.364     2.404
    71   1 H        0.925     0.067     2.120     2.277
    72   1 H        0.924     0.047     2.361     2.403
    73   1 H        0.926     0.048     2.342     2.393
    74   1 H        0.926     0.027     2.634     2.538
    75   1 H        0.926     0.018     2.760     2.598
    76   1 H        0.926     0.036     2.505     2.475
    77   1 H        0.926     0.037     2.496     2.470
    78   1 H        0.926     0.039     2.465     2.455
    79   1 H        0.926     0.046     2.374     2.409
    80   1 H        0.924     0.046     2.368     2.406
    81   1 H        0.924     0.046     2.375     2.410
    82   1 H        0.925     0.066     2.127     2.281
    83   1 H        0.926     0.050     2.321     2.382
    84   1 H        0.926     0.037     2.494     2.470
    85   1 H        0.926     0.065     2.143     2.289

molecular dipole:
                 x           y           z       tot (Debye)
 q only:        0.170      -1.679       0.033
   full:        0.204      -2.009       0.089       5.138

 projected vibrational frequencies (cm⁻¹)
eigval :       -0.00    -0.00    -0.00    -0.00     0.00     0.00
eigval :       12.28    15.30    16.14    20.41    20.54    23.87
eigval :       39.07    51.03    59.71    65.24    69.77    77.66
eigval :       86.12    91.40    95.68    99.01   117.09   119.16
eigval :      126.86   131.49   139.33   141.84   144.47   155.42
eigval :      157.91   174.12   198.46   199.94   206.46   218.55
eigval :      231.75   236.29   250.02   258.11   263.36   264.13
eigval :      266.72   277.93   299.03   299.69   301.65   305.23
eigval :      340.32   365.02   377.69   380.09   385.02   394.56
eigval :      395.29   397.45   399.15   403.88   423.89   425.42
eigval :      426.97   436.66   468.50   470.08   475.15   489.93
eigval :      493.58   496.94   502.59   520.71   526.60   531.04
eigval :      533.50   550.93   561.21   575.78   585.19   586.06
eigval :      586.57   593.44   595.49   599.41   608.78   619.44
eigval :      623.93   643.85   662.80   669.08   669.60   669.89
eigval :      672.06   692.32   703.69   705.40   706.19   709.21
eigval :      724.50   727.35   760.14   771.50   772.20   776.21
eigval :      794.28   801.91   804.06   807.62   845.31   846.08
eigval :      848.28   855.35   857.80   859.80   862.04   865.71
eigval :      868.49   879.16   892.45   894.86   897.67   901.05
eigval :      901.52   904.61   905.86   915.91   921.05   921.75
eigval :      922.84   923.72   924.07   928.16  1017.38  1019.85
eigval :     1021.75  1031.35  1044.63  1054.06  1055.10  1055.95
eigval :     1070.84  1071.30  1071.66  1097.37  1115.18  1117.65
eigval :     1118.17  1120.88  1137.01  1141.48  1144.80  1146.94
eigval :     1151.81  1152.65  1152.74  1162.07  1175.97  1177.10
eigval :     1177.66  1180.77  1181.81  1182.09  1188.50  1193.24
eigval :     1221.12  1229.99  1232.41  1236.92  1242.59  1244.54
eigval :     1252.50  1270.00  1272.24  1281.32  1296.89  1305.22
eigval :     1312.12  1315.61  1338.05  1341.57  1352.37  1352.73
eigval :     1353.25  1358.31  1359.97  1360.38  1392.35  1393.84
eigval :     1394.52  1407.44  1415.79  1416.75  1421.01  1421.58
eigval :     1422.81  1438.22  1446.18  1461.64  1463.83  1464.54
eigval :     1465.05  1472.14  1473.01  1474.41  1476.45  1476.97
eigval :     1477.40  1487.17  1487.91  1488.23  1516.12  1552.41
eigval :     1570.96  1572.28  1572.94  1583.83  1585.07  1586.10
eigval :     1600.00  1600.60  1602.51  1612.78  1615.22  1616.09
eigval :     2349.34  2932.04  2932.48  2932.59  2945.15  2945.18
eigval :     2945.70  3024.35  3024.66  3024.77  3076.82  3077.44
eigval :     3077.62  3081.46  3081.72  3084.21  3087.78  3088.42
eigval :     3089.03  3091.50  3093.56  3094.14  3096.47  3097.06
eigval :     3103.99  3107.00  3107.79  3108.33  3112.97  3114.50
eigval :     3114.77  3114.79  3116.87

   temp. (K)  partition function   enthalpy   heat capacity  entropy
                                   cal/mol     cal/K/mol   cal/K/mol   J/K/mol
 298.15  VIB  0.606E+20            25859.798    161.080    160.792
         ROT  0.111E+09              888.752      2.981     39.789
         INT  0.671E+28            26748.550    164.061    200.581
         TR   0.175E+29             1481.254      4.968     45.450
         TOT                       28229.8042   169.0293   246.0310  1029.3936

       T/K    H(0)-H(T)+PV         H(T)/Eh          T*S/Eh         G(T)/Eh
   ------------------------------------------------------------------------
    298.15    0.449871E-01    0.688621E+00    0.116897E+00    0.571723E+00
   ------------------------------------------------------------------------

         :::::::::::::::::::::::::::::::::::::::::::::::::::::
         ::                  THERMODYNAMIC                  ::
         :::::::::::::::::::::::::::::::::::::::::::::::::::::
         :: total free energy        -138.287891728877 Eh   ::
         ::.................................................::
         :: total energy             -138.859615003656 Eh   ::
         :: zero point energy           0.643633477933 Eh   ::
         :: G(RRHO) w/o ZPVE           -0.071910203154 Eh   ::
         :: G(RRHO) contrib.            0.571723274779 Eh   ::
         :::::::::::::::::::::::::::::::::::::::::::::::::::::

           -------------------------------------------------
          | TOTAL ENERGY             -138.859615003656 Eh   |
          | TOTAL ENTHALPY           -138.170994469172 Eh   |
          | TOTAL FREE ENERGY        -138.287891728877 Eh   |
          | GRADIENT NORM               0.000199407587 Eh/α |
          | HOMO-LUMO GAP               2.119270367848 eV   |
           -------------------------------------------------

 * finished run on 2025/08/30 at 17:25:05.863
