   * xtb version 6.7.1 (edcfbbe) compiled by 'albert@albert-system' on 2024-07-22

   ID    Z sym.   atoms
    1    6 C      1, 3-14, 16-18, 20-28, 30-35, 37, 39-47, 49-53
    2    8 O      2, 29, 48
    3    7 N      15, 19, 36, 38
    4    1 H      54-85

          program call               : xtb data2507/toluene/OCzBN/OCzBN_toluene_S0_finalOpt.xtbopt.xyz --gfn 2 --uhf 2 --gbsa toluene --ohess vtight --parallel 40 --molden --ceasefiles --namespace data2507/toluene/OCzBN/OCzBN_toluene_T1_preOpt
      * Solvation model:               GBSA
        Solvent                        toluene
        Solvent mass                       9.2140E+01 g/mol
          :  Hamiltonian                  GFN2-xTB          :
 * total energy  :  -138.7671142 Eh     change       -0.4046399E-09 Eh
 * total energy  :  -138.7703014 Eh     change       -0.3187183E-02 Eh
 * total energy  :  -138.7713283 Eh     change       -0.1026854E-02 Eh
 * total energy  :  -138.7714133 Eh     change       -0.8503747E-04 Eh
 * total energy  :  -138.7714761 Eh     change       -0.6283610E-04 Eh
 * total energy  :  -138.7714958 Eh     change       -0.1962582E-04 Eh
 * total energy  :  -138.7715176 Eh     change       -0.2187647E-04 Eh
 * total energy  :  -138.7715266 Eh     change       -0.8937804E-05 Eh
 * total energy  :  -138.7715327 Eh     change       -0.6124763E-05 Eh
 * total energy  :  -138.7715401 Eh     change       -0.7363729E-05 Eh
 * total energy  :  -138.7716340 Eh     change       -0.2084174E-05 Eh
 * total energy  :  -138.7716361 Eh     change       -0.2144003E-05 Eh
 * total energy  :  -138.7716382 Eh     change       -0.2152193E-05 Eh
 * total energy  :  -138.7716402 Eh     change       -0.1985164E-05 Eh
 * total energy  :  -138.7716417 Eh     change       -0.1489618E-05 Eh
 * total energy  :  -138.7716426 Eh     change       -0.9156049E-06 Eh
 * total energy  :  -138.7716432 Eh     change       -0.5479990E-06 Eh
 * total energy  :  -138.7716436 Eh     change       -0.3709906E-06 Eh
 * total energy  :  -138.7716436 Eh     change       -0.2527287E-08 Eh
   *** GEOMETRY OPTIMIZATION CONVERGED AFTER 44 ITERATIONS ***

 final structure:
================
85
 xtb: 6.7.1 (edcfbbe)
C           -2.39203322087294       -8.10200951254211        2.57882833532410
O           -2.74408119124880       -6.73605342854318        2.63029254120991
C           -1.95469664009378       -5.82953534721639        1.99485053839413
C           -2.37727366179102       -4.48936065621115        2.11661836249160
C           -1.69019582232661       -3.45880029054646        1.51924951918769
C           -0.55417782927839       -3.76686226259438        0.77551944912016
C           -0.09788102735841       -5.10912362320452        0.67992446849719
C           -0.80435070588526       -6.14299692856585        1.28179562536875
C            1.11245808992990       -5.07280599157684       -0.08511933473321
C            2.00675981018505       -6.04591329520485       -0.51425288476696
C            3.08583581731218       -5.66205220117545       -1.28857837497906
C            3.27314604883386       -4.32838381110502       -1.64988677402696
C            2.39876478848840       -3.34136720280585       -1.22961023447264
C            1.32912131570201       -3.71246737901420       -0.42930734539992
N            0.31139410474542       -2.93771573520093        0.09936418808204
C            0.18830017435033       -1.55556856111551       -0.02216222958250
C           -1.05552359397300       -0.97279996979054       -0.35487494931828
C           -1.20028935237956        0.38448412207234       -0.43420133981127
N           -2.43013612909887        0.94996564907941       -0.80653399637546
C           -3.11237908803520        0.69414185222583       -1.97882717479237
C           -2.79516536690781       -0.17733298820617       -3.01059739438061
C           -3.65496527328647       -0.23600238053947       -4.09274878940560
C           -4.80006746776163        0.55463486461447       -4.15281240311361
C           -5.11195493314209        1.43773069604168       -3.13449264699689
C           -4.26420556969971        1.51562663560762       -2.03853290798820
C           -4.26119531244939        2.30560002991874       -0.83729976075626
C           -5.12609882698851        3.26751856949903       -0.33581327403838
C           -4.83660548141978        3.83413152497430        0.90026455671629
O           -5.58927065450255        4.78936856212658        1.50942653377578
C           -6.73626254244267        5.27805512794936        0.84677223869248
C           -3.70492649363455        3.41962553998034        1.62763111228436
C           -2.84210219173782        2.46803133209153        1.13970183393067
C           -3.10915208945288        1.92114401938366       -0.11137079561955
C           -0.08692897507987        1.26705247321401       -0.18574508510183
C           -0.17152331940834        2.61765202464999       -0.43413622233008
N           -0.23932810465972        3.76031948766263       -0.65005935690615
C            1.16348029133756        0.64868903600862        0.18181707413833
N            2.26339754641151        1.47501654464063        0.45763721093885
C            2.29896338514014        2.48029159906058        1.40098500716588
C            1.32986876699523        2.86142760544292        2.31692455002100
C            1.62648802692850        3.90328781397353        3.17576799659743
C            2.86329103210864        4.54250328666379        3.13851192838600
C            3.84379610449415        4.14929461869149        2.24521766978082
C            3.56739122545740        3.10829061512537        1.37081922059383
C            4.32631126642386        2.43803912882193        0.35020822878799
C            5.61368694307874        2.61044167917079       -0.13895884416724
C            6.04374494725972        1.78514551427899       -1.17156438040835
O            7.27783899764228        1.83792793977990       -1.74308457996114
C            8.20578885431151        2.79163013579430       -1.27192067020994
C            5.18262781758178        0.81224351343393       -1.71261335424600
C            3.90575863457054        0.63328903709947       -1.23459903972058
C            3.47864668934657        1.43949073919198       -0.18506462097899
C            1.29009777656527       -0.71176572592130        0.24166140522585
H           -3.16152806205152       -8.62308614393375        3.14597069013384
H           -1.41623241254967       -8.27892969180794        3.04092314010119
H           -2.38431628110577       -8.47260855967657        1.54947535907968
H           -3.26075229864379       -4.29651883152576        2.70400435498514
H           -2.01944351562204       -2.43916925506559        1.64361063936177
H           -0.44869749883422       -7.15594830763857        1.18989595750963
H            1.85627962117693       -7.08215029470799       -0.25175219121624
H            3.79136733972692       -6.40499306417392       -1.62998285131661
H            4.11326064505466       -4.06002971068680       -2.27277718210274
H            2.54185251344015       -2.31563017424333       -1.52994387584431
H           -1.89852718281359       -1.61183938192481       -0.56968502592611
H           -1.90177075879612       -0.78220516678088       -2.97505877641203
H           -3.43115378401830       -0.90677490069327       -4.90890247888951
H           -5.44802815880518        0.48026542068207       -5.01338064108879
H           -5.99383797460461        2.05746833432360       -3.19134421920861
H           -5.99481929794403        3.55450787857474       -0.90499043823097
H           -6.47608971780340        5.73779448038895       -0.11119949719379
H           -7.15534399643922        6.03303063563601        1.50981063130328
H           -7.47189955404751        4.48414699219791        0.68700252727542
H           -3.53441101883636        3.87802317582783        2.58886196100350
H           -1.98340385724866        2.15814435049206        1.71371950585085
H            0.37415227188715        2.36244659716245        2.35753341404885
H            0.88462045191075        4.22526391766072        3.89128037799024
H            3.05820549011332        5.35421211928844        3.82340116198769
H            4.80469860193859        4.64082951327662        2.22836890339471
H            6.24563117129937        3.37594992072218        0.27990902941442
H            8.43881920458832        2.63189995603966       -0.21499532534283
H            7.83719320642885        3.81144372336704       -1.41713038735045
H            9.10434274848103        2.64253158641222       -1.86830572339968
H            5.55768082159115        0.21042635965027       -2.52521275054065
H            3.24937770127420       -0.10149632198756       -1.67317983053748
H            2.22950109032817       -1.14555421127671        0.54979171259836

          :  Hamiltonian                  GFN2-xTB          :
         :: gradient norm              0.000054753194 Eh/a0 ::
         :: HOMO-LUMO gap              0.322851690387 eV    ::
         :: SCC energy              -141.132143454126 Eh    ::
         :: -> dispersion             -0.121470647201 Eh    ::
         :: -> Gsolv                  -0.063278684340 Eh    ::
         :: repulsion energy           2.360499891982 Eh    ::

    * Orbital Energies and Occupations

         #    Occupation            Energy/Eh            Energy/eV
      -------------------------------------------------------------
         1        2.0000           -0.7246737             -19.7194
       ...           ...                  ...                  ...
       116        2.0000           -0.4149141             -11.2904
       117        2.0000           -0.4059816             -11.0473
       118        2.0000           -0.4045621             -11.0087
       119        2.0000           -0.4034383             -10.9781
       120        2.0000           -0.3967578             -10.7963
       121        2.0000           -0.3956721             -10.7668
       122        2.0000           -0.3848537             -10.4724
       123        2.0000           -0.3845908             -10.4652
       124        2.0000           -0.3829127             -10.4196
       125        1.9853           -0.3660275              -9.9601
       126        1.6603           -0.3626648              -9.8686
       127        1.3544           -0.3614639              -9.8359
       128        0.9975           -0.2660834              -7.2405 (HOMO)
       129        0.0015           -0.2542188              -6.9176 (LUMO)
       130        0.0008           -0.2536041              -6.9009
       131        0.0001           -0.2519266              -6.8553
       132                         -0.2336680              -6.3584
       133                         -0.2272552              -6.1839
       134                         -0.2271426              -6.1809
       135                         -0.2270484              -6.1783
       136                         -0.2042896              -5.5590
       137                         -0.1971269              -5.3641
       138                         -0.1953463              -5.3156
       139                         -0.1938732              -5.2756
       ...                                ...                  ...
       244                          1.1639707              31.6733
      -------------------------------------------------------------
                  HL-Gap            0.0118646 Eh            0.3229 eV

     #   Z          covCN         q      C6AA      α(0)
     1   6 C        3.642     0.031    20.391     6.492
     2   8 O        1.705    -0.273    18.520     5.810
     3   6 C        2.864     0.141    24.930     8.184
     4   6 C        2.922    -0.060    29.490     8.905
     5   6 C        2.907    -0.042    29.039     8.836
     6   6 C        3.075     0.036    27.118     8.538
     7   6 C        3.064    -0.015    28.321     8.727
     8   6 C        2.908    -0.070    29.735     8.941
     9   6 C        3.063    -0.018    28.389     8.737
    10   6 C        2.911    -0.032    28.793     8.799
    11   6 C        2.919    -0.037    28.916     8.818
    12   6 C        2.922    -0.037    28.917     8.818
    13   6 C        2.909    -0.042    29.043     8.837
    14   6 C        3.077     0.040    27.015     8.522
    15   7 N        2.796    -0.006    21.367     6.865
    16   6 C        2.907     0.018    27.607     8.615
    17   6 C        2.914    -0.061    29.517     8.909
    18   6 C        2.908     0.044    27.021     8.524
    19   7 N        2.803    -0.031    21.839     6.941
    20   6 C        3.080     0.048    26.837     8.493
    21   6 C        2.909    -0.045    29.129     8.850
    22   6 C        2.923    -0.033    28.823     8.804
    23   6 C        2.919    -0.038    28.937     8.821
    24   6 C        2.912    -0.031    28.772     8.796
    25   6 C        3.067    -0.015    28.328     8.727
    26   6 C        3.067    -0.014    28.294     8.722
    27   6 C        2.909    -0.069    29.716     8.939
    28   6 C        2.865     0.140    24.938     8.186
    29   8 O        1.705    -0.273    18.525     5.811
    30   6 C        3.642     0.031    20.402     6.494
    31   6 C        2.923    -0.055    29.362     8.886
    32   6 C        2.909    -0.038    28.945     8.822
    33   6 C        3.080     0.047    26.855     8.496
    34   6 C        2.963    -0.048    29.184     8.861
    35   6 C        1.906     0.103    28.545     8.629
    36   7 N        0.911    -0.388    30.029     7.925
    37   6 C        2.908     0.044    27.018     8.523
    38   7 N        2.803    -0.029    21.807     6.936
    39   6 C        3.081     0.052    26.744     8.478
    40   6 C        2.910    -0.039    28.969     8.826
    41   6 C        2.923    -0.032    28.794     8.800
    42   6 C        2.920    -0.037    28.914     8.818
    43   6 C        2.912    -0.031    28.779     8.797
    44   6 C        3.067    -0.016    28.339     8.729
    45   6 C        3.067    -0.014    28.285     8.721
    46   6 C        2.909    -0.069    29.713     8.938
    47   6 C        2.864     0.139    24.963     8.190
    48   8 O        1.705    -0.275    18.554     5.816
    49   6 C        3.642     0.031    20.394     6.493
    50   6 C        2.923    -0.057    29.409     8.893
    51   6 C        2.909    -0.043    29.077     8.842
    52   6 C        3.080     0.042    26.976     8.515
    53   6 C        2.914    -0.062    29.539     8.912
    54   1 H        0.925     0.071     2.080     2.255
    55   1 H        0.924     0.052     2.293     2.368
    56   1 H        0.924     0.052     2.291     2.367
    57   1 H        0.926     0.050     2.319     2.381
    58   1 H        0.926     0.046     2.375     2.410
    59   1 H        0.926     0.049     2.334     2.389
    60   1 H        0.926     0.037     2.488     2.467
    61   1 H        0.926     0.035     2.519     2.482
    62   1 H        0.926     0.035     2.516     2.480
    63   1 H        0.926     0.034     2.527     2.486
    64   1 H        0.926     0.043     2.412     2.429
    65   1 H        0.926     0.035     2.511     2.478
    66   1 H        0.926     0.039     2.463     2.454
    67   1 H        0.926     0.039     2.465     2.455
    68   1 H        0.926     0.041     2.442     2.444
    69   1 H        0.926     0.052     2.290     2.367
    70   1 H        0.924     0.052     2.293     2.368
    71   1 H        0.925     0.072     2.063     2.246
    72   1 H        0.924     0.053     2.282     2.362
    73   1 H        0.926     0.053     2.284     2.363
    74   1 H        0.926     0.036     2.504     2.474
    75   1 H        0.926     0.027     2.635     2.539
    76   1 H        0.926     0.038     2.472     2.459
    77   1 H        0.926     0.040     2.453     2.449
    78   1 H        0.926     0.042     2.428     2.437
    79   1 H        0.926     0.051     2.307     2.375
    80   1 H        0.924     0.052     2.297     2.370
    81   1 H        0.924     0.051     2.306     2.375
    82   1 H        0.925     0.071     2.074     2.252
    83   1 H        0.926     0.054     2.270     2.356
    84   1 H        0.926     0.042     2.421     2.433
    85   1 H        0.926     0.041     2.441     2.443

molecular dipole:
                 x           y           z       tot (Debye)
 q only:        0.031      -2.110       0.398
   full:        0.083      -2.448       0.415       6.315

 projected vibrational frequencies (cm⁻¹)
eigval :       -0.00    -0.00     0.00     0.00     0.00     0.00
eigval :       12.43    14.56    16.05    19.04    20.57    21.56
eigval :       39.13    47.14    57.44    65.81    66.98    76.04
eigval :       82.98    91.08    93.95    94.84   114.62   116.86
eigval :      127.04   129.02   140.52   141.47   144.41   153.79
eigval :      154.46   173.65   195.02   198.37   203.42   214.39
eigval :      226.49   232.17   244.23   252.46   258.65   260.65
eigval :      262.20   277.95   291.95   297.50   300.82   303.94
eigval :      335.16   355.90   373.62   377.74   382.59   389.17
eigval :      391.10   393.48   396.63   403.40   410.31   418.65
eigval :      422.02   422.54   437.65   463.38   468.61   471.29
eigval :      482.24   485.48   491.54   500.47   503.91   531.08
eigval :      532.97   536.97   551.34   568.13   576.17   580.89
eigval :      582.26   584.77   585.73   596.61   599.87   603.52
eigval :      621.48   621.89   631.14   653.39   666.45   670.42
eigval :      672.80   676.93   694.59   703.10   704.38   705.62
eigval :      720.22   723.07   754.92   761.95   767.49   774.56
eigval :      779.46   803.56   805.57   808.71   834.47   836.68
eigval :      842.67   848.84   852.53   857.11   858.88   860.09
eigval :      861.77   871.50   881.77   888.44   894.71   894.82
eigval :      899.31   903.32   903.71   908.20   910.27   917.71
eigval :      918.45   919.99   921.37   924.58   996.40  1014.25
eigval :     1017.53  1019.69  1027.88  1047.32  1049.01  1049.39
eigval :     1064.39  1066.80  1067.56  1084.42  1109.87  1112.28
eigval :     1112.43  1114.24  1119.12  1128.17  1130.19  1135.41
eigval :     1146.85  1149.25  1149.48  1153.62  1160.39  1172.16
eigval :     1173.48  1174.65  1177.86  1178.44  1184.91  1189.64
eigval :     1214.72  1219.69  1227.81  1228.64  1231.78  1239.78
eigval :     1246.69  1257.12  1262.99  1265.81  1269.46  1278.75
eigval :     1284.23  1299.95  1305.38  1326.16  1348.07  1349.79
eigval :     1351.25  1352.46  1355.67  1361.19  1361.94  1369.44
eigval :     1387.76  1392.16  1393.36  1393.75  1408.37  1415.37
eigval :     1415.81  1421.41  1431.37  1443.79  1453.75  1460.14
eigval :     1460.32  1461.07  1461.27  1461.44  1470.84  1471.62
eigval :     1472.76  1480.13  1481.59  1482.77  1485.99  1524.48
eigval :     1542.07  1550.60  1551.69  1555.87  1564.31  1566.26
eigval :     1570.94  1575.92  1578.08  1581.54  1586.09  1597.07
eigval :     2206.05  2939.26  2939.43  2939.45  2950.31  2950.63
eigval :     2950.96  3026.57  3026.58  3026.68  3076.96  3078.51
eigval :     3079.05  3083.17  3083.80  3084.06  3089.66  3091.18
eigval :     3091.49  3092.29  3093.51  3094.25  3095.53  3096.46
eigval :     3096.85  3097.83  3102.04  3108.82  3109.06  3110.51
eigval :     3113.41  3114.16  3114.88

   temp. (K)  partition function   enthalpy   heat capacity  entropy
                                   cal/mol     cal/K/mol   cal/K/mol   J/K/mol
 298.15  VIB  0.139E+21            26193.703    162.664    163.040
         ROT  0.111E+09              888.752      2.981     39.794
         INT  0.154E+29            27082.456    165.645    202.835
         TR   0.175E+29             1481.254      4.968     45.450
         TOT                       28563.7095   170.6133   248.2844  1038.8221

       T/K    H(0)-H(T)+PV         H(T)/Eh          T*S/Eh         G(T)/Eh
   ------------------------------------------------------------------------
    298.15    0.455192E-01    0.684697E+00    0.117968E+00    0.566729E+00
   ------------------------------------------------------------------------

         :::::::::::::::::::::::::::::::::::::::::::::::::::::
         ::                  THERMODYNAMIC                  ::
         :::::::::::::::::::::::::::::::::::::::::::::::::::::
         :: total free energy        -138.204914327197 Eh   ::
         ::.................................................::
         :: total energy             -138.771643563595 Eh   ::
         :: zero point energy           0.639178012245 Eh   ::
         :: G(RRHO) w/o ZPVE           -0.072448775847 Eh   ::
         :: G(RRHO) contrib.            0.566729236398 Eh   ::
         :::::::::::::::::::::::::::::::::::::::::::::::::::::

           -------------------------------------------------
          | TOTAL ENERGY             -138.771643563595 Eh   |
          | TOTAL ENTHALPY           -138.086946382768 Eh   |
          | TOTAL FREE ENERGY        -138.204914327197 Eh   |
          | GRADIENT NORM               0.000055436228 Eh/α |
          | HOMO-LUMO GAP               0.322852123073 eV   |
           -------------------------------------------------

 * finished run on 2025/08/30 at 17:25:15.528
