   * xtb version 6.7.1 (edcfbbe) compiled by 'albert@albert-system' on 2024-07-22

   ID    Z sym.   atoms
    1    6 C      1-20, 22-26, 28-31, 33-42
    2    7 N      21
    3    8 O      27
    4   16 S      32
    5    1 H      43-77

          program call               : xtb data2507/gas/tCTM/tCTM.xyz --gfn 2 --ohess vtight --parallel 40 --molden --ceasefiles --namespace data2507/gas/tCTM/tCTM_gas_S0_preOpt
          :  Hamiltonian                  GFN2-xTB          :
 * total energy  :  -111.6537004 Eh     change       -0.1820780E-08 Eh
 * total energy  :  -111.6674588 Eh     change       -0.1375841E-01 Eh
 * total energy  :  -111.6710538 Eh     change       -0.3594982E-02 Eh
 * total energy  :  -111.6720019 Eh     change       -0.9481529E-03 Eh
 * total energy  :  -111.6726268 Eh     change       -0.6248470E-03 Eh
 * total energy  :  -111.6728405 Eh     change       -0.2136745E-03 Eh
 * total energy  :  -111.6729625 Eh     change       -0.1220163E-03 Eh
 * total energy  :  -111.6730541 Eh     change       -0.9163267E-04 Eh
 * total energy  :  -111.6731074 Eh     change       -0.5327091E-04 Eh
 * total energy  :  -111.6731453 Eh     change       -0.3794215E-04 Eh
 * total energy  :  -111.6734029 Eh     change       -0.1482668E-05 Eh
 * total energy  :  -111.6734045 Eh     change       -0.1579038E-05 Eh
 * total energy  :  -111.6734061 Eh     change       -0.1638229E-05 Eh
 * total energy  :  -111.6734076 Eh     change       -0.1485187E-05 Eh
 * total energy  :  -111.6734087 Eh     change       -0.1061127E-05 Eh
 * total energy  :  -111.6734093 Eh     change       -0.6057267E-06 Eh
 * total energy  :  -111.6734096 Eh     change       -0.3311506E-06 Eh
 * total energy  :  -111.6734098 Eh     change       -0.1774546E-06 Eh
 * total energy  :  -111.6734098 Eh     change       -0.1828292E-07 Eh
   *** GEOMETRY OPTIMIZATION CONVERGED AFTER 40 ITERATIONS ***

 final structure:
================
77
 xtb: 6.7.1 (edcfbbe)
C           -7.15250647269693       -2.60218332853086       -0.42325441420604
C           -5.90622918306274       -3.48323032996203       -0.30020430680946
C           -6.07648386610513       -4.37668380652451        0.93665109386061
C           -5.81125668926405       -4.35294655287039       -1.56169345492326
C           -4.62800339708309       -2.67037691839902       -0.15553135295058
C           -3.40779721965712       -3.34592249974231       -0.02377104749315
C           -2.20006306661710       -2.69393503876657        0.12357698001267
C           -2.20756716423355       -1.30829789886298        0.15133015555166
C           -3.41748008656604       -0.60413537068579       -0.01350117774474
C           -4.61827424868642       -1.28513940962391       -0.16024100992890
C           -3.08202850992891        0.79404333714334       -0.00373764142062
C           -3.83952296987506        1.94983036657894       -0.09957474526791
C           -3.22443494204524        3.19307698494310       -0.02860980618791
C           -4.07820651239238        4.44795223353191       -0.14522634919002
C           -4.80095972625493        4.43670524630167       -1.49980866634896
C           -5.10835236632174        4.46022081595538        0.99314342654129
C           -3.25817160561614        5.73789083446280       -0.05691050623553
C           -1.84108002460407        3.24113699330990        0.16069495351690
C           -1.06101143335743        2.10285384812619        0.26009141751925
C           -1.68187365651421        0.87012330528097        0.15644031108343
N           -1.15955703847587       -0.40869187294694        0.25219916970989
C            0.18377112214951       -0.73111509677256        0.43047122101755
C            1.16420550241069       -0.11262385004244       -0.34674721262915
C            2.49659241219234       -0.41280532437991       -0.15713690965008
C            2.87938782926904       -1.34976602760153        0.80235669076738
C            4.29512137082123       -1.73126235867005        1.01441155496212
O            4.60710314252368       -2.85724182879873        1.35344157951226
C            5.31888507068965       -0.67851927108062        0.79397293487481
C            5.06180727072167        0.67003051375932        1.07226126908287
C            6.03903414930547        1.62618568404785        0.89193111420168
C            7.28200416997969        1.23017608595242        0.42070188252405
S            8.64121693709918        2.28075125441332        0.11378768732035
C            9.61904284641122        0.91367375790113       -0.38239311182817
C           10.93728602753350        0.97056770624565       -0.80244696095301
C           11.56388174505338       -0.20815290359513       -1.15911100210164
C           10.88591357561281       -1.42206521580416       -1.09711171945220
C            9.57230373998073       -1.47667554662311       -0.67860963971227
C            8.91972637636106       -0.30250287495608       -0.31448799762415
C            7.56794363436613       -0.12099965696355        0.14898093337244
C            6.57660047810909       -1.06978197089836        0.35270663713101
C            1.89360724606557       -1.99216532393919        1.55146621908899
C            0.56285197285348       -1.67840316440149        1.38272993722705
H           -7.10035477415100       -1.97155911763241       -1.30778607053579
H           -7.27646742173589       -1.97508299855663        0.45667506893063
H           -8.03474845237800       -3.23293244787931       -0.51309591931125
H           -5.24937513462763       -5.07323624865883        1.04066868278978
H           -6.99722507652737       -4.95140369795781        0.86029720360069
H           -6.12362215637812       -3.76685659880268        1.83659469285281
H           -4.98024455266188       -5.05012273457869       -1.50204830493687
H           -6.72714288944795       -4.92576017862567       -1.69188196386396
H           -5.66769203513957       -3.72646921346343       -2.43970441864106
H           -3.39587880129582       -4.42499079802255       -0.04104535259937
H           -1.28129960734609       -3.25566095180516        0.19894027151712
H           -5.52328195846663       -0.71363148798416       -0.28108642861471
H           -4.90797439354046        1.86381941279530       -0.22332627447525
H           -5.40780403250477        5.33320088917226       -1.60913420909240
H           -5.45176861100860        3.57212693421936       -1.59501136751835
H           -4.07694504941954        4.40867028441945       -2.31160113163468
H           -5.71866161222708        5.35929655722549        0.93755190990239
H           -4.60333827021663        4.44441719284376        1.95682331467612
H           -5.76739571403864        3.59819605656465        0.94075713193668
H           -3.92125392326498        6.59504285055260       -0.15688653510385
H           -2.52130527418891        5.78952518608026       -0.85518550145163
H           -2.75248991118359        5.81653636220172        0.90273033486560
H           -1.34167161272626        4.19247715384931        0.23989224665997
H            0.00222720687696        2.18668520181199        0.42834332366972
H            0.86838857503006        0.58692325789719       -1.11387903707485
H            3.24370248127517        0.05548354491697       -0.78113561187351
H            4.09638651393764        0.96069553935256        1.45837883133585
H            5.84756346517736        2.66463657426538        1.11365632804502
H           11.45619444782817        1.91546197847619       -0.84698371851169
H           12.59157976469869       -0.18574858187646       -1.48880779400690
H           11.39598432847475       -2.33049097781667       -1.38005260859263
H            9.04780345054209       -2.41859119473131       -0.62936098787063
H            6.76401555038009       -2.11617388026171        0.16541168639852
H            2.19809353307480       -2.72622805431294        2.28247269292793
H           -0.19142249298510       -2.14784934016878        1.99557837938492

          :  Hamiltonian                  GFN2-xTB          :
         :: gradient norm              0.000125495177 Eh/a0 ::
         :: HOMO-LUMO gap              1.970945135970 eV    ::
         :: SCC energy              -113.603767923956 Eh    ::
         :: -> dispersion             -0.098098518381 Eh    ::
         :: repulsion energy           1.930358132727 Eh    ::

    * Orbital Energies and Occupations

         #    Occupation            Energy/Eh            Energy/eV
      -------------------------------------------------------------
         1        2.0000           -0.7325555             -19.9338
       ...           ...                  ...                  ...
        92        2.0000           -0.4211198             -11.4593
        93        2.0000           -0.4209938             -11.4558
        94        2.0000           -0.4172381             -11.3536
        95        2.0000           -0.4165909             -11.3360
        96        2.0000           -0.4121830             -11.2161
        97        2.0000           -0.4088752             -11.1261
        98        2.0000           -0.4074594             -11.0875
        99        2.0000           -0.3975306             -10.8174
       100        2.0000           -0.3962777             -10.7833
       101        2.0000           -0.3886890             -10.5768
       102        2.0000           -0.3800797             -10.3425
       103        2.0000           -0.3745263             -10.1914
       104        2.0000           -0.3587801              -9.7629 (HOMO)
       105                         -0.2863493              -7.7920 (LUMO)
       106                         -0.2645790              -7.1996
       107                         -0.2451942              -6.6721
       108                         -0.2393870              -6.5141
       109                         -0.2372911              -6.4570
       110                         -0.2347395              -6.3876
       111                         -0.2184846              -5.9453
       112                         -0.2123309              -5.7778
       113                         -0.2109377              -5.7399
       114                         -0.1956228              -5.3232
       115                         -0.1833108              -4.9881
       ...                                ...                  ...
       208                          0.7447458              20.2656
      -------------------------------------------------------------
                  HL-Gap            0.0724308 Eh            1.9709 eV

     #   Z          covCN         q      C6AA      α(0)
     1   6 C        3.761    -0.107    22.588     6.775
     2   6 C        3.903     0.026    20.086     6.371
     3   6 C        3.762    -0.105    22.559     6.771
     4   6 C        3.761    -0.105    22.558     6.770
     5   6 C        2.973    -0.001    28.040     8.686
     6   6 C        2.931    -0.039    28.960     8.826
     7   6 C        2.909    -0.053    29.318     8.879
     8   6 C        3.075     0.043    26.967     8.514
     9   6 C        3.066    -0.019    28.408     8.740
    10   6 C        2.918    -0.043    29.072     8.842
    11   6 C        3.066    -0.018    28.392     8.737
    12   6 C        2.920    -0.039    28.972     8.827
    13   6 C        2.972    -0.001    28.045     8.687
    14   6 C        3.903     0.026    20.086     6.371
    15   6 C        3.762    -0.105    22.556     6.770
    16   6 C        3.762    -0.105    22.556     6.770
    17   6 C        3.761    -0.107    22.589     6.775
    18   6 C        2.929    -0.044    29.082     8.844
    19   6 C        2.909    -0.054    29.338     8.882
    20   6 C        3.074     0.042    26.978     8.516
    21   7 N        2.801    -0.042    22.058     6.975
    22   6 C        2.913     0.071    26.408     8.427
    23   6 C        2.921    -0.044    29.090     8.845
    24   6 C        2.920    -0.027    28.677     8.782
    25   6 C        2.972    -0.018    28.447     8.749
    26   6 C        2.829     0.225    23.282     7.907
    27   8 O        0.858    -0.376    21.201     6.173
    28   6 C        2.971    -0.017    28.442     8.748
    29   6 C        2.924    -0.030    28.747     8.793
    30   6 C        2.935    -0.038    28.956     8.825
    31   6 C        3.003     0.041    27.057     8.533
    32  16 S        2.212    -0.079   144.347    20.221
    33   6 C        3.004     0.039    27.110     8.541
    34   6 C        2.935    -0.038    28.936     8.822
    35   6 C        2.924    -0.029    28.719     8.788
    36   6 C        2.919    -0.033    28.816     8.803
    37   6 C        2.917    -0.030    28.756     8.794
    38   6 C        3.104    -0.001    27.927     8.659
    39   6 C        3.104    -0.001    27.920     8.658
    40   6 C        2.923    -0.021    28.540     8.761
    41   6 C        2.924    -0.018    28.461     8.749
    42   6 C        2.920    -0.043    29.078     8.843
    43   1 H        0.925     0.035     2.514     2.480
    44   1 H        0.925     0.035     2.511     2.478
    45   1 H        0.925     0.035     2.513     2.479
    46   1 H        0.925     0.036     2.502     2.474
    47   1 H        0.925     0.036     2.500     2.473
    48   1 H        0.925     0.033     2.540     2.492
    49   1 H        0.925     0.036     2.504     2.475
    50   1 H        0.925     0.036     2.499     2.472
    51   1 H        0.925     0.033     2.541     2.493
    52   1 H        0.926     0.031     2.575     2.510
    53   1 H        0.926     0.028     2.618     2.530
    54   1 H        0.926     0.037     2.483     2.464
    55   1 H        0.926     0.031     2.567     2.505
    56   1 H        0.925     0.036     2.503     2.474
    57   1 H        0.925     0.036     2.500     2.473
    58   1 H        0.925     0.033     2.544     2.494
    59   1 H        0.925     0.036     2.501     2.473
    60   1 H        0.925     0.033     2.543     2.494
    61   1 H        0.925     0.036     2.501     2.473
    62   1 H        0.925     0.035     2.510     2.477
    63   1 H        0.925     0.035     2.517     2.481
    64   1 H        0.925     0.035     2.516     2.481
    65   1 H        0.926     0.036     2.498     2.471
    66   1 H        0.926     0.024     2.669     2.555
    67   1 H        0.926     0.045     2.378     2.411
    68   1 H        0.926     0.039     2.456     2.451
    69   1 H        0.926     0.041     2.434     2.440
    70   1 H        0.926     0.045     2.387     2.416
    71   1 H        0.926     0.042     2.422     2.434
    72   1 H        0.926     0.039     2.459     2.452
    73   1 H        0.926     0.038     2.473     2.459
    74   1 H        0.926     0.043     2.412     2.429
    75   1 H        0.926     0.059     2.206     2.323
    76   1 H        0.926     0.058     2.223     2.331
    77   1 H        0.926     0.048     2.348     2.396

molecular dipole:
                 x           y           z       tot (Debye)
 q only:       -0.418       0.777      -0.455
   full:       -0.373       0.700      -0.494       2.376

 projected vibrational frequencies (cm⁻¹)
eigval :       -0.00     0.00     0.00     0.00     0.00     0.00
eigval :        8.83    12.73    18.45    26.04    31.25    32.09
eigval :       43.87    57.53    68.03    77.49    78.12    93.82
eigval :      105.45   106.73   122.55   143.62   158.03   161.55
eigval :      167.26   181.31   181.53   194.58   213.73   217.73
eigval :      225.18   234.84   239.91   248.84   255.49   266.96
eigval :      273.22   286.84   301.80   318.57   323.32   325.81
eigval :      332.73   344.95   356.88   359.27   384.42   386.19
eigval :      391.28   397.11   400.53   408.77   412.02   420.63
eigval :      437.06   442.93   445.18   461.14   463.41   466.82
eigval :      479.14   481.35   495.38   519.32   527.81   544.55
eigval :      570.09   581.85   583.68   590.94   597.06   609.39
eigval :      626.52   640.15   648.84   671.37   684.20   688.49
eigval :      692.87   699.65   707.74   717.80   719.70   729.97
eigval :      740.68   774.97   801.78   816.63   822.38   830.40
eigval :      833.27   833.53   870.64   872.54   873.99   876.44
eigval :      878.50   882.97   906.67   907.68   913.80   916.20
eigval :      916.51   924.00   925.77   930.65   932.93   939.94
eigval :      956.01   960.15   960.49   962.74   962.86   963.12
eigval :      963.25  1003.33  1029.88  1032.89  1035.83  1035.90
eigval :     1036.00  1039.99  1047.91  1075.46  1093.51  1116.74
eigval :     1130.83  1135.80  1144.36  1154.98  1163.67  1173.78
eigval :     1179.53  1181.47  1186.38  1212.21  1223.02  1227.97
eigval :     1228.36  1228.93  1232.42  1233.38  1235.84  1248.30
eigval :     1253.30  1262.50  1263.54  1285.80  1292.08  1301.58
eigval :     1307.80  1323.07  1338.02  1341.86  1347.86  1361.04
eigval :     1376.87  1400.94  1401.53  1404.66  1406.04  1406.31
eigval :     1407.10  1412.19  1416.12  1429.50  1429.65  1435.00
eigval :     1439.11  1467.23  1474.93  1483.53  1490.40  1492.33
eigval :     1492.40  1494.97  1495.05  1501.67  1502.62  1505.72
eigval :     1506.03  1515.18  1515.65  1520.67  1520.84  1547.62
eigval :     1554.31  1563.57  1572.48  1577.24  1582.89  1586.45
eigval :     1586.74  1604.98  1618.37  1684.94  3021.02  3021.42
eigval :     3022.81  3022.97  3026.75  3026.80  3029.67  3030.09
eigval :     3030.83  3030.91  3035.40  3035.52  3037.78  3037.91
eigval :     3047.42  3047.48  3050.94  3051.07  3080.49  3081.95
eigval :     3082.31  3083.88  3087.59  3090.01  3090.46  3090.75
eigval :     3094.96  3096.55  3096.86  3098.67  3100.57  3100.91
eigval :     3103.10  3117.53  3119.17

   temp. (K)  partition function   enthalpy   heat capacity  entropy
                                   cal/mol     cal/K/mol   cal/K/mol   J/K/mol
 298.15  VIB  0.451E+17            22008.351    138.083    135.571
         ROT  0.966E+08              888.752      2.981     39.519
         INT  0.436E+25            22897.103    141.064    175.090
         TR   0.130E+29             1481.254      4.968     44.863
         TOT                       24378.3569   146.0320   219.9538   920.2867

       T/K    H(0)-H(T)+PV         H(T)/Eh          T*S/Eh         G(T)/Eh
   ------------------------------------------------------------------------
    298.15    0.388494E-01    0.657070E+00    0.104507E+00    0.552563E+00
   ------------------------------------------------------------------------

         :::::::::::::::::::::::::::::::::::::::::::::::::::::
         ::                  THERMODYNAMIC                  ::
         :::::::::::::::::::::::::::::::::::::::::::::::::::::
         :: total free energy        -111.120847280917 Eh   ::
         ::.................................................::
         :: total energy             -111.673409791228 Eh   ::
         :: zero point energy           0.618220275779 Eh   ::
         :: G(RRHO) w/o ZPVE           -0.065657765469 Eh   ::
         :: G(RRHO) contrib.            0.552562510310 Eh   ::
         :::::::::::::::::::::::::::::::::::::::::::::::::::::

           -------------------------------------------------
          | TOTAL ENERGY             -111.673409791228 Eh   |
          | TOTAL ENTHALPY           -111.016340130847 Eh   |
          | TOTAL FREE ENERGY        -111.120847280917 Eh   |
          | GRADIENT NORM               0.000125500257 Eh/α |
          | HOMO-LUMO GAP               1.970943267334 eV   |
           -------------------------------------------------

 * finished run on 2025/09/07 at 01:26:32.600
