   * xtb version 6.7.1 (edcfbbe) compiled by 'albert@albert-system' on 2024-07-22

   ID    Z sym.   atoms
    1    6 C      1-20, 22-26, 28-31, 33-42
    2    7 N      21
    3    8 O      27
    4   16 S      32
    5    1 H      43-77

          program call               : xtb data2507/gas/tCTM/tCTM_gas_S0_crest.xyz --gfn 2 --ohess vtight --parallel 40 --molden --ceasefiles --namespace data2507/gas/tCTM/tCTM_gas_S0_finalOpt
          :  Hamiltonian                  GFN2-xTB          :
 * total energy  :  -111.6736922 Eh     change       -0.1007592E-08 Eh
 * total energy  :  -111.6736937 Eh     change       -0.1489828E-05 Eh
 * total energy  :  -111.6736960 Eh     change       -0.2291806E-05 Eh
 * total energy  :  -111.6736999 Eh     change       -0.3864518E-05 Eh
 * total energy  :  -111.6737034 Eh     change       -0.3498402E-05 Eh
 * total energy  :  -111.6737044 Eh     change       -0.1007281E-05 Eh
 * total energy  :  -111.6737044 Eh     change       -0.4913767E-07 Eh
 * total energy  :  -111.6737050 Eh     change       -0.5963899E-06 Eh
 * total energy  :  -111.6737060 Eh     change       -0.1016048E-05 Eh
 * total energy  :  -111.6737075 Eh     change       -0.1465828E-05 Eh
 * total energy  :  -111.6737198 Eh     change       -0.1986933E-06 Eh
 * total energy  :  -111.6737200 Eh     change       -0.1860991E-06 Eh
 * total energy  :  -111.6737202 Eh     change       -0.1571312E-06 Eh
 * total energy  :  -111.6737203 Eh     change       -0.1569157E-06 Eh
 * total energy  :  -111.6737205 Eh     change       -0.1289317E-06 Eh
 * total energy  :  -111.6737206 Eh     change       -0.1359914E-06 Eh
 * total energy  :  -111.6737207 Eh     change       -0.1152770E-06 Eh
 * total energy  :  -111.6737208 Eh     change       -0.1191027E-06 Eh
 * total energy  :  -111.6737208 Eh     change       -0.1480117E-08 Eh
   *** GEOMETRY OPTIMIZATION CONVERGED AFTER 44 ITERATIONS ***

 final structure:
================
77
 xtb: 6.7.1 (edcfbbe)
C           -8.45561987176401       -1.01738477360620        0.16757069617147
C           -7.48881658843742       -2.20469730299579        0.15339169903540
C           -7.72594482970578       -3.02730191457514        1.42775452855693
C           -7.80289489897379       -3.05842583070162       -1.08331320498130
C           -6.03118818783533       -1.77072228151213        0.10308913724324
C           -5.03330784347368       -2.75397049032481        0.07668733637984
C           -3.68660032752871       -2.45627307929831        0.02393460903966
C           -3.31666781445756       -1.12119053014862       -0.01424558000004
C           -4.29925706875304       -0.11188161963975        0.04244795634182
C           -5.64743757668187       -0.43983988723221        0.09555249601921
C           -3.59768741782009        1.14287321450472        0.04823756026817
C           -4.02476612435691        2.46385376493582        0.06884419675832
C           -3.09311087595422        3.48851668300085        0.03836235989693
C           -3.48712123614906        4.95810948177974        0.06497269395134
C           -5.00236797177582        5.15898138853476        0.15420718348951
C           -2.84612635297357        5.62928456120182        1.28798604586580
C           -2.99165577088269        5.63613591478365       -1.22027512601536
C           -1.73452476468948        3.15409735575071       -0.03280856313306
C           -1.28275258678322        1.85007957454949       -0.05455078286776
C           -2.22284502572719        0.83358352186797        0.00690381510089
N           -2.06009779423006       -0.54039669026023       -0.03331296669304
C           -0.84249095360469       -1.21482860695929       -0.09146556032769
C           -0.65007211192125       -2.25198616566794       -1.00500997396443
C            0.56178608059505       -2.90533672733223       -1.06083357008848
C            1.61762615595873       -2.52414160924404       -0.23300052782391
C            2.90353078966444       -3.25417023544987       -0.33840736569797
O            2.94599790412151       -4.42876700525336       -0.65065028320246
C            4.13809414035212       -2.48041047399798       -0.05253798790380
C            5.24763054026782       -3.16492970951896        0.46050989976219
C            6.42762764644938       -2.50770723778866        0.73174303426042
C            6.50259952012806       -1.14749290812661        0.46908038498669
S            7.89473821232639       -0.12842300794595        0.73369156922894
C            7.02512185147657        1.26426422532318        0.12255075275673
C            7.52539771006384        2.55159014587237        0.02014001497421
C            6.70031732061772        3.53902014673671       -0.48301753035131
C            5.39789591522068        3.24621168065919       -0.87644747408422
C            4.90126776511968        1.96305305348525       -0.77405065581036
C            5.71394783264356        0.95078454520290       -0.27186049468312
C            5.41046421617586       -0.44316918958234       -0.07109380550035
C            4.22751891147714       -1.12260345403899       -0.33067840382159
C            1.41504718574511       -1.50145246257737        0.69354741367530
C            0.19749718356939       -0.85862971486612        0.76829039701711
H           -8.33984939230269       -0.40812134591555       -0.72588238723278
H           -8.30027000538445       -0.39638967295792        1.04678021190963
H           -9.47976622870724       -1.38440634962391        0.19338441412300
H           -7.11336419645405       -3.92438398865186        1.44138208946929
H           -8.76989186344789       -3.32727968990479        1.49155998424153
H           -7.48211700631179       -2.43523204932837        2.30752321110873
H           -7.18982236675333       -3.95471793568979       -1.11391050820488
H           -8.84780144698409       -3.36167259663810       -1.07400673254243
H           -7.61711015031735       -2.48732913312308       -1.99069488875481
H           -5.31577664171717       -3.79526189245126        0.10326171245738
H           -2.95099432625340       -3.24638398684896        0.02799704213785
H           -6.37037164087273        0.35761865396786        0.13631507119996
H           -5.08284363468544        2.66255331713400        0.10229435839874
H           -5.50548941710460        4.73229399857778       -0.71038739251057
H           -5.22586835648489        6.22370483301772        0.18027073092816
H           -5.40364068539675        4.70950833400579        1.05961135026520
H           -3.13378871167163        6.67761240987804        1.33415097316271
H           -1.76174314091002        5.57649676455219        1.24810440718976
H           -3.17763338973366        5.13970398454328        2.20143164635622
H           -3.28481514215875        6.68392422993930       -1.22850028111831
H           -3.42420278865334        5.14945163636299       -2.09205311366658
H           -1.90968752557255        5.58552609420588       -1.30456415121396
H           -0.99739966379917        3.94132945191829       -0.07756306911052
H           -0.22665123819459        1.63848998264366       -0.13075387087326
H           -1.44906574647695       -2.52317908872443       -1.67807288802253
H            0.72223333443807       -3.70929105561717       -1.76355894344364
H            5.15338515981638       -4.22432010766020        0.64453247297133
H            7.27910440294753       -3.03273007879203        1.13555053213783
H            8.53579777652923        2.77064882610384        0.32824944018247
H            7.07113558178606        4.54897645802094       -0.57104362448812
H            4.77066436373576        4.03378464662025       -1.26624619585614
H            3.89069962593587        1.73819721532885       -1.08030465097985
H            3.39331752692311       -0.59700911750505       -0.77044599937495
H            2.20374255631961       -1.23232095450968        1.38090677092755
H            0.03329241253498       -0.08882647941839        1.50719084119623

          :  Hamiltonian                  GFN2-xTB          :
         :: gradient norm              0.000021899493 Eh/a0 ::
         :: HOMO-LUMO gap              1.982231728374 eV    ::
         :: SCC energy              -113.604088124395 Eh    ::
         :: -> dispersion             -0.098474055792 Eh    ::
         :: repulsion energy           1.930367276518 Eh    ::

    * Orbital Energies and Occupations

         #    Occupation            Energy/Eh            Energy/eV
      -------------------------------------------------------------
         1        2.0000           -0.7337154             -19.9654
       ...           ...                  ...                  ...
        92        2.0000           -0.4219719             -11.4824
        93        2.0000           -0.4201832             -11.4338
        94        2.0000           -0.4179455             -11.3729
        95        2.0000           -0.4173434             -11.3565
        96        2.0000           -0.4130080             -11.2385
        97        2.0000           -0.4101397             -11.1605
        98        2.0000           -0.4078030             -11.0969
        99        2.0000           -0.3989951             -10.8572
       100        2.0000           -0.3976941             -10.8218
       101        2.0000           -0.3889498             -10.5839
       102        2.0000           -0.3814823             -10.3807
       103        2.0000           -0.3745424             -10.1918
       104        2.0000           -0.3598927              -9.7932 (HOMO)
       105                         -0.2870471              -7.8109 (LUMO)
       106                         -0.2659524              -7.2369
       107                         -0.2466851              -6.7126
       108                         -0.2405312              -6.5452
       109                         -0.2382852              -6.4841
       110                         -0.2367200              -6.4415
       111                         -0.2186883              -5.9508
       112                         -0.2132606              -5.8031
       113                         -0.2116680              -5.7598
       114                         -0.1959566              -5.3322
       115                         -0.1846183              -5.0237
       ...                                ...                  ...
       208                          0.7416212              20.1805
      -------------------------------------------------------------
                  HL-Gap            0.0728457 Eh            1.9822 eV

     #   Z          covCN         q      C6AA      α(0)
     1   6 C        3.761    -0.107    22.591     6.775
     2   6 C        3.903     0.026    20.086     6.371
     3   6 C        3.762    -0.105    22.558     6.771
     4   6 C        3.762    -0.105    22.559     6.771
     5   6 C        2.973    -0.001    28.038     8.686
     6   6 C        2.931    -0.039    28.961     8.826
     7   6 C        2.909    -0.053    29.316     8.878
     8   6 C        3.076     0.042    26.973     8.515
     9   6 C        3.067    -0.019    28.412     8.740
    10   6 C        2.918    -0.043    29.078     8.843
    11   6 C        3.067    -0.019    28.405     8.739
    12   6 C        2.918    -0.043    29.076     8.842
    13   6 C        2.973    -0.001    28.048     8.687
    14   6 C        3.903     0.026    20.086     6.371
    15   6 C        3.761    -0.107    22.592     6.776
    16   6 C        3.762    -0.105    22.555     6.770
    17   6 C        3.761    -0.105    22.554     6.770
    18   6 C        2.931    -0.039    28.976     8.828
    19   6 C        2.909    -0.053    29.323     8.879
    20   6 C        3.076     0.042    26.979     8.516
    21   7 N        2.802    -0.042    22.056     6.975
    22   6 C        2.913     0.071    26.411     8.427
    23   6 C        2.920    -0.043    29.076     8.842
    24   6 C        2.924    -0.018    28.462     8.749
    25   6 C        2.972    -0.018    28.445     8.748
    26   6 C        2.829     0.225    23.283     7.907
    27   8 O        0.858    -0.374    21.167     6.168
    28   6 C        2.971    -0.017    28.431     8.746
    29   6 C        2.928    -0.021    28.521     8.758
    30   6 C        2.934    -0.037    28.928     8.821
    31   6 C        3.003     0.042    27.054     8.532
    32  16 S        2.213    -0.076   144.203    20.211
    33   6 C        3.004     0.039    27.115     8.542
    34   6 C        2.935    -0.037    28.928     8.821
    35   6 C        2.924    -0.029    28.723     8.789
    36   6 C        2.919    -0.033    28.828     8.805
    37   6 C        2.917    -0.031    28.771     8.796
    38   6 C        3.104    -0.003    27.955     8.664
    39   6 C        3.105    -0.002    27.943     8.661
    40   6 C        2.919    -0.031    28.764     8.795
    41   6 C        2.920    -0.027    28.682     8.782
    42   6 C        2.921    -0.044    29.091     8.845
    43   1 H        0.925     0.035     2.510     2.478
    44   1 H        0.925     0.035     2.512     2.479
    45   1 H        0.925     0.035     2.512     2.479
    46   1 H        0.925     0.036     2.504     2.474
    47   1 H        0.925     0.036     2.498     2.472
    48   1 H        0.925     0.033     2.542     2.493
    49   1 H        0.925     0.036     2.502     2.474
    50   1 H        0.925     0.036     2.500     2.473
    51   1 H        0.925     0.033     2.540     2.493
    52   1 H        0.926     0.031     2.574     2.509
    53   1 H        0.926     0.028     2.619     2.531
    54   1 H        0.926     0.038     2.475     2.460
    55   1 H        0.926     0.038     2.470     2.458
    56   1 H        0.925     0.036     2.508     2.477
    57   1 H        0.925     0.035     2.513     2.479
    58   1 H        0.925     0.036     2.507     2.476
    59   1 H        0.925     0.036     2.501     2.473
    60   1 H        0.925     0.035     2.514     2.479
    61   1 H        0.925     0.033     2.539     2.492
    62   1 H        0.925     0.036     2.499     2.472
    63   1 H        0.925     0.033     2.539     2.492
    64   1 H        0.925     0.035     2.516     2.480
    65   1 H        0.926     0.029     2.602     2.522
    66   1 H        0.926     0.023     2.688     2.564
    67   1 H        0.926     0.048     2.347     2.396
    68   1 H        0.926     0.058     2.221     2.331
    69   1 H        0.926     0.061     2.189     2.314
    70   1 H        0.926     0.048     2.349     2.397
    71   1 H        0.926     0.043     2.411     2.428
    72   1 H        0.926     0.040     2.455     2.450
    73   1 H        0.926     0.037     2.488     2.466
    74   1 H        0.926     0.037     2.493     2.469
    75   1 H        0.926     0.041     2.432     2.439
    76   1 H        0.926     0.039     2.458     2.451
    77   1 H        0.926     0.045     2.380     2.413

molecular dipole:
                 x           y           z       tot (Debye)
 q only:       -0.500       1.428       0.187
   full:       -0.563       1.550       0.152       4.209

 projected vibrational frequencies (cm⁻¹)
eigval :       -0.00    -0.00    -0.00     0.00     0.00     0.00
eigval :        8.74    11.81    17.64    28.23    30.78    33.50
eigval :       36.15    54.98    68.42    78.23    82.48    98.98
eigval :      105.63   113.90   120.55   129.34   160.12   165.63
eigval :      171.68   182.97   187.51   203.01   213.50   219.63
eigval :      225.04   230.88   237.38   258.10   259.00   265.52
eigval :      274.76   276.07   297.28   317.87   319.77   322.88
eigval :      337.66   340.41   358.59   360.09   382.74   388.07
eigval :      393.77   397.61   400.01   410.84   412.90   422.68
eigval :      437.24   440.55   443.36   454.11   460.72   466.21
eigval :      476.75   481.54   486.26   518.59   524.74   545.09
eigval :      573.27   582.76   584.00   589.64   601.44   615.15
eigval :      627.17   640.60   649.51   670.68   684.48   688.41
eigval :      693.44   700.98   707.40   713.06   719.75   732.80
eigval :      741.60   774.54   815.35   818.66   823.42   830.68
eigval :      833.31   834.03   868.78   872.16   873.79   874.50
eigval :      876.87   885.80   907.11   912.41   914.22   914.71
eigval :      915.17   923.65   925.61   929.91   932.24   939.94
eigval :      955.10   960.36   960.46   962.98   963.05   963.12
eigval :      963.50  1000.73  1025.65  1031.40  1035.72  1035.86
eigval :     1035.98  1041.59  1048.29  1076.47  1096.45  1116.08
eigval :     1130.24  1135.67  1143.57  1155.52  1160.27  1167.81
eigval :     1177.46  1181.58  1185.98  1210.88  1226.25  1228.19
eigval :     1228.37  1231.47  1232.36  1232.68  1237.37  1244.15
eigval :     1251.07  1261.89  1263.49  1285.34  1295.13  1305.62
eigval :     1308.96  1322.46  1338.68  1341.38  1347.66  1358.11
eigval :     1377.21  1401.02  1402.60  1404.94  1406.30  1406.41
eigval :     1406.97  1411.96  1415.71  1429.55  1429.62  1435.75
eigval :     1439.88  1467.97  1482.47  1484.80  1490.28  1492.43
eigval :     1492.53  1495.02  1495.17  1501.57  1501.89  1505.77
eigval :     1505.93  1514.97  1515.20  1520.28  1521.11  1545.47
eigval :     1554.19  1564.11  1571.67  1577.68  1581.82  1585.81
eigval :     1586.40  1604.67  1616.88  1687.35  3021.57  3021.70
eigval :     3023.15  3023.18  3026.83  3027.04  3029.91  3030.35
eigval :     3030.89  3031.06  3035.49  3035.89  3037.93  3038.21
eigval :     3046.60  3047.41  3049.96  3050.88  3077.65  3080.52
eigval :     3081.63  3081.89  3087.15  3089.41  3090.79  3092.12
eigval :     3095.01  3095.14  3096.03  3096.26  3100.85  3103.62
eigval :     3104.89  3116.38  3119.83

   temp. (K)  partition function   enthalpy   heat capacity  entropy
                                   cal/mol     cal/K/mol   cal/K/mol   J/K/mol
 298.15  VIB  0.501E+17            22001.276    137.965    135.399
         ROT  0.841E+08              888.752      2.981     39.243
         INT  0.421E+25            22890.028    140.945    174.642
         TR   0.130E+29             1481.254      4.968     44.863
         TOT                       24371.2820   145.9136   219.5052   918.4097

       T/K    H(0)-H(T)+PV         H(T)/Eh          T*S/Eh         G(T)/Eh
   ------------------------------------------------------------------------
    298.15    0.388381E-01    0.657070E+00    0.104294E+00    0.552776E+00
   ------------------------------------------------------------------------

         :::::::::::::::::::::::::::::::::::::::::::::::::::::
         ::                  THERMODYNAMIC                  ::
         :::::::::::::::::::::::::::::::::::::::::::::::::::::
         :: total free energy        -111.120944793776 Eh   ::
         ::.................................................::
         :: total energy             -111.673720847878 Eh   ::
         :: zero point energy           0.618231946570 Eh   ::
         :: G(RRHO) w/o ZPVE           -0.065455892468 Eh   ::
         :: G(RRHO) contrib.            0.552776054102 Eh   ::
         :::::::::::::::::::::::::::::::::::::::::::::::::::::

           -------------------------------------------------
          | TOTAL ENERGY             -111.673720847878 Eh   |
          | TOTAL ENTHALPY           -111.016650791353 Eh   |
          | TOTAL FREE ENERGY        -111.120944793776 Eh   |
          | GRADIENT NORM               0.000021901610 Eh/α |
          | HOMO-LUMO GAP               1.982231957267 eV   |
           -------------------------------------------------

 * finished run on 2025/09/07 at 01:32:33.808
