   * xtb version 6.7.1 (edcfbbe) compiled by 'albert@albert-system' on 2024-07-22

   ID    Z sym.   atoms
    1    6 C      1-20, 22-26, 28-31, 33-42
    2    7 N      21
    3    8 O      27
    4   16 S      32
    5    1 H      43-77

          program call               : xtb data2507/gas/tCTM/tCTM_gas_S0_finalOpt.xtbopt.xyz --gfn 2 --spinpol --tblite --uhf 2 --ohess vtight --parallel 40 --molden --ceasefiles --namespace data2507/gas/tCTM/tCTM_gas_T1_preOpt
 * total energy  :  -111.5837505 Eh     change        0.3332801E-08 Eh
 * total energy  :  -111.5872297 Eh     change       -0.3479263E-02 Eh
 * total energy  :  -111.5881651 Eh     change       -0.9353876E-03 Eh
 * total energy  :  -111.5883145 Eh     change       -0.1493758E-03 Eh
 * total energy  :  -111.5884157 Eh     change       -0.1011876E-03 Eh
 * total energy  :  -111.5885022 Eh     change       -0.8650587E-04 Eh
 * total energy  :  -111.5885752 Eh     change       -0.7302038E-04 Eh
 * total energy  :  -111.5886244 Eh     change       -0.4918195E-04 Eh
 * total energy  :  -111.5886766 Eh     change       -0.5221842E-04 Eh
 * total energy  :  -111.5887148 Eh     change       -0.3821613E-04 Eh
 * total energy  :  -111.5893672 Eh     change       -0.8764479E-06 Eh
 * total energy  :  -111.5893679 Eh     change       -0.7941414E-06 Eh
 * total energy  :  -111.5893688 Eh     change       -0.8399992E-06 Eh
 * total energy  :  -111.5893697 Eh     change       -0.8647739E-06 Eh
 * total energy  :  -111.5893704 Eh     change       -0.7493707E-06 Eh
 * total energy  :  -111.5893712 Eh     change       -0.7749069E-06 Eh
 * total energy  :  -111.5893720 Eh     change       -0.8070879E-06 Eh
 * total energy  :  -111.5893720 Eh     change        0.2598540E-08 Eh
 * total energy  :  -111.5893720 Eh     change       -0.1187570E-07 Eh
   *** GEOMETRY OPTIMIZATION CONVERGED AFTER 123 ITERATIONS ***

 final structure:
================
77
 xtb: 6.7.1 (edcfbbe)
C           -8.48873483036373       -1.03643783175553        0.28600932668329
C           -7.50681080470243       -2.21102486215772        0.25812731772439
C           -7.70573288900506       -3.03051360150961        1.54138089131759
C           -7.83401785804508       -3.07613009411351       -0.96787037861588
C           -6.05756861011709       -1.76085090860430        0.17293901073953
C           -5.04735183877448       -2.73207688051752        0.12894473732445
C           -3.70758228884945       -2.41676863830675        0.03392073710666
C           -3.35752780949332       -1.07429647112252       -0.03216399487184
C           -4.35436109312734       -0.07490233109836        0.04989969253200
C           -5.69215655977687       -0.41991650782256        0.14581184442802
C           -3.66420760507835        1.18834783599307        0.01394128434849
C           -4.09526740918666        2.50425377716828        0.05217031368444
C           -3.16728107403464        3.53582652897184       -0.02646475107421
C           -3.56733332520071        5.00147751699856        0.02230687765509
C           -5.07770648725110        5.19556048033624        0.18143052678223
C           -2.87242544886865        5.67030106804730        1.21738366067515
C           -3.13293565318379        5.68566624107659       -1.28202244101834
C           -1.81147683518462        3.20842039051730       -0.16649413625889
C           -1.35527417899502        1.90708114129673       -0.20786716222428
C           -2.28812041474711        0.88505060890955       -0.09478101825523
N           -2.11710053306990       -0.48257229459673       -0.12221372893904
C           -0.89459481100314       -1.14766119973270       -0.23970051232558
C           -0.73575742580284       -2.20445079999346       -1.14815334444185
C            0.47162538291624       -2.83688289104723       -1.27101710428688
C            1.59608907265826       -2.40819209477469       -0.52805298047843
C            2.85038560513791       -3.09835498190376       -0.71920309347720
O            2.84980017874264       -4.26898911305718       -1.20708811203084
C            4.10911936644785       -2.46600477427668       -0.35027080259109
C            5.22127379464341       -3.28790967915589       -0.06921438489997
C            6.44462366463364       -2.74955788698901        0.24862324939501
C            6.58243639078985       -1.36682085115455        0.26805500900736
S            8.04607730979968       -0.47793494388779        0.62958191335168
C            7.22551694217747        1.04212709504251        0.34450925201507
C            7.79515065999844        2.30064183210300        0.44378838906650
C            7.00377788470755        3.40406700183525        0.18475897065084
C            5.66671591178604        3.25172239355973       -0.16606441863351
C            5.10086804941639        1.99531347573379       -0.26455830791812
C            5.87698189346262        0.87009070091775       -0.01121261203723
C            5.50245920322003       -0.52275128883121       -0.05327007292240
C            4.27478745685237       -1.07625272405024       -0.37225604724531
C            1.40300924550570       -1.39783193008984        0.43708344581837
C            0.18886912665754       -0.77378481703196        0.56705874240566
H           -8.40145426352959       -0.43139249386183       -0.61354807193550
H           -8.32454205929785       -0.40814187325140        1.15841121256093
H           -9.50654489366793       -1.41768201940941        0.33560203608990
H           -7.08249455489151       -3.92013527555289        1.54653442996593
H           -8.74429373244767       -3.34254707032231        1.62705815456638
H           -7.45202038155345       -2.43128796727812        2.41338369620929
H           -7.21145815534964       -3.96540950960140       -1.00583824245525
H           -8.87469016709503       -3.39112092685390       -0.93508294434997
H           -7.67390788509523       -2.50831076736939       -1.88211263296765
H           -5.31594847579720       -3.77591383964762        0.17529213464174
H           -2.95820418192902       -3.19298576616376        0.02579451479042
H           -6.42763748445918        0.36505365859416        0.19984176330583
H           -5.15046318435141        2.70188543377654        0.13860980716457
H           -5.61874018185072        4.76864488178374       -0.65987375361116
H           -5.30329973270728        6.25926329760405        0.21890871493696
H           -5.43564304205034        4.74477222580070        1.10420857043341
H           -3.16151266945563        6.71716208487323        1.27909040877093
H           -1.79094616714641        5.62160913886483        1.12791206193063
H           -3.16051288427775        5.17748737573965        2.14368293493402
H           -3.43338472138744        6.73110404604237       -1.27274078545101
H           -3.60077786503069        5.19936789441961       -2.13550614141765
H           -2.05563574070294        5.64343956529920       -1.41459418159635
H           -1.08293924600356        3.99975959449081       -0.25066605300788
H           -0.30502629875932        1.69556387474000       -0.33649453504310
H           -1.56609290697203       -2.48742315659351       -1.77825368943711
H            0.60838897724308       -3.64613935781154       -1.97158415259773
H            5.08250314336833       -4.35742129535507       -0.09749597963410
H            7.28650624485898       -3.38380953679515        0.47982233315794
H            8.83354446309293        2.40939320185577        0.71581596371518
H            7.42956459306392        4.39363102058117        0.25549999260320
H            5.06563986207544        4.12672411529132       -0.36415101682871
H            4.06271280880912        1.88040115016206       -0.53813561802336
H            3.46275241561809       -0.43362502429238       -0.67540892998849
H            2.20730648738974       -1.13585431032016        1.10771033165173
H            0.04531291553264       -0.01738842885604        1.32523918914788

 projected vibrational frequencies (cm⁻¹)
eigval :       -0.00    -0.00    -0.00    -0.00     0.00     0.00
eigval :        9.75    12.86    18.08    29.90    30.83    33.06
eigval :       37.13    54.72    67.48    78.81    81.37   100.52
eigval :      109.61   115.07   122.27   130.71   158.32   165.62
eigval :      172.15   186.44   187.02   200.89   214.69   218.80
eigval :      224.83   229.71   235.19   253.17   256.71   262.52
eigval :      268.48   281.42   295.01   302.36   318.47   323.18
eigval :      335.09   339.53   355.58   357.03   364.83   385.58
eigval :      386.40   394.15   395.79   400.81   404.58   413.52
eigval :      420.89   437.85   441.09   443.12   456.25   465.92
eigval :      470.97   475.24   483.27   504.44   508.65   518.13
eigval :      564.80   573.99   583.44   584.73   591.36   596.49
eigval :      605.13   626.42   641.38   647.48   653.38   665.19
eigval :      685.60   691.12   699.94   706.21   710.30   716.44
eigval :      733.00   771.92   800.53   803.73   814.26   822.93
eigval :      825.31   831.27   839.10   865.27   868.55   869.45
eigval :      872.54   874.01   902.57   903.77   904.72   907.02
eigval :      913.54   919.19   920.98   924.98   928.00   930.89
eigval :      941.71   960.39   960.47   962.94   963.34   963.80
eigval :      963.87   984.76  1001.23  1029.87  1034.55  1034.67
eigval :     1035.85  1040.58  1042.54  1076.25  1089.31  1110.17
eigval :     1127.58  1131.29  1138.27  1147.41  1153.07  1158.30
eigval :     1160.08  1172.07  1180.97  1202.27  1222.74  1225.58
eigval :     1225.77  1228.97  1229.60  1230.20  1230.80  1236.59
eigval :     1239.16  1255.74  1256.45  1278.48  1281.17  1288.87
eigval :     1298.07  1324.76  1335.43  1336.68  1339.08  1350.78
eigval :     1362.09  1387.32  1401.80  1405.32  1406.10  1406.15
eigval :     1408.45  1409.32  1411.16  1420.10  1427.19  1429.65
eigval :     1429.73  1432.19  1451.86  1458.98  1462.71  1468.96
eigval :     1477.07  1491.17  1491.35  1493.51  1493.64  1498.28
eigval :     1499.99  1500.18  1504.47  1504.68  1514.90  1515.11
eigval :     1519.26  1520.06  1528.06  1556.60  1558.64  1568.13
eigval :     1570.27  1573.62  1580.26  1598.31  3024.57  3024.74
eigval :     3026.60  3026.63  3028.44  3028.51  3032.00  3032.11
eigval :     3033.27  3033.44  3036.60  3036.82  3040.25  3040.41
eigval :     3049.46  3049.95  3052.66  3053.22  3075.20  3078.94
eigval :     3080.80  3085.61  3088.83  3089.22  3090.85  3091.27
eigval :     3091.45  3093.44  3100.14  3101.25  3101.51  3101.86
eigval :     3106.21  3118.61  3121.61

   temp. (K)  partition function   enthalpy   heat capacity  entropy
                                   cal/mol     cal/K/mol   cal/K/mol   J/K/mol
 298.15  VIB  0.465E+17            22230.258    139.565    136.353
         ROT  0.861E+08              888.752      2.981     39.290
         INT  0.401E+25            23119.010    142.545    175.643
         TR   0.130E+29             1481.254      4.968     44.863
         TOT                       24600.2642   147.5136   220.5065   922.5991

       T/K    H(0)-H(T)+PV         H(T)/Eh          T*S/Eh         G(T)/Eh
   ------------------------------------------------------------------------
    298.15    0.392030E-01    0.653904E+00    0.104770E+00    0.549134E+00
   ------------------------------------------------------------------------

         :::::::::::::::::::::::::::::::::::::::::::::::::::::
         ::                  THERMODYNAMIC                  ::
         :::::::::::::::::::::::::::::::::::::::::::::::::::::
         :: total free energy        -111.040237984626 Eh   ::
         ::.................................................::
         :: total energy             -111.589371996685 Eh   ::
         :: zero point energy           0.614700739594 Eh   ::
         :: G(RRHO) w/o ZPVE           -0.065566727535 Eh   ::
         :: G(RRHO) contrib.            0.549134012059 Eh   ::
         :::::::::::::::::::::::::::::::::::::::::::::::::::::

           -------------------------------------------------
          | TOTAL ENERGY             -111.589371996685 Eh   |
          | TOTAL ENTHALPY           -110.935468240750 Eh   |
          | TOTAL FREE ENERGY        -111.040237984626 Eh   |
          | GRADIENT NORM               0.000100267034 Eh/α |
           -------------------------------------------------

 * finished run on 2025/09/07 at 01:32:50.810
