   * xtb version 6.7.1 (edcfbbe) compiled by 'albert@albert-system' on 2024-07-22

   ID    Z sym.   atoms
    1    6 C      1-20, 22-26, 28-31, 33-42
    2    7 N      21
    3    8 O      27
    4   16 S      32
    5    1 H      43-77

          program call               : xtb data2507/gas/tCTM/tCTM_gas_T1_crest.xyz --gfn 2 --spinpol --tblite --uhf 2 --ohess vtight --parallel 40 --molden --ceasefiles --namespace data2507/gas/tCTM/tCTM_gas_T1_finalOpt
 * total energy  :  -111.5893875 Eh     change       -0.1823204E-07 Eh
 * total energy  :  -111.5894466 Eh     change       -0.5915712E-04 Eh
 * total energy  :  -111.5894679 Eh     change       -0.2126193E-04 Eh
 * total energy  :  -111.5894704 Eh     change       -0.2555669E-05 Eh
 * total energy  :  -111.5894725 Eh     change       -0.2072495E-05 Eh
 * total energy  :  -111.5894743 Eh     change       -0.1755870E-05 Eh
 * total energy  :  -111.5894760 Eh     change       -0.1744678E-05 Eh
 * total energy  :  -111.5894774 Eh     change       -0.1356997E-05 Eh
 * total energy  :  -111.5894785 Eh     change       -0.1090758E-05 Eh
 * total energy  :  -111.5894797 Eh     change       -0.1212634E-05 Eh
 * total energy  :  -111.5894833 Eh     change       -0.8504695E-06 Eh
 * total energy  :  -111.5894820 Eh     change        0.1284020E-05 Eh
 * total energy  :  -111.5894826 Eh     change       -0.5989883E-06 Eh
 * total energy  :  -111.5894832 Eh     change       -0.5231952E-06 Eh
 * total energy  :  -111.5894836 Eh     change       -0.4028307E-06 Eh
 * total energy  :  -111.5894839 Eh     change       -0.2906867E-06 Eh
 * total energy  :  -111.5894841 Eh     change       -0.2049967E-06 Eh
 * total energy  :  -111.5894844 Eh     change       -0.3669879E-06 Eh
 * total energy  :  -111.5894845 Eh     change       -0.3207221E-07 Eh
   *** GEOMETRY OPTIMIZATION CONVERGED AFTER 22 ITERATIONS ***

 final structure:
================
77
 xtb: 6.7.1 (edcfbbe)
C           -8.43288275942898       -1.30883066867304        0.63011782171237
C           -7.39684036952118       -2.43553198184958        0.58852582310476
C           -7.47032517551831       -3.20064161216256        1.91800700643585
C           -7.75886686454939       -3.37332865310594       -0.57234734637903
C           -5.98043825596424       -1.92175282954831        0.38825076113807
C           -4.92720846986288       -2.84514203550732        0.32632501799051
C           -3.61210759083418       -2.47109651595965        0.14218921983773
C           -3.33400276802862       -1.11760212583648        0.00261221828969
C           -4.37408888072023       -0.16398209160589        0.09056651461007
C           -5.68567904956435       -0.56774661744841        0.27673946101186
C           -3.74957780507448        1.12743442292298       -0.03621967864524
C           -4.24212729950687        2.42200494305679       -0.03845115207180
C           -3.36965414835603        3.49084993891007       -0.20636726425694
C           -3.83960716088683        4.93648649041547       -0.20970921713382
C           -3.12615932360033        5.69809946438311        0.91691061603595
C           -3.49904488916882        5.57286697189285       -1.56513202960520
C           -5.34912849844790        5.06651592963294        0.01124470158964
C           -2.00618083564291        3.22135499972213       -0.38978381316080
C           -1.48894648609034        1.94232183344336       -0.39185585932618
C           -2.36620826587563        0.88454718341061       -0.19456290362133
N           -2.12996631903522       -0.47255845603705       -0.17129201082921
C           -0.88212041714922       -1.08820477269296       -0.29927202782435
C           -0.70051383186388       -2.16474032957491       -1.17953513772206
C            0.52539470369269       -2.75969170714741       -1.30103996168707
C            1.64409482251946       -2.28094537482650       -0.57808729467992
C            2.90632558728045       -2.95690750180334       -0.75292649353803
O            2.92709610643345       -4.12590358116510       -1.24545640931751
C            4.15775213437330       -2.32562928522782       -0.35178261615950
C            5.25302929343419       -3.15371762585947       -0.02770552459240
C            6.46667961261550       -2.62262258397176        0.33604175319390
C            6.61126350006358       -1.24078594822563        0.36022835080054
S            8.06334622876204       -0.36096395005262        0.78412733042493
C            7.26300633168271        1.16397669324110        0.46984913913572
C            7.83353209301267        2.41917016828236        0.60057157004041
C            7.05888964865218        3.52767835096721        0.31437091893603
C            5.73752353537868        3.38340694726393       -0.09461663507867
C            5.17085996309229        2.13027649951265       -0.22468217658131
C            5.93022279006447        0.99994453511300        0.05561785626439
C            5.55055660650319       -0.39080049227360       -0.00583618742977
C            4.33336596196795       -0.93768130128136       -0.37502430261449
C            1.43033554077583       -1.24457074537344        0.35491946044417
C            0.19957464193289       -0.65186891421183        0.47716075720976
H           -8.43595280381862       -0.74460624752619       -0.29967425459234
H           -8.24330476402555       -0.63196586809822        1.46002276092235
H           -9.42461953494436       -1.73502620178304        0.76634439333394
H           -6.80583925334497       -4.05989266826960        1.92046822473088
H           -8.48456957889029       -3.55483916138958        2.08874208542453
H           -7.18848735751880       -2.54930349270798        2.74274195315086
H           -7.09394724545217       -4.23123500689757       -0.61386335547817
H           -8.77686272246541       -3.73787928016852       -0.45362128562777
H           -7.69054095499672       -2.84256431033868       -1.51970033870319
H           -5.14042971965882       -3.89737827865113        0.43214831050181
H           -2.82575827956962       -3.20968676930637        0.12303244600333
H           -6.45600693399924        0.18265127593020        0.33628932067049
H           -5.30099040725909        2.57417232722369        0.08651836652880
H           -3.34661386754957        5.23960747555712        1.87871616369810
H           -3.46505652236613        6.73146504972480        0.94145491865201
H           -2.04878273195356        5.69765989354392        0.77840122553184
H           -3.84929219141919        6.60238612968107       -1.59229086538037
H           -3.98120333733039        5.02266386448643       -2.37049364264859
H           -2.42812595752953        5.57369938876656       -1.74703371106405
H           -5.62520808216712        6.11891461349422        0.00904253320396
H           -5.64248914754282        4.64551729468648        0.97018459380594
H           -5.90570719965450        4.57349234214184       -0.78242481166510
H           -1.32150988899740        4.04135051379474       -0.54117852210671
H           -0.43557604392352        1.77286641865024       -0.55378696999546
H           -1.53064987643581       -2.49449050669490       -1.78694876608174
H            0.68082185810546       -3.58410299049277       -1.97985579484164
H            5.10832681369562       -4.22237796719235       -0.05797686171586
H            7.29486881246981       -3.26159592259393        0.60111105144712
H            8.85964394971734        2.52137365516685        0.91798930661420
H            7.48539165660030        4.51485300482545        0.40981673638555
H            5.14924000370655        4.26229526575349       -0.31279727318772
H            4.14479500896533        2.02194824543538       -0.54285610708376
H            3.53955895560505       -0.29101254429450       -0.71536383799534
H            2.23088661651415       -0.93817203211178        1.01082973017801
H            0.04182651488815        0.12736857520553        1.20911954853333

 projected vibrational frequencies (cm⁻¹)
eigval :       -0.00    -0.00    -0.00     0.00     0.00     0.00
eigval :        9.86    13.20    17.74    29.81    30.35    32.88
eigval :       36.38    54.70    67.34    78.99    81.61    99.55
eigval :      108.52   113.82   122.52   130.08   157.95   164.48
eigval :      171.37   186.42   186.90   200.48   215.56   218.90
eigval :      224.65   230.34   235.12   254.19   256.61   262.54
eigval :      268.24   280.48   295.30   302.87   318.50   323.20
eigval :      335.36   339.64   355.63   357.00   364.79   384.89
eigval :      386.14   394.19   396.36   400.67   404.34   414.15
eigval :      422.97   437.77   441.02   443.31   456.35   465.81
eigval :      471.58   475.27   483.14   504.55   508.31   518.15
eigval :      564.32   574.05   583.42   584.66   591.34   596.86
eigval :      605.50   626.18   641.43   648.13   653.84   664.76
eigval :      685.74   691.19   700.06   706.54   710.33   716.31
eigval :      733.02   771.92   800.24   803.32   814.67   823.07
eigval :      824.95   831.40   838.83   865.90   868.37   869.47
eigval :      872.47   874.43   903.00   903.96   904.76   906.88
eigval :      913.61   918.71   920.94   924.95   928.01   929.76
eigval :      941.80   960.26   960.33   962.80   963.21   963.62
eigval :      963.70   985.20  1001.08  1029.77  1034.33  1034.50
eigval :     1035.65  1040.58  1042.71  1076.25  1089.41  1110.16
eigval :     1127.38  1131.05  1137.69  1147.12  1153.22  1158.66
eigval :     1159.55  1173.06  1180.99  1202.27  1222.63  1225.44
eigval :     1225.61  1228.29  1229.66  1230.17  1230.61  1236.58
eigval :     1239.54  1255.73  1256.75  1278.51  1280.89  1288.87
eigval :     1297.86  1324.89  1335.24  1336.62  1338.86  1350.84
eigval :     1362.41  1387.50  1401.79  1405.02  1405.80  1405.85
eigval :     1407.20  1409.11  1411.04  1420.05  1426.50  1428.87
eigval :     1428.97  1433.01  1452.60  1458.83  1462.96  1469.50
eigval :     1476.89  1490.78  1490.99  1493.08  1493.29  1499.45
eigval :     1499.65  1499.79  1504.05  1504.29  1514.55  1514.77
eigval :     1518.82  1519.59  1528.83  1556.70  1558.90  1568.19
eigval :     1570.70  1573.49  1580.38  1598.56  3024.53  3024.70
eigval :     3026.56  3026.62  3028.35  3028.39  3031.91  3032.01
eigval :     3033.15  3033.31  3036.60  3036.83  3040.14  3040.23
eigval :     3049.37  3049.66  3052.64  3053.12  3074.42  3079.19
eigval :     3079.45  3085.83  3088.36  3089.48  3090.73  3091.70
eigval :     3091.96  3093.75  3099.69  3099.98  3101.25  3101.81
eigval :     3106.48  3118.56  3121.63

   temp. (K)  partition function   enthalpy   heat capacity  entropy
                                   cal/mol     cal/K/mol   cal/K/mol   J/K/mol
 298.15  VIB  0.489E+17            22235.763    139.533    136.406
         ROT  0.873E+08              888.752      2.981     39.318
         INT  0.427E+25            23124.516    142.514    175.724
         TR   0.130E+29             1481.254      4.968     44.863
         TOT                       24605.7698   147.4822   220.5871   922.9365

       T/K    H(0)-H(T)+PV         H(T)/Eh          T*S/Eh         G(T)/Eh
   ------------------------------------------------------------------------
    298.15    0.392118E-01    0.653882E+00    0.104808E+00    0.549074E+00
   ------------------------------------------------------------------------

         :::::::::::::::::::::::::::::::::::::::::::::::::::::
         ::                  THERMODYNAMIC                  ::
         :::::::::::::::::::::::::::::::::::::::::::::::::::::
         :: total free energy        -111.040410126026 Eh   ::
         ::.................................................::
         :: total energy             -111.589484488582 Eh   ::
         :: zero point energy           0.614670628481 Eh   ::
         :: G(RRHO) w/o ZPVE           -0.065596265925 Eh   ::
         :: G(RRHO) contrib.            0.549074362556 Eh   ::
         :::::::::::::::::::::::::::::::::::::::::::::::::::::

           -------------------------------------------------
          | TOTAL ENERGY             -111.589484488582 Eh   |
          | TOTAL ENTHALPY           -110.935602070033 Eh   |
          | TOTAL FREE ENERGY        -111.040410126026 Eh   |
          | GRADIENT NORM               0.000060282960 Eh/α |
           -------------------------------------------------

 * finished run on 2025/09/07 at 01:41:20.534
