   * xtb version 6.7.1 (edcfbbe) compiled by 'albert@albert-system' on 2024-07-22

   ID    Z sym.   atoms
    1    6 C      1-13, 15-53
    2    7 N      14
    3    1 H      54-90

          program call               : xtb data2507/gas/FSF4A/FSF4A_gas_S0_crest.xyz --gfn 2 --ohess vtight --parallel 40 --molden --ceasefiles --namespace data2507/gas/FSF4A/FSF4A_gas_S0_finalOpt
          :  Hamiltonian                  GFN2-xTB          :
 * total energy  :  -133.2110196 Eh     change       -0.6279350E-08 Eh
 * total energy  :  -133.2110204 Eh     change       -0.8312927E-06 Eh
 * total energy  :  -133.2110212 Eh     change       -0.7696760E-06 Eh
 * total energy  :  -133.2110227 Eh     change       -0.1534072E-05 Eh
 * total energy  :  -133.2110226 Eh     change        0.6571824E-07 Eh
 * total energy  :  -133.2110232 Eh     change       -0.5751785E-06 Eh
 * total energy  :  -133.2110238 Eh     change       -0.6293482E-06 Eh
 * total energy  :  -133.2110244 Eh     change       -0.5606197E-06 Eh
 * total energy  :  -133.2110249 Eh     change       -0.4983610E-06 Eh
 * total energy  :  -133.2110253 Eh     change       -0.3696703E-06 Eh
 * total energy  :  -133.2110260 Eh     change       -0.2400259E-06 Eh
 * total energy  :  -133.2110263 Eh     change       -0.2045370E-06 Eh
 * total energy  :  -133.2110264 Eh     change       -0.1301423E-06 Eh
 * total energy  :  -133.2110265 Eh     change       -0.1256321E-06 Eh
 * total energy  :  -133.2110266 Eh     change       -0.1304800E-06 Eh
 * total energy  :  -133.2110263 Eh     change        0.3143226E-06 Eh
 * total energy  :  -133.2110267 Eh     change       -0.3246419E-06 Eh
 * total energy  :  -133.2110268 Eh     change       -0.1526307E-06 Eh
 * total energy  :  -133.2110269 Eh     change       -0.5591843E-07 Eh
   *** GEOMETRY OPTIMIZATION CONVERGED AFTER 21 ITERATIONS ***

 final structure:
================
90
 xtb: 6.7.1 (edcfbbe)
C           -5.17625093293135       -0.02275126471265        2.29250311812776
C           -5.36019717086250       -0.28685539230561        0.79490272826533
C           -6.31814814806372        0.73895086928371        0.18210596158693
C           -5.83542482965173       -1.70119224249743        0.54534558495092
C           -7.00444233466759       -2.30400201468641        0.95448911952235
C           -7.23376438324505       -3.62854645588590        0.60457961152615
C           -6.30386227630835       -4.33552723934778       -0.14136275004940
C           -5.12499764755217       -3.73741394836631       -0.55596384886290
C           -4.89381401165849       -2.41598105297591       -0.21063904114572
C           -3.77429220494450       -1.53864584104410       -0.50082727139307
C           -2.60158826396223       -1.75050473299678       -1.20686948748803
C           -1.69601156723970       -0.71479764980874       -1.33485080613940
C           -1.94026206540375        0.53159580890066       -0.75397261140000
N           -1.00622603934045        1.56097271549942       -0.84845184896147
C           -1.43745420724952        2.89234633783240       -0.97012864883626
C           -2.57005588705066        3.20630369290665       -1.71891642701468
C           -2.96667934086559        4.51961843618240       -1.87790350619403
C           -2.22430608323170        5.54282001848648       -1.31115558714226
C           -1.09642645411965        5.23984293921838       -0.57016290519033
C           -0.69731381623576        3.92362139492315       -0.37388701666065
C            0.47056579215405        3.63979608128496        0.48150249667776
C            0.33563723022238        2.82825557464595        1.60301867187551
C            1.41239180958699        2.60099637629522        2.43860150025256
C            2.63683767515428        3.18737032203410        2.16569622194779
C            2.78315775619228        3.98890094990271        1.04577412438363
C            1.70594530030650        4.21800647910693        0.21038559792779
C            0.33877445764662        1.28066018977433       -1.13465192818744
C            0.95882838200328        1.96293700524178       -2.18453381490325
C            2.26555924202331        1.70772999468128       -2.54911470439933
C            2.99791426006528        0.72723360838789       -1.89598930350193
C            2.39841363715510        0.05629677034187       -0.85410235918780
C            1.08938951597257        0.33409593991986       -0.42990028641681
C            0.81395044461274       -0.47876236732693        0.75078606965380
C           -0.26946534063878       -0.54621659186309        1.61458738434019
C           -0.21558126477315       -1.40786308011855        2.69835729529447
C            0.89834769880745       -2.19642429092827        2.93578946847441
C            1.99358383488357       -2.13173147638753        2.08654222265876
C            1.94209368424807       -1.27318796015725        1.01141681159985
C            3.00811574729217       -1.04494578516830       -0.02664193832781
C            4.37290928056880       -0.72856248619224        0.52541851165628
C            4.73819933224654        0.31954418163355        1.34021639301673
C            6.06692719055497        0.42100089776838        1.72967766315512
C            7.00394155419596       -0.51053884105489        1.30803791071700
C            6.63988605921288       -1.56437604178848        0.48497142473957
C            5.31613847043282       -1.67137615864984        0.09155060476182
C            4.64058760206963       -2.64131738572420       -0.75605343626791
C            5.11305990091932       -3.75818260967681       -1.42527451953918
C            4.22080140202921       -4.51128090184577       -2.17152191024582
C            2.88156542817428       -4.15969063611529       -2.24814093605905
C            2.40064205770963       -3.04194306632771       -1.57958148976648
C            3.28601880475459       -2.28961876012128       -0.84005732208359
C           -3.12767897797401        0.74243075732759       -0.03998574501652
C           -4.03031908443230       -0.28521611965893        0.07602389873303
H           -4.48765288704641       -0.74955410783753        2.71870292869099
H           -4.77470154361609        0.97518421184947        2.45429923325521
H           -6.12917652873161       -0.10229828256100        2.81043688040358
H           -6.45155152913252        0.53989015566992       -0.87927212372842
H           -7.28914848056018        0.68794082661805        0.66912851573119
H           -5.92111952813999        1.74485555647927        0.30018277142194
H           -7.73630555089780       -1.76241046663220        1.53662271018669
H           -8.14737752830814       -4.11295596210103        0.91730059197324
H           -6.50215116904347       -5.36519620556075       -0.40221882960700
H           -4.40185751826839       -4.29059010646979       -1.13689108936158
H           -2.39636848724117       -2.70762583723812       -1.66261801423918
H           -0.78673593424218       -0.86218204031111       -1.89841929974759
H           -3.13032710789648        2.40845702225210       -2.18474019045720
H           -3.84763612435117        4.74511493990581       -2.46038671791988
H           -2.52447739011202        6.57116628045296       -1.44404611261526
H           -0.52111197150624        6.03020627732201       -0.10977353565074
H           -0.62456945258734        2.39002737226170        1.83023482233627
H            1.29405363740448        1.96805180628157        3.30625285843153
H            3.47309701205659        3.03148064912914        2.83217000698087
H            3.73942282728301        4.44115901486033        0.82632078492996
H            1.81944811161742        4.84230891387244       -0.66426046023039
H            0.38743344591658        2.70208154238138       -2.72778534893965
H            2.70799880205982        2.25939632027720       -3.36501642611134
H            4.01053843009071        0.49592229454536       -2.18997228364582
H           -1.15048750388884        0.05324993755858        1.46196216176747
H           -1.05999414365966       -1.46280748199265        3.37035167367219
H            0.91668065820608       -2.86060632307147        3.78727576144885
H            2.87166626966197       -2.73567567688719        2.26461978013300
H            4.00336458606016        1.04307658755734        1.65931676257807
H            6.37601257150931        1.23556073101451        2.36845402067320
H            8.03228215385554       -0.41159238647053        1.62447465119079
H            7.37414591912210       -2.28534998656597        0.15710856392329
H            6.15460098654813       -4.03765399719513       -1.36679963174428
H            4.57208973476111       -5.38555355355788       -2.70016434821111
H            2.20442295031708       -4.76344235781708       -2.83436529476624
H            1.35643776845213       -2.77001190734498       -1.63427297495146
H           -3.31319059168521        1.70464756987460        0.41622694163470

          :  Hamiltonian                  GFN2-xTB          :
         :: gradient norm              0.000073347989 Eh/a0 ::
         :: HOMO-LUMO gap              2.519827381272 eV    ::
         :: SCC energy              -135.762518440317 Eh    ::
         :: -> dispersion             -0.145150450105 Eh    ::
         :: repulsion energy           2.551491575429 Eh    ::

    * Orbital Energies and Occupations

         #    Occupation            Energy/Eh            Energy/eV
      -------------------------------------------------------------
         1        2.0000           -0.6641539             -18.0725
       ...           ...                  ...                  ...
       113        2.0000           -0.4077438             -11.0953
       114        2.0000           -0.4070659             -11.0768
       115        2.0000           -0.4028006             -10.9608
       116        2.0000           -0.4007843             -10.9059
       117        2.0000           -0.3983131             -10.8387
       118        2.0000           -0.3941182             -10.7245
       119        2.0000           -0.3926962             -10.6858
       120        2.0000           -0.3921250             -10.6703
       121        2.0000           -0.3880052             -10.5582
       122        2.0000           -0.3841845             -10.4542
       123        2.0000           -0.3791254             -10.3165
       124        2.0000           -0.3754506             -10.2165
       125        2.0000           -0.3448268              -9.3832 (HOMO)
       126                         -0.2522248              -6.8634 (LUMO)
       127                         -0.2500815              -6.8051
       128                         -0.2445793              -6.6553
       129                         -0.2384985              -6.4899
       130                         -0.2282519              -6.2110
       131                         -0.2234974              -6.0817
       132                         -0.2218441              -6.0367
       133                         -0.2213817              -6.0241
       134                         -0.2186388              -5.9495
       135                         -0.2162030              -5.8832
       136                         -0.2135030              -5.8097
       ...                                ...                  ...
       249                          0.7401032              20.1392
      -------------------------------------------------------------
                  HL-Gap            0.0926020 Eh            2.5198 eV

     #   Z          covCN         q      C6AA      α(0)
     1   6 C        3.759    -0.096    22.391     6.746
     2   6 C        3.936     0.019    20.193     6.386
     3   6 C        3.758    -0.097    22.408     6.749
     4   6 C        3.056    -0.003    28.056     8.687
     5   6 C        2.915    -0.034    28.853     8.808
     6   6 C        2.922    -0.035    28.865     8.811
     7   6 C        2.921    -0.033    28.834     8.806
     8   6 C        2.914    -0.036    28.887     8.813
     9   6 C        3.037     0.001    27.980     8.676
    10   6 C        3.036    -0.010    28.236     8.716
    11   6 C        2.914    -0.033    28.830     8.805
    12   6 C        2.923    -0.052    29.302     8.877
    13   6 C        2.924     0.065    26.548     8.450
    14   7 N        2.752    -0.074    22.669     7.071
    15   6 C        2.930     0.061    26.631     8.463
    16   6 C        2.921    -0.047    29.178     8.858
    17   6 C        2.919    -0.032    28.805     8.801
    18   6 C        2.917    -0.038    28.948     8.823
    19   6 C        2.926    -0.034    28.855     8.809
    20   6 C        2.979    -0.007    28.177     8.707
    21   6 C        2.978     0.012    27.731     8.638
    22   6 C        2.926    -0.030    28.752     8.793
    23   6 C        2.919    -0.028    28.710     8.787
    24   6 C        2.921    -0.030    28.761     8.795
    25   6 C        2.919    -0.029    28.730     8.790
    26   6 C        2.925    -0.034    28.835     8.806
    27   6 C        2.922     0.062    26.614     8.460
    28   6 C        2.925    -0.050    29.254     8.870
    29   6 C        2.922    -0.032    28.797     8.800
    30   6 C        2.914    -0.041    29.021     8.834
    31   6 C        3.063     0.007    27.809     8.648
    32   6 C        3.030    -0.015    28.346     8.733
    33   6 C        3.032     0.005    27.888     8.662
    34   6 C        2.916    -0.035    28.871     8.811
    35   6 C        2.921    -0.033    28.814     8.803
    36   6 C        2.922    -0.032    28.799     8.800
    37   6 C        2.914    -0.033    28.828     8.804
    38   6 C        3.061     0.006    27.823     8.650
    39   6 C        3.979     0.009    20.347     6.409
    40   6 C        3.057     0.006    27.841     8.653
    41   6 C        2.914    -0.034    28.856     8.809
    42   6 C        2.923    -0.031    28.777     8.797
    43   6 C        2.921    -0.033    28.818     8.803
    44   6 C        2.915    -0.034    28.849     8.808
    45   6 C        3.037     0.001    27.971     8.675
    46   6 C        3.036     0.001    27.965     8.674
    47   6 C        2.915    -0.034    28.840     8.806
    48   6 C        2.921    -0.033    28.815     8.803
    49   6 C        2.923    -0.032    28.786     8.799
    50   6 C        2.914    -0.032    28.803     8.801
    51   6 C        3.059     0.007    27.799     8.646
    52   6 C        2.918    -0.054    29.348     8.884
    53   6 C        3.055    -0.002    28.011     8.680
    54   1 H        0.925     0.035     2.515     2.480
    55   1 H        0.925     0.038     2.471     2.458
    56   1 H        0.925     0.040     2.455     2.450
    57   1 H        0.925     0.035     2.517     2.481
    58   1 H        0.925     0.040     2.452     2.449
    59   1 H        0.925     0.039     2.461     2.453
    60   1 H        0.926     0.025     2.660     2.550
    61   1 H        0.926     0.026     2.638     2.540
    62   1 H        0.926     0.026     2.637     2.539
    63   1 H        0.926     0.027     2.623     2.533
    64   1 H        0.926     0.030     2.593     2.518
    65   1 H        0.926     0.026     2.651     2.546
    66   1 H        0.926     0.034     2.534     2.490
    67   1 H        0.926     0.032     2.565     2.504
    68   1 H        0.926     0.031     2.573     2.509
    69   1 H        0.926     0.032     2.553     2.499
    70   1 H        0.926     0.031     2.574     2.509
    71   1 H        0.926     0.028     2.608     2.525
    72   1 H        0.926     0.029     2.604     2.523
    73   1 H        0.926     0.030     2.592     2.518
    74   1 H        0.926     0.029     2.601     2.522
    75   1 H        0.926     0.031     2.578     2.511
    76   1 H        0.926     0.033     2.548     2.496
    77   1 H        0.926     0.030     2.589     2.516
    78   1 H        0.926     0.035     2.519     2.482
    79   1 H        0.926     0.028     2.614     2.528
    80   1 H        0.926     0.030     2.587     2.515
    81   1 H        0.926     0.028     2.622     2.532
    82   1 H        0.926     0.032     2.560     2.502
    83   1 H        0.926     0.029     2.598     2.521
    84   1 H        0.926     0.030     2.588     2.516
    85   1 H        0.926     0.031     2.576     2.510
    86   1 H        0.926     0.031     2.565     2.505
    87   1 H        0.926     0.031     2.578     2.511
    88   1 H        0.926     0.031     2.574     2.509
    89   1 H        0.926     0.027     2.624     2.533
    90   1 H        0.926     0.026     2.644     2.543

molecular dipole:
                 x           y           z       tot (Debye)
 q only:       -0.021       0.400       0.103
   full:        0.001       0.402       0.042       1.026

 projected vibrational frequencies (cm⁻¹)
eigval :       -0.00     0.00     0.00     0.00     0.00     0.00
eigval :       10.48    13.28    17.15    24.11    30.75    34.56
eigval :       40.29    46.08    55.06    59.71    70.28    83.29
eigval :       84.16    90.18    95.87   102.81   120.20   126.11
eigval :      129.93   135.67   150.87   154.86   164.18   180.60
eigval :      198.14   203.64   213.53   218.49   231.41   235.93
eigval :      239.28   246.45   258.02   274.44   290.77   297.14
eigval :      304.34   312.91   323.13   329.79   339.32   368.42
eigval :      370.32   373.09   387.40   401.28   410.83   414.75
eigval :      417.74   434.52   447.56   454.20   461.93   467.66
eigval :      468.01   481.91   503.48   514.82   518.63   526.93
eigval :      532.38   537.91   538.71   542.15   552.67   559.34
eigval :      570.91   585.07   586.03   588.11   591.61   594.99
eigval :      608.61   615.52   627.18   632.73   657.49   670.84
eigval :      684.92   688.56   690.95   692.52   706.56   716.91
eigval :      721.35   727.48   738.29   741.73   751.12   755.37
eigval :      762.46   767.71   776.22   778.13   780.26   786.05
eigval :      787.30   801.59   823.45   825.74   873.78   878.05
eigval :      878.62   878.83   880.60   883.27   886.27   888.21
eigval :      890.81   899.96   905.84   907.78   909.37   910.17
eigval :      910.72   912.98   916.67   920.02   923.98   926.28
eigval :      926.64   926.85   927.65   927.89   931.37   938.13
eigval :      947.10   962.76   966.38   975.42   990.64  1009.58
eigval :     1009.64  1013.11  1037.22  1049.23  1069.80  1074.36
eigval :     1078.77  1079.35  1084.26  1085.66  1096.44  1106.16
eigval :     1113.92  1119.31  1122.89  1138.46  1141.77  1144.06
eigval :     1152.13  1162.60  1176.16  1178.09  1178.85  1180.00
eigval :     1180.73  1181.75  1183.89  1185.24  1189.01  1197.71
eigval :     1202.60  1209.78  1220.21  1228.19  1231.89  1235.90
eigval :     1244.42  1251.53  1253.76  1259.77  1266.68  1271.44
eigval :     1272.79  1281.22  1286.17  1286.40  1290.41  1308.36
eigval :     1314.24  1319.49  1322.83  1327.91  1333.80  1336.00
eigval :     1367.58  1369.87  1374.45  1395.36  1408.18  1411.51
eigval :     1422.53  1429.73  1432.14  1433.22  1435.47  1439.44
eigval :     1439.83  1458.74  1459.08  1460.46  1462.95  1472.65
eigval :     1473.80  1475.89  1488.14  1490.21  1494.48  1498.31
eigval :     1502.97  1566.76  1571.57  1576.78  1584.14  1585.68
eigval :     1586.23  1589.48  1595.24  1596.51  1597.26  1601.39
eigval :     1602.06  1602.95  1604.42  1605.79  1612.51  3025.88
eigval :     3028.72  3029.94  3032.51  3037.01  3038.15  3068.12
eigval :     3068.89  3071.91  3072.41  3072.46  3072.82  3073.11
eigval :     3073.57  3076.37  3076.75  3076.76  3077.51  3078.28
eigval :     3079.24  3079.35  3080.40  3081.98  3084.39  3085.61
eigval :     3086.90  3087.52  3088.65  3088.96  3089.62  3092.04
eigval :     3092.44  3093.26  3095.42  3096.26  3098.81  3129.80

   temp. (K)  partition function   enthalpy   heat capacity  entropy
                                   cal/mol     cal/K/mol   cal/K/mol   J/K/mol
 298.15  VIB  0.509E+19            24821.954    159.557    153.195
         ROT  0.753E+08              888.752      2.981     39.025
         INT  0.384E+27            25710.707    162.538    192.220
         TR   0.170E+29             1481.254      4.968     45.393
         TOT                       27191.9607   167.5058   237.6133   994.1739

       T/K    H(0)-H(T)+PV         H(T)/Eh          T*S/Eh         G(T)/Eh
   ------------------------------------------------------------------------
    298.15    0.433331E-01    0.752058E+00    0.112898E+00    0.639160E+00
   ------------------------------------------------------------------------

         :::::::::::::::::::::::::::::::::::::::::::::::::::::
         ::                  THERMODYNAMIC                  ::
         :::::::::::::::::::::::::::::::::::::::::::::::::::::
         :: total free energy        -132.571866719128 Eh   ::
         ::.................................................::
         :: total energy             -133.211026864886 Eh   ::
         :: zero point energy           0.708724730326 Eh   ::
         :: G(RRHO) w/o ZPVE           -0.069564584567 Eh   ::
         :: G(RRHO) contrib.            0.639160145758 Eh   ::
         :::::::::::::::::::::::::::::::::::::::::::::::::::::

           -------------------------------------------------
          | TOTAL ENERGY             -133.211026864886 Eh   |
          | TOTAL ENTHALPY           -132.458968986980 Eh   |
          | TOTAL FREE ENERGY        -132.571866719128 Eh   |
          | GRADIENT NORM               0.000073405515 Eh/α |
          | HOMO-LUMO GAP               2.519828554754 eV   |
           -------------------------------------------------

 * finished run on 2025/09/04 at 13:30:41.421
