   * xtb version 6.7.1 (edcfbbe) compiled by 'albert@albert-system' on 2024-07-22

   ID    Z sym.   atoms
    1    6 C      1-13, 15-53
    2    7 N      14
    3    1 H      54-90

          program call               : xtb data2507/gas/FSF4A/FSF4A_gas_S0_finalOpt.xtbopt.xyz --gfn 2 --spinpol --tblite --uhf 2 --ohess vtight --parallel 40 --molden --ceasefiles --namespace data2507/gas/FSF4A/FSF4A_gas_T1_preOpt
 * total energy  :  -133.1135321 Eh     change        0.1124706E-06 Eh
 * total energy  :  -133.1183619 Eh     change       -0.4829751E-02 Eh
 * total energy  :  -133.1198552 Eh     change       -0.1493367E-02 Eh
 * total energy  :  -133.1200032 Eh     change       -0.1479531E-03 Eh
 * total energy  :  -133.1200942 Eh     change       -0.9098099E-04 Eh
 * total energy  :  -133.1201144 Eh     change       -0.2023424E-04 Eh
 * total energy  :  -133.1201344 Eh     change       -0.2001681E-04 Eh
 * total energy  :  -133.1201477 Eh     change       -0.1326405E-04 Eh
 * total energy  :  -133.1201623 Eh     change       -0.1464176E-04 Eh
 * total energy  :  -133.1201734 Eh     change       -0.1107648E-04 Eh
 * total energy  :  -133.1202828 Eh     change       -0.4278296E-05 Eh
 * total energy  :  -133.1202858 Eh     change       -0.3006388E-05 Eh
 * total energy  :  -133.1202879 Eh     change       -0.2044067E-05 Eh
 * total energy  :  -133.1202893 Eh     change       -0.1435784E-05 Eh
 * total energy  :  -133.1202904 Eh     change       -0.1084414E-05 Eh
 * total energy  :  -133.1202914 Eh     change       -0.1054748E-05 Eh
 * total energy  :  -133.1202921 Eh     change       -0.6880514E-06 Eh
 * total energy  :  -133.1202920 Eh     change        0.8585860E-07 Eh
 * total energy  :  -133.1202921 Eh     change       -0.9281854E-07 Eh
   *** GEOMETRY OPTIMIZATION CONVERGED AFTER 45 ITERATIONS ***

 final structure:
================
90
 xtb: 6.7.1 (edcfbbe)
C           -5.08457993512961        0.00731220963112        2.30778695119876
C           -5.29757314086214       -0.28910941929652        0.81847557524989
C           -6.31256051095429        0.69049050974382        0.21995112528908
C           -5.72227891220727       -1.72543520493854        0.60715490272701
C           -6.85373025563323       -2.36044724116253        1.03888696387404
C           -7.03675254398653       -3.71266986848288        0.73053273427618
C           -6.07755580153057       -4.40941573845698       -0.00848912742845
C           -4.93480620167086       -3.79154921953819       -0.45389556032873
C           -4.73824813382009       -2.42723236211278       -0.15438110249762
C           -3.69385043259230       -1.54728547836867       -0.48074369863313
C           -2.49682286352482       -1.73149872248892       -1.22447385256419
C           -1.63872108603240       -0.69005894964389       -1.37981939840223
C           -1.91924774983055        0.59387401783481       -0.82317140930326
N           -1.01275197227728        1.61372149432659       -0.94039088645930
C           -1.44696309693794        2.94210251575246       -1.01964841629139
C           -2.59895084064668        3.25578270306288       -1.74382722005598
C           -3.00410793559490        4.56599757727457       -1.88290150686661
C           -2.25694453716092        5.58778688059445       -1.30837052039993
C           -1.11857588426309        5.28456110614894       -0.58509361055932
C           -0.70070299782354        3.97008921922976       -0.41019091304245
C            0.46671165837425        3.68482760072967        0.43787384283817
C            0.36100693462398        2.81361421541804        1.51971712669210
C            1.44181955193072        2.58652061794642        2.34772317323957
C            2.64526784885904        3.23277456065267        2.11185434999888
C            2.76146942056994        4.09964123972233        1.03758853229100
C            1.68050887498152        4.33031228624846        0.20923714202997
C            0.34290436915935        1.34600411153266       -1.14756361577420
C            1.01224758996675        2.05633309021407       -2.15291480015766
C            2.31834941075588        1.78649430630529       -2.48811313532086
C            3.01026653212624        0.75622123751713       -1.84420764379277
C            2.37049473353009        0.06205698158109       -0.84935517945801
C            1.05091475042773        0.34682103428005       -0.44309915783012
C            0.74148270614608       -0.47285369291023        0.70862846107066
C           -0.35899147503398       -0.54188546599708        1.56200863433654
C           -0.34015360396343       -1.43182294322908        2.61966075266709
C            0.75373254726888       -2.25184719011641        2.85727295790755
C            1.86543281337288       -2.18679977857173        2.02585150553747
C            1.85029470741579       -1.30321747118623        0.97348544990705
C            2.94154417612110       -1.07097852690531       -0.03710461342028
C            4.29699731104602       -0.78621959831304        0.55428176311457
C            4.65519813550874        0.23399841419415        1.40688566776009
C            5.97551677901553        0.30845372640043        1.82938869946606
C            6.91138805049519       -0.62224633272939        1.40321031284032
C            6.55440766432425       -1.64848264956486        0.54307235340903
C            5.23900442317167       -1.72835795530469        0.11647324914030
C            4.57161827169071       -2.66726849804512       -0.77145375173410
C            5.04656239591004       -3.77169946772055       -1.45931428200386
C            4.16268803761120       -4.49555146881999       -2.24347458209741
C            2.82905438213902       -4.12759677205332       -2.33869371193833
C            2.34580670952425       -3.02189230040617       -1.65197581811246
C            3.22293969374620       -2.29805712219678       -0.87508326237741
C           -3.13954542894778        0.79265662670987       -0.10258038769992
C           -3.98548140889360       -0.24804849668191        0.06788084255858
H           -4.35593548349090       -0.68426415359935        2.72577287042917
H           -4.71998197651316        1.02327628930346        2.44420555985667
H           -6.01935684786824       -0.10333216758060        2.85230624731078
H           -6.46220399756329        0.47620183669281       -0.83626049085412
H           -7.26889733267439        0.60201682645069        0.72992322655912
H           -5.95733370686046        1.71386346775799        0.32085704231443
H           -7.60381334271184       -1.83629148583891        1.61418724092260
H           -7.92569571481110       -4.22301840760182        1.06879090938511
H           -6.24480409056109       -5.45396979768474       -0.23062875150979
H           -4.19515335500312       -4.33169923342421       -1.02546088027289
H           -2.28969626352652       -2.69069570646404       -1.67330510539049
H           -0.74120424082619       -0.80058208494413       -1.97015104999734
H           -3.15080787136233        2.45775463498209       -2.21907714111561
H           -3.89116249405386        4.79608091009512       -2.45314540451185
H           -2.56669265251238        6.61523803988356       -1.42323806061936
H           -0.54809640919909        6.07420745391433       -0.11814147017525
H           -0.58225855997771        2.32932269843394        1.72382503623906
H            1.34316951203751        1.90624209603139        3.18129530941310
H            3.48651588229230        3.07250800903477        2.77035157515010
H            3.69932358489861        4.60121060139698        0.84814429173769
H            1.77358395501786        5.00261522844815       -0.63148726123041
H            0.46682050195288        2.81909697681997       -2.69077382229306
H            2.80101645135032        2.35412842837992       -3.26847612387600
H            4.02581548949122        0.51539996815042       -2.11937702572165
H           -1.22814364206713        0.07692588257401        1.41499535665287
H           -1.19695906286303       -1.48696831870865        3.27612449245622
H            0.74306448123565       -2.93794296036063        3.69083111553341
H            2.72812738810804       -2.81281353522533        2.20355070100482
H            3.92155392449512        0.95692923862779        1.73008891917667
H            6.27903674772393        1.10081249010482        2.49810092764688
H            7.93313631340807       -0.54464926232880        1.74594924857531
H            7.28765178178123       -2.36933584806949        0.21259443627459
H            6.08360604567177       -4.06419621132660       -1.38589176021850
H            4.51598040794968       -5.35990022316798       -2.78694897714572
H            2.15808754631975       -4.70919859081699       -2.95377835510539
H            1.30555497651876       -2.73817983940877       -1.72057574318474
H           -3.33616660978977        1.76253974175955        0.33240808673726

 projected vibrational frequencies (cm⁻¹)
eigval :       -0.00    -0.00     0.00     0.00     0.00     0.00
eigval :       11.80    13.76    17.51    24.57    30.34    34.20
eigval :       41.31    45.92    56.82    59.76    68.51    82.96
eigval :       84.24    90.89    97.57   103.06   118.10   129.53
eigval :      133.47   135.38   145.91   155.23   159.49   180.18
eigval :      195.04   206.82   212.58   217.21   229.29   233.61
eigval :      238.53   244.21   253.80   272.86   288.78   294.05
eigval :      300.16   308.69   315.24   319.79   331.20   367.00
eigval :      370.72   373.99   378.54   387.13   401.28   408.58
eigval :      414.69   429.74   433.40   449.73   453.70   459.09
eigval :      467.82   480.93   500.90   505.76   508.11   513.32
eigval :      514.49   524.47   531.39   539.43   545.11   545.81
eigval :      561.89   569.50   581.61   583.64   587.55   591.51
eigval :      597.00   606.62   617.72   627.55   652.01   662.91
eigval :      664.79   675.04   683.31   689.59   691.54   697.97
eigval :      705.78   718.66   733.06   737.80   740.30   746.10
eigval :      754.45   757.86   762.45   766.29   772.01   780.95
eigval :      783.87   786.32   790.45   818.20   834.82   857.68
eigval :      864.23   874.85   876.41   877.97   878.42   881.16
eigval :      885.75   889.93   890.27   896.45   901.03   904.10
eigval :      905.95   909.19   909.57   910.27   914.72   915.80
eigval :      918.63   920.65   921.81   926.23   927.26   928.34
eigval :      933.63   946.72   960.78   963.01   965.72   999.32
eigval :     1009.22  1010.12  1025.92  1043.39  1046.04  1053.18
eigval :     1074.55  1079.34  1080.61  1082.30  1082.83  1089.16
eigval :     1096.33  1105.04  1120.64  1126.35  1136.58  1139.65
eigval :     1144.03  1150.34  1170.15  1172.38  1174.17  1176.14
eigval :     1176.67  1178.18  1180.56  1182.42  1186.80  1195.36
eigval :     1198.70  1207.79  1208.77  1209.85  1212.41  1231.39
eigval :     1235.63  1241.93  1245.60  1255.20  1260.21  1263.08
eigval :     1267.74  1277.20  1280.20  1283.36  1286.50  1294.57
eigval :     1303.64  1318.53  1321.76  1325.81  1327.96  1340.87
eigval :     1344.29  1353.06  1367.47  1374.05  1381.73  1393.45
eigval :     1400.77  1403.54  1408.41  1411.25  1421.01  1427.12
eigval :     1429.35  1432.42  1434.54  1445.15  1451.17  1460.72
eigval :     1462.81  1472.65  1477.39  1485.91  1487.37  1489.62
eigval :     1497.05  1499.37  1503.85  1518.00  1532.91  1547.90
eigval :     1549.50  1566.66  1569.08  1569.95  1585.37  1586.22
eigval :     1590.24  1596.47  1600.90  1605.11  1617.29  3022.49
eigval :     3026.60  3028.22  3031.53  3035.11  3036.50  3066.39
eigval :     3068.40  3068.47  3070.63  3070.70  3071.15  3072.00
eigval :     3072.82  3074.06  3074.91  3076.11  3078.80  3079.09
eigval :     3079.94  3080.63  3081.97  3083.57  3084.00  3087.41
eigval :     3087.51  3088.06  3090.00  3090.50  3091.10  3091.61
eigval :     3092.67  3093.91  3098.04  3098.59  3099.98  3118.68

   temp. (K)  partition function   enthalpy   heat capacity  entropy
                                   cal/mol     cal/K/mol   cal/K/mol   J/K/mol
 298.15  VIB  0.554E+19            25108.911    161.656    154.564
         ROT  0.744E+08              888.752      2.981     39.000
         INT  0.412E+27            25997.663    164.636    193.564
         TR   0.170E+29             1481.254      4.968     45.393
         TOT                       27478.9174   169.6045   238.9574   999.7979

       T/K    H(0)-H(T)+PV         H(T)/Eh          T*S/Eh         G(T)/Eh
   ------------------------------------------------------------------------
    298.15    0.437904E-01    0.747687E+00    0.113536E+00    0.634151E+00
   ------------------------------------------------------------------------

         :::::::::::::::::::::::::::::::::::::::::::::::::::::
         ::                  THERMODYNAMIC                  ::
         :::::::::::::::::::::::::::::::::::::::::::::::::::::
         :: total free energy        -132.486141595352 Eh   ::
         ::.................................................::
         :: total energy             -133.120292117356 Eh   ::
         :: zero point energy           0.703896472391 Eh   ::
         :: G(RRHO) w/o ZPVE           -0.069745950387 Eh   ::
         :: G(RRHO) contrib.            0.634150522004 Eh   ::
         :::::::::::::::::::::::::::::::::::::::::::::::::::::

           -------------------------------------------------
          | TOTAL ENERGY             -133.120292117356 Eh   |
          | TOTAL ENTHALPY           -132.372605202759 Eh   |
          | TOTAL FREE ENERGY        -132.486141595352 Eh   |
          | GRADIENT NORM               0.000060675875 Eh/α |
           -------------------------------------------------

 * finished run on 2025/09/04 at 13:30:54.740
