   * xtb version 6.7.1 (edcfbbe) compiled by 'albert@albert-system' on 2024-07-22

   ID    Z sym.   atoms
    1    6 C      1-13, 15-53
    2    7 N      14
    3    1 H      54-90

          program call               : xtb data2507/gas/FSF4A/FSF4A.xyz --gfn 2 --ohess vtight --parallel 40 --molden --ceasefiles --namespace data2507/gas/FSF4A/FSF4A_gas_S0_preOpt
          :  Hamiltonian                  GFN2-xTB          :
 * total energy  :  -133.1870400 Eh     change       -0.5963471E-08 Eh
 * total energy  :  -133.2003406 Eh     change       -0.1330067E-01 Eh
 * total energy  :  -133.2049561 Eh     change       -0.4615437E-02 Eh
 * total energy  :  -133.2066403 Eh     change       -0.1684185E-02 Eh
 * total energy  :  -133.2077094 Eh     change       -0.1069104E-02 Eh
 * total energy  :  -133.2083223 Eh     change       -0.6129654E-03 Eh
 * total energy  :  -133.2088031 Eh     change       -0.4808197E-03 Eh
 * total energy  :  -133.2092572 Eh     change       -0.4540478E-03 Eh
 * total energy  :  -133.2096843 Eh     change       -0.4270668E-03 Eh
 * total energy  :  -133.2100003 Eh     change       -0.3160860E-03 Eh
 * total energy  :  -133.2110194 Eh     change       -0.3034793E-06 Eh
 * total energy  :  -133.2110197 Eh     change       -0.3352351E-06 Eh
 * total energy  :  -133.2110201 Eh     change       -0.3504443E-06 Eh
 * total energy  :  -133.2110204 Eh     change       -0.3837062E-06 Eh
 * total energy  :  -133.2110209 Eh     change       -0.4682862E-06 Eh
 * total energy  :  -133.2110215 Eh     change       -0.6188160E-06 Eh
 * total energy  :  -133.2110221 Eh     change       -0.6083125E-06 Eh
 * total energy  :  -133.2110227 Eh     change       -0.5576903E-06 Eh
 * total energy  :  -133.2110227 Eh     change       -0.2979050E-08 Eh
   *** GEOMETRY OPTIMIZATION CONVERGED AFTER 68 ITERATIONS ***

 final structure:
================
90
 xtb: 6.7.1 (edcfbbe)
C           -5.01224982613074       -0.01737097985812        2.13796510960874
C           -5.16565617106977       -0.38857176081779        0.65974292697923
C           -6.13473601200769        0.57073780520234       -0.03739152459302
C           -5.60646509140512       -1.82713722687090        0.50274295559578
C           -6.76907705929904       -2.42586484105170        0.93543754036966
C           -6.96396038094931       -3.77661232714539        0.67672516785118
C           -6.00647575483783       -4.51319252599753       -0.00271147510787
C           -4.83388265812542       -3.91925858380777       -0.44049519808666
C           -4.63703924921470       -2.57185064805211       -0.18623833645050
C           -3.53194161727684       -1.69192090668341       -0.52061861078486
C           -2.34354248405015       -1.92600552536253       -1.19262507690786
C           -1.45864116321022       -0.88150574768706       -1.37999514530850
C           -1.73934452336931        0.39676126100909       -0.89221795904075
N           -0.82683471196911        1.43806301026721       -1.04556220371370
C           -1.28481634244541        2.74803192037016       -1.26440285532878
C           -2.41000115444873        2.98537648111823       -2.05147704328828
C           -2.83066440443400        4.27596562749229       -2.30628665221032
C           -2.11983659885764        5.35125395712267       -1.79857895200344
C           -0.99980776467441        5.12410011726558       -1.01950855065011
C           -0.57750640275838        3.83323917252901       -0.72714751384795
C            0.57834745954292        3.63328815351822        0.16747357328338
C            0.43501722625375        2.89989802037391        1.34061220127651
C            1.49761053206592        2.75447455947415        2.21179101744478
C            2.71597897172457        3.34583617051458        1.92293631048793
C            2.87104985337628        4.06904609958585        0.75197843124797
C            1.80795464167056        4.21617134301538       -0.11924449228624
C            0.52816256762093        1.17051457065815       -1.29513523514146
C            1.14595401680388        1.79158221719553       -2.38363583720395
C            2.46320844733218        1.54347347894799       -2.71363049461178
C            3.21008687487281        0.63111935819663       -1.98282320285304
C            2.61282370787560        0.02176500487833       -0.90251824485107
C            1.29141450998705        0.29543111806076       -0.51564967520988
C            1.01956549921053       -0.43711623112863        0.71721784933761
C           -0.07512224051752       -0.47218919003506        1.56861814252536
C           -0.01453284656256       -1.25014767087781        2.71360483795470
C            1.11681851177898       -1.98701636238621        3.02363708465415
C            2.22264497023310       -1.95437203595823        2.18635809502660
C            2.16439430989714       -1.17890771510287        1.05018551601327
C            3.23890184359369       -0.99902108672990        0.01132511183639
C            4.58702663672866       -0.60533568463924        0.55459451074928
C            4.91330272511759        0.51076877703287        1.29193284958184
C            6.23324851883655        0.67716214965999        1.68883765219903
C            7.20008083718701       -0.25788061136019        1.35050038891946
C            6.87539520635719       -1.38000631383721        0.60486508828936
C            5.56064074709745       -1.55201360990009        0.20438678068865
C            4.92280025122712       -2.60046340109082       -0.57630681044200
C            5.43384870720484       -3.75089927787211       -1.15404993291203
C            4.57228990464917       -4.58169097413428       -1.85237955195182
C            3.22548347125408       -4.27345835370377       -1.97129466286825
C            2.70601848640682       -3.12227459540173       -1.39459913298292
C            3.56084473258888       -2.29283675074756       -0.70315691216256
C           -2.94253305387856        0.63005116014322       -0.21240281669921
C           -3.82440325384099       -0.40724328784075       -0.03743652955615
H           -4.31659238619067       -0.69822052497249        2.62435757193233
H           -4.63348615878147        0.99761902177665        2.23606984072516
H           -5.97201389526389       -0.08093319197517        2.64538311232661
H           -6.24505217264554        0.29663329447352       -1.08459911208864
H           -7.11282935301392        0.53095281339436        0.43629904441944
H           -5.76177476496822        1.59117521416053        0.01767967731523
H           -7.52213711480003       -1.86125546542445        1.46642687982720
H           -7.87215932350024       -4.25830601019842        1.00882381232835
H           -6.17806924662927       -5.56294762421663       -0.19286069895628
H           -4.08927261998369       -4.49558705837474       -0.96947027416714
H           -2.11028658371492       -2.90778697321122       -1.57681630866860
H           -0.53732039700530       -1.04732303496977       -1.91831551741416
H           -2.94516231080916        2.14559894952399       -2.47081281705828
H           -3.70547304896548        4.44220641228848       -2.91725765179374
H           -2.43862811439767        6.36140583172976       -2.00650264544038
H           -0.44951193638746        5.95621383469924       -0.60431053021141
H           -0.52136259627443        2.45917272143849        1.57888700289548
H            1.37294805110508        2.18187857499584        3.11952670792275
H            3.54011201513680        3.25510569858536        2.61607128212860
H            3.82296536363135        4.52441789273030        0.52030878290514
H            1.92824892205467        4.77945999961688       -1.03350737949959
H            0.56451002290755        2.47594601138215       -2.98491427767676
H            2.90330654410698        2.04624300922635       -3.56176438003935
H            4.23212185666301        0.40525172898896       -2.24697437272701
H           -0.96990274263780        0.08874297701761        1.35991163676800
H           -0.86751932013854       -1.27975729365858        3.37630271176773
H            1.14022807762349       -2.58586334642397        3.92215761064299
H            3.11378123379191       -2.51897307009771        2.41999988871584
H            4.15544695814907        1.23628199526804        1.54607942002045
H            6.51187251693672        1.54569249262125        2.26771632929582
H            8.22085391312534       -0.10771473317095        1.67124445364548
H            7.63280945017002       -2.10340617709629        0.34133423594491
H            6.48145149709306       -3.99670406894711       -1.06216561727316
H            4.95383863044596       -5.48313906045976       -2.30957969007134
H            2.57270403694961       -4.93771104442320       -2.51841845512649
H            1.65589378536628       -2.88377961048694       -1.48216411302410
H           -3.15638019229428        1.61746050662237        0.17190232686026

          :  Hamiltonian                  GFN2-xTB          :
         :: gradient norm              0.000037963685 Eh/a0 ::
         :: HOMO-LUMO gap              2.519876709053 eV    ::
         :: SCC energy              -135.762500697825 Eh    ::
         :: -> dispersion             -0.145140615177 Eh    ::
         :: repulsion energy           2.551478005631 Eh    ::

    * Orbital Energies and Occupations

         #    Occupation            Energy/Eh            Energy/eV
      -------------------------------------------------------------
         1        2.0000           -0.6641455             -18.0723
       ...           ...                  ...                  ...
       113        2.0000           -0.4077040             -11.0942
       114        2.0000           -0.4070874             -11.0774
       115        2.0000           -0.4028572             -10.9623
       116        2.0000           -0.4007787             -10.9057
       117        2.0000           -0.3982882             -10.8380
       118        2.0000           -0.3941211             -10.7246
       119        2.0000           -0.3926870             -10.6856
       120        2.0000           -0.3920910             -10.6693
       121        2.0000           -0.3881042             -10.5609
       122        2.0000           -0.3841876             -10.4543
       123        2.0000           -0.3791305             -10.3167
       124        2.0000           -0.3754591             -10.2168
       125        2.0000           -0.3448055              -9.3826 (HOMO)
       126                         -0.2522018              -6.8628 (LUMO)
       127                         -0.2500811              -6.8051
       128                         -0.2445629              -6.6549
       129                         -0.2384637              -6.4889
       130                         -0.2282577              -6.2112
       131                         -0.2235009              -6.0818
       132                         -0.2218357              -6.0365
       133                         -0.2214361              -6.0256
       134                         -0.2185999              -5.9484
       135                         -0.2162359              -5.8841
       136                         -0.2134930              -5.8094
       ...                                ...                  ...
       249                          0.7401344              20.1401
      -------------------------------------------------------------
                  HL-Gap            0.0926037 Eh            2.5199 eV

     #   Z          covCN         q      C6AA      α(0)
     1   6 C        3.759    -0.096    22.391     6.746
     2   6 C        3.936     0.019    20.193     6.386
     3   6 C        3.758    -0.097    22.408     6.749
     4   6 C        3.056    -0.004    28.057     8.687
     5   6 C        2.915    -0.034    28.853     8.808
     6   6 C        2.922    -0.035    28.866     8.811
     7   6 C        2.921    -0.033    28.834     8.806
     8   6 C        2.914    -0.036    28.887     8.813
     9   6 C        3.037     0.001    27.980     8.676
    10   6 C        3.036    -0.010    28.237     8.716
    11   6 C        2.914    -0.033    28.830     8.805
    12   6 C        2.923    -0.052    29.304     8.877
    13   6 C        2.924     0.065    26.548     8.450
    14   7 N        2.752    -0.074    22.672     7.072
    15   6 C        2.931     0.061    26.630     8.463
    16   6 C        2.921    -0.047    29.176     8.858
    17   6 C        2.919    -0.032    28.805     8.801
    18   6 C        2.917    -0.038    28.947     8.823
    19   6 C        2.926    -0.034    28.854     8.809
    20   6 C        2.979    -0.006    28.176     8.707
    21   6 C        2.978     0.012    27.731     8.638
    22   6 C        2.926    -0.030    28.751     8.793
    23   6 C        2.919    -0.028    28.710     8.787
    24   6 C        2.921    -0.030    28.761     8.795
    25   6 C        2.919    -0.029    28.730     8.790
    26   6 C        2.925    -0.034    28.835     8.806
    27   6 C        2.922     0.062    26.614     8.460
    28   6 C        2.925    -0.050    29.253     8.870
    29   6 C        2.922    -0.032    28.797     8.800
    30   6 C        2.914    -0.041    29.020     8.834
    31   6 C        3.063     0.007    27.809     8.648
    32   6 C        3.030    -0.015    28.345     8.733
    33   6 C        3.032     0.005    27.888     8.662
    34   6 C        2.916    -0.035    28.871     8.811
    35   6 C        2.921    -0.033    28.814     8.803
    36   6 C        2.922    -0.032    28.799     8.800
    37   6 C        2.914    -0.033    28.828     8.804
    38   6 C        3.061     0.006    27.823     8.650
    39   6 C        3.979     0.009    20.347     6.409
    40   6 C        3.057     0.006    27.841     8.653
    41   6 C        2.914    -0.034    28.857     8.809
    42   6 C        2.923    -0.031    28.777     8.797
    43   6 C        2.921    -0.033    28.818     8.803
    44   6 C        2.915    -0.034    28.849     8.808
    45   6 C        3.037     0.001    27.971     8.675
    46   6 C        3.036     0.001    27.965     8.674
    47   6 C        2.915    -0.034    28.840     8.806
    48   6 C        2.921    -0.033    28.815     8.803
    49   6 C        2.923    -0.032    28.786     8.799
    50   6 C        2.914    -0.032    28.803     8.801
    51   6 C        3.059     0.007    27.800     8.646
    52   6 C        2.918    -0.054    29.350     8.884
    53   6 C        3.055    -0.002    28.011     8.680
    54   1 H        0.925     0.035     2.515     2.480
    55   1 H        0.925     0.038     2.472     2.459
    56   1 H        0.925     0.040     2.455     2.450
    57   1 H        0.925     0.035     2.517     2.481
    58   1 H        0.925     0.040     2.452     2.449
    59   1 H        0.925     0.039     2.461     2.453
    60   1 H        0.926     0.025     2.660     2.550
    61   1 H        0.926     0.026     2.638     2.540
    62   1 H        0.926     0.026     2.637     2.540
    63   1 H        0.926     0.027     2.624     2.533
    64   1 H        0.926     0.029     2.594     2.518
    65   1 H        0.926     0.025     2.651     2.546
    66   1 H        0.926     0.034     2.534     2.489
    67   1 H        0.926     0.032     2.564     2.504
    68   1 H        0.926     0.031     2.573     2.508
    69   1 H        0.926     0.032     2.553     2.499
    70   1 H        0.926     0.031     2.575     2.509
    71   1 H        0.926     0.029     2.607     2.525
    72   1 H        0.926     0.029     2.603     2.523
    73   1 H        0.926     0.030     2.592     2.518
    74   1 H        0.926     0.029     2.601     2.522
    75   1 H        0.926     0.031     2.577     2.511
    76   1 H        0.926     0.033     2.548     2.496
    77   1 H        0.926     0.030     2.589     2.516
    78   1 H        0.926     0.035     2.518     2.481
    79   1 H        0.926     0.028     2.614     2.528
    80   1 H        0.926     0.030     2.587     2.515
    81   1 H        0.926     0.028     2.622     2.532
    82   1 H        0.926     0.032     2.560     2.502
    83   1 H        0.926     0.029     2.598     2.521
    84   1 H        0.926     0.030     2.588     2.516
    85   1 H        0.926     0.031     2.576     2.510
    86   1 H        0.926     0.031     2.565     2.505
    87   1 H        0.926     0.031     2.578     2.511
    88   1 H        0.926     0.031     2.574     2.509
    89   1 H        0.926     0.027     2.624     2.533
    90   1 H        0.926     0.026     2.645     2.543

molecular dipole:
                 x           y           z       tot (Debye)
 q only:       -0.028       0.410       0.074
   full:       -0.006       0.408       0.014       1.038

 projected vibrational frequencies (cm⁻¹)
eigval :       -0.00    -0.00    -0.00     0.00     0.00     0.00
eigval :       10.66    13.26    17.17    24.12    30.72    34.68
eigval :       40.37    46.07    54.88    59.73    70.33    83.41
eigval :       84.13    90.05    95.79   102.77   120.43   126.03
eigval :      129.90   135.65   150.93   154.72   164.11   180.53
eigval :      198.11   203.61   213.38   218.50   231.37   235.91
eigval :      239.18   246.43   257.91   274.43   290.75   297.20
eigval :      304.32   312.91   323.13   329.66   339.28   368.36
eigval :      370.31   373.13   387.42   401.28   410.81   414.77
eigval :      417.73   434.54   447.58   454.15   461.99   467.70
eigval :      467.96   481.84   503.49   514.80   518.64   526.96
eigval :      532.34   537.91   538.72   542.14   552.62   559.32
eigval :      570.92   585.10   586.00   588.11   591.60   594.97
eigval :      608.58   615.43   627.20   632.72   657.49   670.92
eigval :      684.92   688.52   690.95   692.53   706.57   716.98
eigval :      721.33   727.47   738.29   741.77   751.17   755.38
eigval :      762.50   767.81   776.27   778.14   780.24   786.10
eigval :      787.28   801.59   823.43   825.69   873.72   878.05
eigval :      878.66   878.92   880.60   883.25   886.26   888.05
eigval :      890.81   899.98   905.93   907.72   909.37   910.22
eigval :      910.83   913.03   916.66   920.02   923.97   926.27
eigval :      926.64   926.89   927.63   927.91   931.47   938.30
eigval :      947.09   962.77   966.39   975.44   990.61  1009.61
eigval :     1009.63  1013.11  1037.23  1049.22  1069.79  1074.38
eigval :     1078.78  1079.37  1084.22  1085.65  1096.29  1106.15
eigval :     1113.92  1119.25  1122.91  1138.47  1141.70  1144.06
eigval :     1152.12  1162.56  1176.17  1178.07  1178.76  1179.96
eigval :     1180.70  1181.81  1183.89  1185.26  1188.98  1197.69
eigval :     1202.64  1209.75  1220.24  1228.20  1231.87  1235.93
eigval :     1244.34  1251.52  1253.80  1259.76  1266.67  1271.44
eigval :     1272.81  1281.22  1286.14  1286.38  1290.39  1308.18
eigval :     1314.22  1319.44  1322.90  1327.91  1333.80  1336.07
eigval :     1367.59  1369.88  1374.48  1395.36  1408.17  1411.50
eigval :     1422.59  1429.73  1432.16  1433.22  1435.46  1439.44
eigval :     1439.84  1458.73  1459.05  1460.45  1462.94  1472.65
eigval :     1473.79  1475.90  1488.15  1490.22  1494.49  1498.32
eigval :     1502.98  1566.81  1571.62  1576.74  1584.11  1585.68
eigval :     1586.25  1589.44  1595.24  1596.50  1597.26  1601.38
eigval :     1602.05  1602.92  1604.42  1605.80  1612.51  3025.86
eigval :     3028.69  3029.92  3032.46  3036.99  3038.13  3068.07
eigval :     3068.82  3071.91  3072.38  3072.46  3072.81  3073.12
eigval :     3073.62  3076.35  3076.71  3076.74  3077.56  3078.24
eigval :     3079.23  3079.37  3080.46  3082.01  3084.37  3085.57
eigval :     3086.84  3087.42  3088.66  3088.95  3089.65  3092.03
eigval :     3092.45  3093.28  3095.38  3096.22  3098.82  3129.96

   temp. (K)  partition function   enthalpy   heat capacity  entropy
                                   cal/mol     cal/K/mol   cal/K/mol   J/K/mol
 298.15  VIB  0.501E+19            24822.473    159.559    153.187
         ROT  0.754E+08              888.752      2.981     39.025
         INT  0.378E+27            25711.225    162.540    192.212
         TR   0.170E+29             1481.254      4.968     45.393
         TOT                       27192.4791   167.5078   237.6055   994.1413

       T/K    H(0)-H(T)+PV         H(T)/Eh          T*S/Eh         G(T)/Eh
   ------------------------------------------------------------------------
    298.15    0.433340E-01    0.752056E+00    0.112894E+00    0.639162E+00
   ------------------------------------------------------------------------

         :::::::::::::::::::::::::::::::::::::::::::::::::::::
         ::                  THERMODYNAMIC                  ::
         :::::::::::::::::::::::::::::::::::::::::::::::::::::
         :: total free energy        -132.571860331951 Eh   ::
         ::.................................................::
         :: total energy             -133.211022692194 Eh   ::
         :: zero point energy           0.708722410742 Eh   ::
         :: G(RRHO) w/o ZPVE           -0.069560050500 Eh   ::
         :: G(RRHO) contrib.            0.639162360243 Eh   ::
         :::::::::::::::::::::::::::::::::::::::::::::::::::::

           -------------------------------------------------
          | TOTAL ENERGY             -133.211022692194 Eh   |
          | TOTAL ENTHALPY           -132.458966307659 Eh   |
          | TOTAL FREE ENERGY        -132.571860331951 Eh   |
          | GRADIENT NORM               0.000037962176 Eh/α |
          | HOMO-LUMO GAP               2.519876048171 eV   |
           -------------------------------------------------

 * finished run on 2025/09/04 at 13:21:50.378
