   * xtb version 6.7.1 (edcfbbe) compiled by 'albert@albert-system' on 2024-07-22

   ID    Z sym.   atoms
    1    6 C      1-13, 15-53
    2    7 N      14
    3    1 H      54-90

          program call               : xtb data2507/gas/FSF4A/FSF4A_gas_T1_crest.xyz --gfn 2 --spinpol --tblite --uhf 2 --ohess vtight --parallel 40 --molden --ceasefiles --namespace data2507/gas/FSF4A/FSF4A_gas_T1_finalOpt
 * total energy  :  -133.1202346 Eh     change       -0.2605523E-07 Eh
 * total energy  :  -133.1202698 Eh     change       -0.3519763E-04 Eh
 * total energy  :  -133.1202984 Eh     change       -0.2859189E-04 Eh
 * total energy  :  -133.1203017 Eh     change       -0.3331890E-05 Eh
 * total energy  :  -133.1203033 Eh     change       -0.1637648E-05 Eh
 * total energy  :  -133.1203045 Eh     change       -0.1148343E-05 Eh
 * total energy  :  -133.1203058 Eh     change       -0.1294728E-05 Eh
 * total energy  :  -133.1203065 Eh     change       -0.6940334E-06 Eh
 * total energy  :  -133.1203068 Eh     change       -0.3514808E-06 Eh
 * total energy  :  -133.1203072 Eh     change       -0.3288951E-06 Eh
 * total energy  :  -133.1203075 Eh     change       -0.3323312E-06 Eh
 * total energy  :  -133.1203077 Eh     change       -0.2391260E-06 Eh
 * total energy  :  -133.1203078 Eh     change       -0.1042848E-06 Eh
 * total energy  :  -133.1203079 Eh     change       -0.3194441E-07 Eh
   *** GEOMETRY OPTIMIZATION CONVERGED AFTER 14 ITERATIONS ***

 final structure:
================
90
 xtb: 6.7.1 (edcfbbe)
C           -5.07326143642510       -0.08557853431363        2.29682543021649
C           -5.28265983868919       -0.34766155854004        0.80053131082787
C           -6.30621761455591        0.63661337622739        0.22487225213498
C           -5.69372936793906       -1.78245734006413        0.55463157304603
C           -6.82033571939005       -2.43772032384789        0.96846745410878
C           -6.99014823709113       -3.78398818676262        0.62823387297227
C           -6.02283069161029       -4.45448517615309       -0.12432564828919
C           -4.88463535875245       -3.81599319873163       -0.55196813249851
C           -4.70131314135542       -2.45739199697267       -0.22007023140997
C           -3.66435993999845       -1.56042349582561       -0.52319524456573
C           -2.46364086819877       -1.71667584116937       -1.26697424385370
C           -1.61574112266751       -0.66349869344807       -1.39733959113700
C           -1.91077873080259        0.60558928361281       -0.81475038024235
N           -1.01223773829472        1.63541288839978       -0.90796551636332
C           -1.45463518238789        2.96152331948551       -0.96430413168386
C           -2.61488273210639        3.27823366147900       -1.67445834610172
C           -3.03268276033878        4.58684015883820       -1.78769872596004
C           -2.29029128791102        5.60524493111130       -1.20126540763035
C           -1.14244983194957        5.29953491107921       -0.49413108451570
C           -0.71125854414107        3.98619591041342       -0.34553194145173
C            0.47092389946350        3.70041389814117        0.48212923549006
C            0.39013667947167        2.81842556638995        1.55716223232018
C            1.48768651972996        2.58983214775625        2.36259546530360
C            2.68295244336799        3.24499436510904        2.11041577283262
C            2.77388602536956        4.12371520614568        1.04347143424744
C            1.67616483071549        4.35629101899323        0.23810545236980
C            0.34578403832902        1.37661173790902       -1.11220382668405
C            1.01839233854406        2.09962207975236       -2.10588774466449
C            2.32654132622967        1.83486390095504       -2.43769800941074
C            3.01613019518268        0.79641806827773       -1.80416107506464
C            2.37269180524804        0.08946286231193       -0.82075829283615
C            1.05183047162958        0.37020102690072       -0.41625644633953
C            0.73800440887840       -0.46037668197016        0.72616123682966
C           -0.36440190014945       -0.53458765094952        1.57657845935757
C           -0.34855786460428       -1.43261719643662        2.62745421360385
C            0.74388881898482       -2.25576196913050        2.86066915137840
C            1.85701028823555       -2.18646490065715        2.03132033396688
C            1.84506080580684       -1.29462639834955        0.98594855449984
C            2.93669169578961       -1.05760124884738       -0.02315804191534
C            4.29773435002485       -0.79734640878741        0.56577402478748
C            4.67142577279969        0.20412640536037        1.43388111293412
C            5.99443984264877        0.25670510506032        1.85125528536514
C            6.91786036565650       -0.67694004176964        1.40486553197293
C            6.54531834869371       -1.68466108693771        0.52957457356815
C            5.22711644414926       -1.74277730962381        0.10818336366931
C            4.54482984891950       -2.66092684096215       -0.79010195970184
C            5.00346840389828       -3.76046406450755       -1.49667035208421
C            4.10687740618606       -4.46359950815001       -2.28523091711917
C            2.77662119272891       -4.08032971669653       -2.36645812687186
C            2.30971658949172       -2.97928718663334       -1.66125804333855
C            3.19970310242449       -2.27592747294745       -0.88020539458250
C           -3.13449108561284        0.77633789968937       -0.09296155785138
C           -3.97001922211409       -0.27653803137232        0.05310318359892
H           -4.33864940601262       -0.78060413825663        2.69833454587362
H           -4.71784567665961        0.92998569116607        2.45814416729465
H           -6.00733784786271       -0.21783892614722        2.83772647648985
H           -6.45366570303689        0.44608907199323       -0.83619704684969
H           -7.26184256502732        0.52746711349198        0.73215148788021
H           -5.96032071654310        1.66047363870812        0.35021463948624
H           -7.57661530443026       -1.93404967395729        1.55386781950072
H           -7.87518113640444       -4.31020357467585        0.95213184347469
H           -6.18009906027949       -5.49496161195266       -0.37151200314263
H           -4.13873476696310       -4.33581908819623       -1.13418375699227
H           -2.24575392814174       -2.66382781227503       -1.73589868029692
H           -0.71602485529684       -0.75218050231666       -1.98806863537247
H           -3.16351355467685        2.48400446130098       -2.15966028926063
H           -3.92630719916424        4.81863685700646       -2.34690629284682
H           -2.61027166817055        6.63168089513727       -1.29510638201784
H           -0.57402736651966        6.08608600700807       -0.01948172577162
H           -0.54604385018982        2.32575828394195        1.77345525500754
H            1.40834824200254        1.90093328217127        3.19117108393618
H            3.53798672257777        3.08237324599023        2.75027575362491
H            3.70504410129567        4.63283925211541        0.84163032399920
H            1.74925945244932        5.03789569007358       -0.59710725571267
H            0.47448895350042        2.86824271686860       -2.63694251755080
H            2.81270017911148        2.41271762545952       -3.20833124659659
H            4.03275187373150        0.55930800596383       -2.07859151187603
H           -1.23237329388681        0.08667245340323        1.43270430796649
H           -1.20635576389305       -1.49136896874699        3.28232050266504
H            0.73105734936016       -2.94779084462509        3.68928424691358
H            2.71832203035834       -2.81532295155381        2.20561564142353
H            3.94733974985527        0.92919335340340        1.77330474479127
H            6.30990242971746        1.03401192496642        2.53200266220268
H            7.94199772572309       -0.61651765615945        1.74391722260124
H            7.26873947644361       -2.40830061734258        0.18388278933012
H            6.03773841662316       -4.06505289089007       -1.43421690788044
H            4.44740958156828       -5.32378214557198       -2.84326402701485
H            2.09543905587464       -4.64626132853063       -2.98492573211594
H            1.27202827435724       -2.68388747905083       -1.71835944978563
H           -3.34186480530285        1.73443405843818        0.36269660098841

 projected vibrational frequencies (cm⁻¹)
eigval :       -0.00    -0.00    -0.00    -0.00     0.00     0.00
eigval :       12.01    13.77    17.56    24.75    30.32    34.08
eigval :       41.52    46.06    56.82    60.11    68.59    82.64
eigval :       84.21    90.98    97.58   103.12   118.14   129.59
eigval :      133.63   135.56   145.78   154.88   159.58   180.08
eigval :      195.20   206.63   213.36   217.38   229.50   233.58
eigval :      238.55   244.27   253.84   273.00   288.58   293.95
eigval :      300.13   308.59   315.37   319.92   331.47   366.90
eigval :      370.44   373.95   378.64   387.18   401.12   408.60
eigval :      414.64   429.66   433.57   449.93   453.52   458.89
eigval :      467.92   481.07   500.84   505.92   508.03   513.51
eigval :      514.48   524.61   531.34   539.50   545.05   545.91
eigval :      561.97   569.53   581.67   583.59   587.53   591.51
eigval :      596.85   606.70   617.88   627.41   652.08   662.94
eigval :      664.80   675.02   683.49   689.51   691.60   697.98
eigval :      705.61   718.67   733.00   737.71   740.41   746.15
eigval :      754.41   757.73   762.36   766.13   772.00   781.00
eigval :      783.82   786.32   790.77   818.15   834.93   858.17
eigval :      864.06   874.89   876.44   877.87   878.48   881.44
eigval :      885.70   890.02   890.46   896.38   900.74   904.11
eigval :      905.84   909.20   909.62   910.33   914.59   915.96
eigval :      918.68   920.87   921.79   926.22   927.27   928.28
eigval :      933.56   946.65   960.83   963.08   965.67   999.32
eigval :     1009.12  1010.17  1026.04  1043.50  1045.97  1053.38
eigval :     1074.57  1079.29  1080.58  1082.27  1082.91  1089.67
eigval :     1096.16  1104.95  1120.80  1126.07  1136.59  1139.71
eigval :     1143.97  1150.59  1170.20  1172.46  1174.25  1176.16
eigval :     1176.66  1178.14  1180.62  1182.37  1186.75  1195.20
eigval :     1198.61  1207.81  1208.63  1209.77  1212.30  1231.40
eigval :     1235.89  1241.87  1245.71  1254.92  1260.05  1263.06
eigval :     1268.11  1277.20  1280.05  1283.52  1286.49  1294.87
eigval :     1303.69  1318.50  1321.59  1325.82  1327.98  1340.92
eigval :     1344.30  1353.04  1367.38  1374.03  1381.78  1393.50
eigval :     1400.68  1403.23  1408.53  1411.07  1420.91  1427.18
eigval :     1429.24  1432.34  1434.39  1445.26  1451.19  1460.81
eigval :     1462.87  1472.62  1477.61  1485.85  1487.46  1489.71
eigval :     1497.13  1499.45  1504.00  1518.09  1532.61  1548.26
eigval :     1550.05  1566.74  1569.23  1569.98  1585.36  1586.20
eigval :     1590.31  1596.45  1600.88  1605.13  1617.06  3022.57
eigval :     3026.69  3028.24  3031.52  3035.15  3036.60  3066.40
eigval :     3068.24  3068.43  3070.47  3070.64  3071.13  3072.00
eigval :     3072.50  3073.86  3074.97  3076.21  3078.70  3078.78
eigval :     3079.80  3080.49  3081.77  3083.62  3083.83  3087.39
eigval :     3087.43  3088.02  3089.97  3090.41  3091.01  3091.58
eigval :     3092.53  3093.69  3098.00  3099.04  3099.69  3118.16

   temp. (K)  partition function   enthalpy   heat capacity  entropy
                                   cal/mol     cal/K/mol   cal/K/mol   J/K/mol
 298.15  VIB  0.533E+19            25106.234    161.663    154.525
         ROT  0.743E+08              888.752      2.981     38.997
         INT  0.396E+27            25994.986    164.644    193.522
         TR   0.170E+29             1481.254      4.968     45.393
         TOT                       27476.2401   169.6123   238.9152   999.6210

       T/K    H(0)-H(T)+PV         H(T)/Eh          T*S/Eh         G(T)/Eh
   ------------------------------------------------------------------------
    298.15    0.437862E-01    0.747687E+00    0.113516E+00    0.634171E+00
   ------------------------------------------------------------------------

         :::::::::::::::::::::::::::::::::::::::::::::::::::::
         ::                  THERMODYNAMIC                  ::
         :::::::::::::::::::::::::::::::::::::::::::::::::::::
         :: total free energy        -132.486136758674 Eh   ::
         ::.................................................::
         :: total energy             -133.120307881705 Eh   ::
         :: zero point energy           0.703901250015 Eh   ::
         :: G(RRHO) w/o ZPVE           -0.069730126984 Eh   ::
         :: G(RRHO) contrib.            0.634171123031 Eh   ::
         :::::::::::::::::::::::::::::::::::::::::::::::::::::

           -------------------------------------------------
          | TOTAL ENERGY             -133.120307881705 Eh   |
          | TOTAL ENTHALPY           -132.372620455963 Eh   |
          | TOTAL FREE ENERGY        -132.486136758674 Eh   |
          | GRADIENT NORM               0.000154328787 Eh/α |
           -------------------------------------------------

 * finished run on 2025/09/04 at 13:41:40.537
