   * xtb version 6.7.1 (edcfbbe) compiled by 'albert@albert-system' on 2024-07-22

   ID    Z sym.   atoms
    1    6 C      1-4, 6-19, 21-27, 29-40, 42-48, 50-61, 63
    2    7 N      5, 20, 28, 41, 49, 62
    3    1 H      64-99

          program call               : xtb data2507/gas/TrisCz-Trz/TrisCz-Trz_gas_S0_finalOpt.xtbopt.xyz --gfn 2 --spinpol --tblite --uhf 2 --ohess vtight --parallel 40 --molden --ceasefiles --namespace data2507/gas/TrisCz-Trz/TrisCz-Trz_gas_T1_preOpt
 * total energy  :  -158.0258323 Eh     change        0.4679828E-07 Eh
 * total energy  :  -158.0290846 Eh     change       -0.3252263E-02 Eh
 * total energy  :  -158.0309376 Eh     change       -0.1853065E-02 Eh
 * total energy  :  -158.0312097 Eh     change       -0.2721125E-03 Eh
 * total energy  :  -158.0313739 Eh     change       -0.1641427E-03 Eh
 * total energy  :  -158.0314467 Eh     change       -0.7287350E-04 Eh
 * total energy  :  -158.0314867 Eh     change       -0.3995003E-04 Eh
 * total energy  :  -158.0315217 Eh     change       -0.3500977E-04 Eh
 * total energy  :  -158.0315557 Eh     change       -0.3397368E-04 Eh
 * total energy  :  -158.0315860 Eh     change       -0.3036796E-04 Eh
 * total energy  :  -158.0317205 Eh     change       -0.2169962E-05 Eh
 * total energy  :  -158.0317232 Eh     change       -0.2692116E-05 Eh
 * total energy  :  -158.0317260 Eh     change       -0.2785405E-05 Eh
 * total energy  :  -158.0317279 Eh     change       -0.1929988E-05 Eh
 * total energy  :  -158.0317289 Eh     change       -0.1023366E-05 Eh
 * total energy  :  -158.0317297 Eh     change       -0.8324112E-06 Eh
 * total energy  :  -158.0317307 Eh     change       -0.9155559E-06 Eh
 * total energy  :  -158.0317314 Eh     change       -0.7904106E-06 Eh
 * total energy  :  -158.0317315 Eh     change       -0.4948944E-07 Eh
   *** GEOMETRY OPTIMIZATION CONVERGED AFTER 44 ITERATIONS ***

 final structure:
================
99
 xtb: 6.7.1 (edcfbbe)
C           -1.22776923112549        3.73604237864483        0.53328460470055
C           -0.19534041525608        4.41590740871834       -0.09806489861993
C            0.80530248880426        3.71127345736284       -0.74429440155196
C            0.79243253161844        2.32276378070203       -0.76346199047979
N            1.81078156416141        1.62026667330400       -1.42085839594587
C            3.15845904779043        1.72259102246720       -1.14774441014490
C            3.83296627211531        2.63501483305864       -0.34974235165135
C            5.21008830718092        2.54239910928987       -0.28693096681756
C            5.90434639451564        1.54647910356767       -0.96882455664776
C            5.23545233606104        0.61413145731264       -1.73919940755288
C            3.85567110899403        0.70574710489722       -1.84308431137157
C            2.86884671377456       -0.03863623641303       -2.57638979921537
C            2.92819719464773       -1.13673278938670       -3.42224352104605
C            1.75754015059411       -1.58882589216299       -4.00207767677331
C            0.54675221908977       -0.93966098432783       -3.77339097623349
C            0.46310141191881        0.15704562998879       -2.93689067557029
C            1.62608254626423        0.57606360366191       -2.30549066020795
C           -0.25843380296936        1.63155866387535       -0.13139885559047
C           -0.31232123030920        0.18318686265743       -0.13725765054942
N           -1.46243158692475       -0.42818640463133       -0.20425187945349
C           -1.51144311697558       -1.76002238786586       -0.34847007854835
C           -2.75936367919886       -2.43220413823121       -0.42357321678363
C           -2.81982356044258       -3.84002792795391       -0.43525499867133
C           -4.02395881467426       -4.49894875264108       -0.40795425218337
C           -5.21984361231610       -3.78549035980998       -0.36692770472273
C           -5.18828079696655       -2.39987537254003       -0.38079311428094
C           -3.98457788882352       -1.71956355106301       -0.42649784839680
N           -3.99565408626753       -0.31345316515218       -0.47992738196348
C           -3.65961489201924        0.45224847855301       -1.57568491530303
C           -3.17993792815748        0.04668548687534       -2.81118171467057
C           -2.91142048633263        1.02863956473993       -3.74774728804190
C           -3.11592428853675        2.37686576387041       -3.46407197007332
C           -3.61359031159865        2.78258346021244       -2.23913175920129
C           -3.89824218782896        1.81563578968740       -1.28701671546136
C           -4.42485486240388        1.85878315701507        0.05140854861743
C           -4.84860163980349        2.88037226646501        0.88777996719957
C           -5.28762252023502        2.55593138146444        2.15891698900333
C           -5.30628990702420        1.23362839186454        2.60112285186075
C           -4.89735772176363        0.19680897431895        1.78526622726295
C           -4.46343257176321        0.51633292664431        0.50482215949267
N           -0.35582836790236       -2.50810158561544       -0.36481379007154
C            0.74301693316911       -1.84547355344503       -0.14600945025782
C            1.96847951487954       -2.61964425122425        0.11085044114117
C            2.34572988846769       -3.66295925616762       -0.72078749363194
C            3.50855676764279       -4.36838448991279       -0.47049436842455
C            4.28766560174088       -4.04897381425401        0.63019157932434
C            3.90478550500510       -3.03042901434329        1.48470276524034
C            2.74755077043229       -2.30303618100353        1.23377377150172
N            2.35703498310980       -1.26577136122369        2.09245227561439
C            3.09448020643093       -0.12454258307482        2.34640911485154
C            4.43485564874406        0.13235099654569        2.10445222335763
C            4.94161652194491        1.35103626014450        2.51453759696403
C            4.13123050570956        2.31085050964836        3.11411611011875
C            2.78569427590121        2.07484195963236        3.32277467556723
C            2.26215649465483        0.84549834148850        2.95140039931834
C            0.95601130262016        0.25469027019974        3.06317311820122
C           -0.26943203659709        0.71456438423818        3.52356479827895
C           -1.35286735131187       -0.14339095834305        3.49208525102975
C           -1.21225419843209       -1.45853959971998        3.05658355113640
C           -0.00004875798632       -1.94058013219514        2.59881776797437
C            1.07002001067993       -1.05733874177637        2.55309478176131
N            0.84693996796845       -0.51784634880220       -0.06678329375383
C           -1.25862714105528        2.35813957117956        0.51187212902864
H           -2.00636644021890        4.28218368956840        1.04393974337789
H           -0.17134400578573        5.49535870037967       -0.09297950794419
H            1.59510617099800        4.23642989526669       -1.26105920155157
H            3.30335485720860        3.39026805691816        0.20963776757737
H            5.75908463569393        3.25996032558137        0.30406871941021
H            6.98077821626829        1.50399522371736       -0.89082478533113
H            5.77283908121968       -0.16382018060040       -2.26072119160717
H            3.87016164639667       -1.62594892864105       -3.62032313303720
H            1.78008520777474       -2.44883218521763       -4.65516186573303
H           -0.34750122792900       -1.29944610549141       -4.26071031150206
H           -0.47734089935552        0.66188543568509       -2.77276827074449
H           -1.88552776295956       -4.37866379420129       -0.44640141814337
H           -4.04653061305356       -5.57889955558510       -0.40977862778263
H           -6.16574581540366       -4.30344147822867       -0.33676517212202
H           -6.10801394199758       -1.83137124404597       -0.37409302338924
H           -3.01471118048612       -0.99853960739751       -3.02509695721336
H           -2.53126580352551        0.74634301191512       -4.71870071899204
H           -2.88430096362923        3.11426500900933       -4.21825974581795
H           -3.77697178175271        3.82829352402694       -2.02679290461667
H           -4.83279181775500        3.90622786024192        0.55163948090613
H           -5.61996915068331        3.33783895993033        2.82566887697913
H           -5.64869900435105        1.01788053921341        3.60253588344932
H           -4.90793100806736       -0.82787053912792        2.12484287491440
H            1.72640476143551       -3.89406895085195       -1.57353927842355
H            3.80695922540393       -5.16843555939626       -1.13085922392489
H            5.19158713735734       -4.60381405953514        0.83325103345607
H            4.48915641265914       -2.80446706449114        2.36421029755379
H            5.06625946276748       -0.58981297083688        1.61064134437437
H            5.99019620262449        1.56026740526440        2.36664515695712
H            4.56331491778517        3.25328182629171        3.41695834016193
H            2.15338575827379        2.82311024725284        3.77691980169713
H           -0.37304849797339        1.72545117463103        3.88834305925994
H           -2.32186831874168        0.20341415167275        3.82010578945180
H           -2.06795751787073       -2.11762879179188        3.07050399540883
H            0.10157392893802       -2.96380591037895        2.26903583093040
H           -2.03808144566072        1.81199841607584        1.01874237330440

 projected vibrational frequencies (cm⁻¹)
eigval :       -0.00    -0.00     0.00     0.00     0.00     0.00
eigval :        7.78    10.48    18.57    19.38    21.27    33.95
eigval :       38.73    44.59    49.46    55.21    57.48    62.02
eigval :       64.61    70.90    82.20    89.19    99.93   106.96
eigval :      109.77   128.48   132.23   136.63   143.35   148.60
eigval :      150.28   156.26   167.37   175.16   184.55   192.36
eigval :      214.40   223.91   228.17   235.85   258.12   264.48
eigval :      269.72   269.90   274.62   278.82   283.09   285.27
eigval :      308.73   332.71   348.33   355.46   384.00   390.36
eigval :      392.64   398.27   400.25   403.41   409.19   419.58
eigval :      422.13   425.07   427.81   433.79   434.83   436.64
eigval :      447.51   452.92   474.69   478.54   498.79   516.73
eigval :      518.34   518.43   535.78   536.27   538.41   540.84
eigval :      542.81   550.11   560.82   567.07   567.31   579.83
eigval :      580.98   584.18   586.72   597.60   602.64   605.40
eigval :      609.12   609.87   611.29   613.13   645.81   669.86
eigval :      673.06   673.79   674.74   681.92   697.43   704.38
eigval :      705.94   708.11   710.55   712.85   715.06   721.77
eigval :      755.25   756.67   756.95   763.38   768.17   769.01
eigval :      772.10   777.91   778.77   779.85   783.08   784.28
eigval :      807.50   813.47   860.14   865.27   866.57   866.99
eigval :      868.86   872.79   874.27   879.80   884.81   890.38
eigval :      894.69   896.15   897.94   900.13   900.25   900.81
eigval :      901.93   902.78   903.26   904.62   915.13   915.44
eigval :      917.62   918.26   920.06   921.07   921.31   922.62
eigval :      923.02   923.35   925.56   926.39   928.50   933.20
eigval :      959.73  1011.38  1011.62  1012.15  1026.16  1063.98
eigval :     1068.50  1069.63  1070.15  1072.19  1072.69  1076.06
eigval :     1079.49  1084.06  1086.40  1087.21  1109.76  1123.65
eigval :     1131.74  1141.40  1142.77  1148.68  1149.32  1149.59
eigval :     1171.37  1173.11  1173.71  1174.17  1175.59  1176.58
eigval :     1179.28  1180.35  1181.16  1183.08  1188.82  1195.09
eigval :     1198.62  1228.54  1232.11  1232.73  1234.41  1235.20
eigval :     1236.08  1243.08  1245.83  1246.54  1268.26  1291.58
eigval :     1292.91  1293.56  1295.90  1296.67  1296.95  1306.87
eigval :     1313.53  1324.58  1330.23  1346.52  1348.71  1350.69
eigval :     1353.29  1353.74  1354.93  1361.45  1361.97  1363.08
eigval :     1369.47  1400.09  1414.44  1418.20  1420.03  1421.72
eigval :     1422.23  1422.91  1425.74  1437.81  1446.38  1452.27
eigval :     1464.83  1466.48  1468.05  1469.99  1481.75  1484.40
eigval :     1485.81  1486.14  1494.77  1512.06  1545.91  1560.87
eigval :     1564.61  1568.45  1570.46  1572.66  1576.90  1583.40
eigval :     1583.94  1586.67  1587.70  1588.36  1589.36  1591.90
eigval :     1605.29  1607.64  1609.95  3070.23  3075.28  3075.43
eigval :     3076.36  3076.52  3077.11  3077.43  3078.90  3079.86
eigval :     3080.74  3081.30  3081.89  3082.58  3083.81  3083.99
eigval :     3085.43  3087.14  3088.58  3089.11  3089.57  3090.05
eigval :     3091.22  3091.38  3091.75  3094.44  3094.80  3095.31
eigval :     3095.47  3095.70  3096.41  3096.86  3099.31  3100.26
eigval :     3103.83  3106.88  3110.97

   temp. (K)  partition function   enthalpy   heat capacity  entropy
                                   cal/mol     cal/K/mol   cal/K/mol   J/K/mol
 298.15  VIB  0.469E+22            28559.574    184.068    176.680
         ROT  0.776E+08              888.752      2.981     39.084
         INT  0.364E+30            29448.326    187.049    215.764
         TR   0.221E+29             1481.254      4.968     45.914
         TOT                       30929.5802   192.0171   261.6781  1094.8610

       T/K    H(0)-H(T)+PV         H(T)/Eh          T*S/Eh         G(T)/Eh
   ------------------------------------------------------------------------
    298.15    0.492894E-01    0.797608E+00    0.124332E+00    0.673276E+00
   ------------------------------------------------------------------------

         :::::::::::::::::::::::::::::::::::::::::::::::::::::
         ::                  THERMODYNAMIC                  ::
         :::::::::::::::::::::::::::::::::::::::::::::::::::::
         :: total free energy        -157.358455142581 Eh   ::
         ::.................................................::
         :: total energy             -158.031731486367 Eh   ::
         :: zero point energy           0.748318606776 Eh   ::
         :: G(RRHO) w/o ZPVE           -0.075042262990 Eh   ::
         :: G(RRHO) contrib.            0.673276343786 Eh   ::
         :::::::::::::::::::::::::::::::::::::::::::::::::::::

           -------------------------------------------------
          | TOTAL ENERGY             -158.031731486367 Eh   |
          | TOTAL ENTHALPY           -157.234123456163 Eh   |
          | TOTAL FREE ENERGY        -157.358455142581 Eh   |
          | GRADIENT NORM               0.000118230827 Eh/α |
           -------------------------------------------------

 * finished run on 2025/09/14 at 12:51:24.031
