   * xtb version 6.7.1 (edcfbbe) compiled by 'albert@albert-system' on 2024-07-22

   ID    Z sym.   atoms
    1    6 C      1-4, 6-19, 21-27, 29-40, 42-48, 50-61, 63
    2    7 N      5, 20, 28, 41, 49, 62
    3    1 H      64-99

          program call               : xtb data2507/gas/TrisCz-Trz/TrisCz-Trz.xyz --gfn 2 --ohess vtight --parallel 40 --molden --ceasefiles --namespace data2507/gas/TrisCz-Trz/TrisCz-Trz_gas_S0_preOpt
          :  Hamiltonian                  GFN2-xTB          :
 * total energy  :  -158.0645674 Eh     change       -0.5129351E-08 Eh
 * total energy  :  -158.0844302 Eh     change       -0.1986281E-01 Eh
 * total energy  :  -158.0899788 Eh     change       -0.5548607E-02 Eh
 * total energy  :  -158.0917261 Eh     change       -0.1747323E-02 Eh
 * total energy  :  -158.0930294 Eh     change       -0.1303280E-02 Eh
 * total energy  :  -158.0938128 Eh     change       -0.7833831E-03 Eh
 * total energy  :  -158.0944846 Eh     change       -0.6718749E-03 Eh
 * total energy  :  -158.0951631 Eh     change       -0.6784163E-03 Eh
 * total energy  :  -158.0958114 Eh     change       -0.6483866E-03 Eh
 * total energy  :  -158.0963829 Eh     change       -0.5714247E-03 Eh
 * total energy  :  -158.1019911 Eh     change       -0.7447039E-06 Eh
 * total energy  :  -158.1019917 Eh     change       -0.6359666E-06 Eh
 * total energy  :  -158.1019923 Eh     change       -0.5419866E-06 Eh
 * total energy  :  -158.1019928 Eh     change       -0.4893077E-06 Eh
 * total energy  :  -158.1019933 Eh     change       -0.5348295E-06 Eh
 * total energy  :  -158.1019940 Eh     change       -0.6710238E-06 Eh
 * total energy  :  -158.1019949 Eh     change       -0.9018232E-06 Eh
 * total energy  :  -158.1019961 Eh     change       -0.1232520E-05 Eh
 * total energy  :  -158.1019961 Eh     change       -0.2394813E-08 Eh
   *** GEOMETRY OPTIMIZATION CONVERGED AFTER 152 ITERATIONS ***

 final structure:
================
99
 xtb: 6.7.1 (edcfbbe)
C           -1.57833008445750        1.12880006552113        3.48837800673079
C           -0.70627045758331        2.17150407326842        3.76120442044150
C            0.27775040666013        2.50953525210319        2.85194987969198
C            0.41852601268891        1.80936242953543        1.65560417405752
N            1.43981328909262        2.17969379589788        0.77408859824649
C            2.77691410281484        2.27783317887840        1.11382979734399
C            3.39147251263245        2.14533092831870        2.34989414358922
C            4.75570041485827        2.35189850736860        2.41876729903160
C            5.50521138368932        2.65463194200399        1.28486956277318
C            4.90778496608919        2.73650784564125        0.04353794150952
C            3.53496013489653        2.55171820577266       -0.04709883439722
C            2.60408665050083        2.61496713506855       -1.13822456762453
C            2.74192710732750        2.84835255541695       -2.49999892651431
C            1.60556336184187        2.89233891746727       -3.28207661521610
C            0.34159973076110        2.74134658864477       -2.71542159191973
C            0.18070892992201        2.50925409582328       -1.36384404022565
C            1.32262930664736        2.40420792778079       -0.58244831507900
C           -0.47628364145002        0.76584501406518        1.37285531186925
C           -0.43785715570005        0.01125349962092        0.12183196702018
N           -1.59019947819749       -0.49165779941327       -0.30810574838971
C           -1.58745828401667       -0.98756397732172       -1.53629957177962
C           -2.82357183316680       -1.57516565484095       -2.05830002353091
C           -2.72976236638245       -2.46805331793561       -3.12542012545877
C           -3.84003908629167       -3.14731688687165       -3.58454869054246
C           -5.07048530907673       -2.94594544169073       -2.97734029030447
C           -5.18796619112244       -2.04372909512640       -1.93690551348343
C           -4.07813038793882       -1.34320378715744       -1.47332546745573
N           -4.25540324689800       -0.40661246506784       -0.44814946430395
C           -3.91592266498673        0.92777010740494       -0.50636296598079
C           -3.44608644662083        1.66930318571424       -1.57990401468848
C           -3.22299479623697        3.01873743590732       -1.38086689942053
C           -3.45412819257276        3.61985277179571       -0.14475882832827
C           -3.94057203692499        2.88944746773241        0.92070272367292
C           -4.18811284778210        1.53541841861168        0.74021107714441
C           -4.71221356465437        0.50303496031472        1.58948096725888
C           -5.14320138571582        0.47562496412906        2.90894682284492
C           -5.57741884601155       -0.72354925678437        3.43861433357470
C           -5.57643877828709       -1.88775165788458        2.67311833608088
C           -5.15511511661463       -1.88544363553324        1.35680955528607
C           -4.73407261240069       -0.68002431968774        0.81500241765956
N           -0.50719130010649       -1.03795701426902       -2.31581247778740
C            0.62711377614116       -0.69746750698064       -1.72175412504164
C            1.88462344797150       -0.93878759466102       -2.43960644372367
C            1.99794696877797       -0.57767327361736       -3.77483873449139
C            3.19605369647485       -0.74470649385277       -4.44393184117061
C            4.28106191727285       -1.30098864505395       -3.78564791908534
C            4.16879385681801       -1.70108723974413       -2.46626510135529
C            2.97495474900601       -1.51924908730772       -1.77713609317999
N            2.84807435591778       -1.93755322035274       -0.44742266121032
C            3.63046184204271       -1.50905402422300        0.61020792591882
C            4.83746303509289       -0.82769625586267        0.60051819118340
C            5.44887177387012       -0.58108344000897        1.81463850082565
C            4.86153643417921       -0.96489021043186        3.01715517466310
C            3.63765599787604       -1.60225937796037        3.03589668318423
C            3.01866922157161       -1.88766092295045        1.82661372255095
C            1.80180156743683       -2.56853984080662        1.48140618334098
C            0.77810499572158       -3.14120538406432        2.22466038173395
C           -0.26291010047344       -3.75421275695618        1.55618734192398
C           -0.26764869987806       -3.84258472044452        0.16579788532220
C            0.74317162099352       -3.28567781640109       -0.59382715813016
C            1.75215020073735       -2.60146738466197        0.07078771202235
N            0.71079784689628       -0.14463508153498       -0.51944296970737
C           -1.46651299032550        0.44209381356340        2.29749440172901
H           -2.34715751966256        0.85761396693327        4.19531321638233
H           -0.79664044475072        2.72946378918067        4.68164829032086
H            0.94029213195886        3.33870742255451        3.05120416711592
H            2.82860086362000        1.88534088244122        3.23308820672554
H            5.25154152488800        2.27635990468593        3.37509724742476
H            6.56860847910720        2.81775826709979        1.38137231607418
H            5.48918595724878        2.95165158807196       -0.84070484172524
H            3.71980411209016        2.99370595076265       -2.93408822013102
H            1.69109404123696        3.06227210738350       -4.34532007312016
H           -0.53313120602191        2.80699134288272       -3.34623484251099
H           -0.80417416402642        2.40387607325305       -0.93191960827640
H           -1.75876289854519       -2.62394113621584       -3.56929291310617
H           -3.74830087946957       -3.83983735418038       -4.40743007204888
H           -5.94160930937326       -3.48205358676344       -3.32346497321637
H           -6.14822006401536       -1.85948780394088       -1.47762994393076
H           -3.25677196200286        1.20715550856106       -2.53827859416125
H           -2.85865291252801        3.62299399624991       -2.19897580422177
H           -3.25290673920068        4.67442820618771       -0.02759784476821
H           -4.13058775032611        3.35856806771264        1.87432819901362
H           -5.13488281023031        1.37631881807011        3.50449135347581
H           -5.91884181150204       -0.76660601311457        4.46241866035850
H           -5.91152740777691       -2.81270803265135        3.11920512573328
H           -5.14640338971659       -2.79377648161201        0.77270905935396
H            1.14116075124906       -0.14431668321401       -4.26700107277682
H            3.28383274699004       -0.44601565229831       -5.47737392827676
H            5.21648869979341       -1.44039582074362       -4.30715542552064
H            5.00024218944239       -2.17435941516199       -1.96612254445479
H            5.29014203210849       -0.49638615845148       -0.32099327061824
H            6.40487144365173       -0.08029284257871        1.82964073137369
H            5.37192480162067       -0.75478721412131        3.94538688908225
H            3.17313258986804       -1.88880225746350        3.96769317997466
H            0.79773809084340       -3.10214881638061        3.30344997496094
H           -1.07919687205255       -4.18816132020712        2.11441195521947
H           -1.07811000933917       -4.35680096750661       -0.33080648848191
H            0.74032466455140       -3.37438913410053       -1.67064388202807
H           -2.13476568323223       -0.37115269713701        2.06360035005729

          :  Hamiltonian                  GFN2-xTB          :
         :: gradient norm              0.000043710605 Eh/a0 ::
         :: HOMO-LUMO gap              1.857702173836 eV    ::
         :: SCC energy              -161.040246142237 Eh    ::
         :: -> dispersion             -0.180798017391 Eh    ::
         :: repulsion energy           2.938250047084 Eh    ::

    * Orbital Energies and Occupations

         #    Occupation            Energy/Eh            Energy/eV
      -------------------------------------------------------------
         1        2.0000           -0.6869634             -18.6932
       ...           ...                  ...                  ...
       135        2.0000           -0.4088499             -11.1254
       136        2.0000           -0.4075770             -11.0907
       137        2.0000           -0.4019249             -10.9369
       138        2.0000           -0.3991350             -10.8610
       139        2.0000           -0.3975282             -10.8173
       140        2.0000           -0.3779354             -10.2841
       141        2.0000           -0.3767805             -10.2527
       142        2.0000           -0.3737900             -10.1713
       143        2.0000           -0.3721494             -10.1267
       144        2.0000           -0.3694556             -10.0534
       145        2.0000           -0.3598817              -9.7929
       146        2.0000           -0.3585066              -9.7555
       147        2.0000           -0.3569189              -9.7123 (HOMO)
       148                         -0.2886496              -7.8546 (LUMO)
       149                         -0.2816141              -7.6631
       150                         -0.2470127              -6.7216
       151                         -0.2435697              -6.6279
       152                         -0.2430537              -6.6138
       153                         -0.2387037              -6.4955
       154                         -0.2378785              -6.4730
       155                         -0.2336882              -6.3590
       156                         -0.2322170              -6.3189
       157                         -0.2187762              -5.9532
       158                         -0.2167839              -5.8990
       ...                                ...                  ...
       288                          0.7528149              20.4851
      -------------------------------------------------------------
                  HL-Gap            0.0682693 Eh            1.8577 eV

     #   Z          covCN         q      C6AA      α(0)
     1   6 C        2.917    -0.030    28.752     8.793
     2   6 C        2.919    -0.024    28.596     8.769
     3   6 C        2.924    -0.042    29.054     8.839
     4   6 C        2.912     0.072    26.382     8.422
     5   7 N        2.801    -0.032    21.869     6.946
     6   6 C        3.078     0.050    26.785     8.485
     7   6 C        2.910    -0.049    29.209     8.862
     8   6 C        2.925    -0.031    28.778     8.797
     9   6 C        2.920    -0.040    28.994     8.830
    10   6 C        2.913    -0.033    28.818     8.803
    11   6 C        3.070    -0.015    28.303     8.723
    12   6 C        3.068    -0.015    28.310     8.725
    13   6 C        2.913    -0.034    28.849     8.808
    14   6 C        2.920    -0.042    29.037     8.837
    15   6 C        2.924    -0.033    28.830     8.805
    16   6 C        2.910    -0.047    29.156     8.854
    17   6 C        3.079     0.055    26.683     8.469
    18   6 C        2.984    -0.012    28.303     8.727
    19   6 C        2.997     0.214    23.480     7.949
    20   7 N        1.847    -0.297    28.543     7.918
    21   6 C        2.998     0.210    23.557     7.962
    22   6 C        2.982    -0.009    28.248     8.718
    23   6 C        2.927    -0.023    28.589     8.769
    24   6 C        2.917    -0.031    28.776     8.797
    25   6 C        2.919    -0.024    28.599     8.770
    26   6 C        2.923    -0.041    29.015     8.833
    27   6 C        2.913     0.073    26.373     8.421
    28   7 N        2.804    -0.030    21.818     6.937
    29   6 C        3.081     0.054    26.700     8.471
    30   6 C        2.910    -0.046    29.154     8.854
    31   6 C        2.924    -0.032    28.792     8.799
    32   6 C        2.920    -0.042    29.039     8.837
    33   6 C        2.913    -0.033    28.830     8.805
    34   6 C        3.069    -0.015    28.305     8.724
    35   6 C        3.070    -0.015    28.302     8.723
    36   6 C        2.912    -0.033    28.818     8.803
    37   6 C        2.920    -0.042    29.042     8.837
    38   6 C        2.924    -0.034    28.836     8.806
    39   6 C        2.910    -0.050    29.233     8.866
    40   6 C        3.080     0.051    26.778     8.484
    41   7 N        1.845    -0.299    28.610     7.927
    42   6 C        3.004     0.217    23.415     7.938
    43   6 C        2.988    -0.010    28.247     8.718
    44   6 C        2.924    -0.021    28.537     8.760
    45   6 C        2.918    -0.031    28.785     8.798
    46   6 C        2.919    -0.026    28.642     8.776
    47   6 C        2.922    -0.042    29.044     8.838
    48   6 C        2.916     0.073    26.375     8.422
    49   7 N        2.800    -0.041    22.024     6.970
    50   6 C        3.075     0.053    26.741     8.478
    51   6 C        2.910    -0.048    29.199     8.861
    52   6 C        2.925    -0.031    28.778     8.797
    53   6 C        2.920    -0.040    28.993     8.830
    54   6 C        2.913    -0.033    28.825     8.804
    55   6 C        3.071    -0.015    28.310     8.724
    56   6 C        3.065    -0.016    28.334     8.728
    57   6 C        2.913    -0.034    28.837     8.806
    58   6 C        2.920    -0.041    29.016     8.833
    59   6 C        2.924    -0.033    28.827     8.805
    60   6 C        2.910    -0.050    29.235     8.866
    61   6 C        3.080     0.052    26.759     8.481
    62   7 N        1.845    -0.297    28.544     7.918
    63   6 C        2.928    -0.020    28.501     8.755
    64   1 H        0.926     0.044     2.392     2.418
    65   1 H        0.926     0.043     2.408     2.426
    66   1 H        0.926     0.048     2.348     2.396
    67   1 H        0.926     0.028     2.614     2.528
    68   1 H        0.926     0.030     2.581     2.512
    69   1 H        0.926     0.028     2.620     2.531
    70   1 H        0.926     0.030     2.589     2.516
    71   1 H        0.926     0.030     2.593     2.518
    72   1 H        0.926     0.027     2.628     2.535
    73   1 H        0.926     0.026     2.644     2.543
    74   1 H        0.926     0.019     2.747     2.592
    75   1 H        0.926     0.062     2.176     2.307
    76   1 H        0.926     0.043     2.407     2.426
    77   1 H        0.926     0.043     2.403     2.424
    78   1 H        0.926     0.047     2.356     2.400
    79   1 H        0.926     0.020     2.739     2.588
    80   1 H        0.926     0.030     2.590     2.517
    81   1 H        0.926     0.027     2.624     2.533
    82   1 H        0.926     0.029     2.597     2.520
    83   1 H        0.926     0.029     2.597     2.520
    84   1 H        0.926     0.027     2.629     2.535
    85   1 H        0.926     0.029     2.603     2.523
    86   1 H        0.926     0.025     2.655     2.548
    87   1 H        0.926     0.051     2.306     2.374
    88   1 H        0.926     0.043     2.413     2.429
    89   1 H        0.926     0.043     2.415     2.430
    90   1 H        0.926     0.048     2.348     2.396
    91   1 H        0.926     0.029     2.604     2.524
    92   1 H        0.926     0.031     2.567     2.505
    93   1 H        0.926     0.028     2.615     2.529
    94   1 H        0.926     0.030     2.589     2.516
    95   1 H        0.926     0.030     2.580     2.512
    96   1 H        0.926     0.028     2.618     2.530
    97   1 H        0.926     0.024     2.672     2.556
    98   1 H        0.926     0.021     2.713     2.576
    99   1 H        0.926     0.058     2.224     2.332

molecular dipole:
                 x           y           z       tot (Debye)
 q only:       -0.145      -0.247      -0.276
   full:       -0.258      -0.312      -0.415       1.473

 projected vibrational frequencies (cm⁻¹)
eigval :       -0.00    -0.00     0.00     0.00     0.00     0.00
eigval :        4.47    10.48    17.08    19.44    21.98    35.28
eigval :       38.40    46.69    52.34    56.02    60.61    63.81
eigval :       67.36    75.76    82.71    90.49    94.18   107.96
eigval :      113.60   131.43   132.60   140.38   146.00   148.46
eigval :      152.66   157.72   169.09   175.79   184.13   192.72
eigval :      198.94   221.99   231.77   241.79   251.31   257.47
eigval :      271.55   274.45   276.76   280.45   283.68   296.66
eigval :      319.11   335.39   352.94   367.01   385.32   395.12
eigval :      396.16   399.85   400.80   404.25   414.05   422.95
eigval :      424.71   427.56   434.35   437.44   439.05   443.93
eigval :      454.38   459.01   478.59   493.11   503.14   518.95
eigval :      519.45   520.22   535.84   541.55   541.66   542.79
eigval :      543.65   546.37   568.14   582.58   582.91   587.00
eigval :      597.45   601.57   602.48   606.90   609.06   613.75
eigval :      617.40   619.01   633.64   638.81   654.39   672.93
eigval :      673.41   675.68   699.47   706.23   707.00   707.60
eigval :      714.19   718.22   719.90   722.06   724.43   757.17
eigval :      757.43   758.43   767.63   770.23   772.45   773.77
eigval :      780.42   781.22   782.38   787.47   790.79   795.25
eigval :      842.58   846.11   866.48   868.30   869.05   870.83
eigval :      876.01   876.74   887.37   889.59   891.99   896.63
eigval :      898.05   898.82   900.80   901.17   902.60   903.48
eigval :      904.11   904.88   915.93   919.92   920.65   922.92
eigval :      923.64   923.94   924.57   925.73   925.86   926.34
eigval :      927.87   928.33   930.90   931.25   934.22  1011.88
eigval :     1012.18  1012.88  1021.85  1063.13  1068.58  1070.78
eigval :     1071.90  1072.50  1074.16  1075.78  1086.99  1088.69
eigval :     1090.27  1091.71  1093.13  1118.13  1132.79  1134.54
eigval :     1148.00  1150.72  1152.88  1154.17  1174.91  1175.39
eigval :     1175.82  1176.56  1177.16  1179.13  1180.13  1181.73
eigval :     1182.67  1187.79  1190.74  1196.89  1201.63  1203.48
eigval :     1215.00  1235.00  1236.73  1236.89  1237.99  1239.20
eigval :     1242.81  1246.98  1248.70  1248.75  1299.93  1300.00
eigval :     1300.30  1302.20  1304.26  1306.95  1313.03  1315.50
eigval :     1316.59  1354.47  1355.91  1357.50  1360.70  1361.34
eigval :     1361.63  1361.95  1362.77  1363.38  1368.49  1373.35
eigval :     1380.51  1420.46  1422.73  1424.19  1428.45  1429.00
eigval :     1429.49  1442.98  1446.58  1450.66  1466.48  1471.22
eigval :     1475.10  1476.28  1477.38  1482.74  1488.65  1488.96
eigval :     1489.68  1516.34  1527.46  1564.89  1566.84  1569.80
eigval :     1574.56  1575.90  1576.47  1587.53  1589.81  1590.25
eigval :     1591.13  1591.19  1591.94  1599.08  1599.25  1599.61
eigval :     1615.36  1615.85  1615.99  3070.85  3070.90  3072.33
eigval :     3073.87  3074.04  3076.25  3077.69  3078.57  3078.72
eigval :     3078.84  3079.70  3081.02  3081.27  3081.43  3084.04
eigval :     3084.43  3085.43  3085.76  3086.56  3088.52  3089.04
eigval :     3090.31  3091.57  3092.12  3092.55  3093.13  3093.89
eigval :     3094.93  3096.29  3096.79  3097.52  3098.15  3101.11
eigval :     3104.46  3106.55  3114.19

   temp. (K)  partition function   enthalpy   heat capacity  entropy
                                   cal/mol     cal/K/mol   cal/K/mol   J/K/mol
 298.15  VIB  0.479E+22            28249.413    182.110    175.533
         ROT  0.809E+08              888.752      2.981     39.166
         INT  0.388E+30            29138.165    185.091    214.700
         TR   0.221E+29             1481.254      4.968     45.914
         TOT                       30619.4191   190.0587   260.6134  1090.4066

       T/K    H(0)-H(T)+PV         H(T)/Eh          T*S/Eh         G(T)/Eh
   ------------------------------------------------------------------------
    298.15    0.487952E-01    0.801928E+00    0.123826E+00    0.678102E+00
   ------------------------------------------------------------------------

         :::::::::::::::::::::::::::::::::::::::::::::::::::::
         ::                  THERMODYNAMIC                  ::
         :::::::::::::::::::::::::::::::::::::::::::::::::::::
         :: total free energy        -157.423893689506 Eh   ::
         ::.................................................::
         :: total energy             -158.101996095152 Eh   ::
         :: zero point energy           0.753133110246 Eh   ::
         :: G(RRHO) w/o ZPVE           -0.075030704599 Eh   ::
         :: G(RRHO) contrib.            0.678102405646 Eh   ::
         :::::::::::::::::::::::::::::::::::::::::::::::::::::

           -------------------------------------------------
          | TOTAL ENERGY             -158.101996095152 Eh   |
          | TOTAL ENTHALPY           -157.300067834644 Eh   |
          | TOTAL FREE ENERGY        -157.423893689506 Eh   |
          | GRADIENT NORM               0.000043707009 Eh/α |
          | HOMO-LUMO GAP               1.857702945204 eV   |
           -------------------------------------------------

 * finished run on 2025/09/14 at 12:43:29.556
