   * xtb version 6.7.1 (edcfbbe) compiled by 'albert@albert-system' on 2024-07-22

   ID    Z sym.   atoms
    1    6 C      1-4, 6-19, 21-27, 29-40, 42-48, 50-61, 63
    2    7 N      5, 20, 28, 41, 49, 62
    3    1 H      64-99

          program call               : xtb data2507/gas/TrisCz-Trz/TrisCz-Trz_gas_T1_crest.xyz --gfn 2 --spinpol --tblite --uhf 2 --ohess vtight --parallel 40 --molden --ceasefiles --namespace data2507/gas/TrisCz-Trz/TrisCz-Trz_gas_T1_finalOpt
 * total energy  :  -158.0316330 Eh     change        0.3892694E-08 Eh
 * total energy  :  -158.0316740 Eh     change       -0.4095196E-04 Eh
 * total energy  :  -158.0316935 Eh     change       -0.1954666E-04 Eh
 * total energy  :  -158.0316958 Eh     change       -0.2288942E-05 Eh
 * total energy  :  -158.0316987 Eh     change       -0.2923057E-05 Eh
 * total energy  :  -158.0317009 Eh     change       -0.2165755E-05 Eh
 * total energy  :  -158.0317032 Eh     change       -0.2353995E-05 Eh
 * total energy  :  -158.0317049 Eh     change       -0.1705454E-05 Eh
 * total energy  :  -158.0317068 Eh     change       -0.1880822E-05 Eh
 * total energy  :  -158.0317083 Eh     change       -0.1508191E-05 Eh
 * total energy  :  -158.0317295 Eh     change       -0.6119321E-06 Eh
 * total energy  :  -158.0317301 Eh     change       -0.5981943E-06 Eh
 * total energy  :  -158.0317307 Eh     change       -0.5756552E-06 Eh
 * total energy  :  -158.0317312 Eh     change       -0.5422846E-06 Eh
 * total energy  :  -158.0317318 Eh     change       -0.5489162E-06 Eh
 * total energy  :  -158.0317324 Eh     change       -0.6087958E-06 Eh
 * total energy  :  -158.0317330 Eh     change       -0.6218733E-06 Eh
 * total energy  :  -158.0317335 Eh     change       -0.5344551E-06 Eh
 * total energy  :  -158.0317335 Eh     change       -0.1958551E-07 Eh
   *** GEOMETRY OPTIMIZATION CONVERGED AFTER 44 ITERATIONS ***

 final structure:
================
99
 xtb: 6.7.1 (edcfbbe)
C           -1.27336711908600        3.73439866099565        0.44742500638749
C           -0.27805325177650        4.40566679242581       -0.24972354798725
C            0.70808563785472        3.69203116397207       -0.90817757105953
C            0.71812060709920        2.30366853720374       -0.87531481126401
N            1.72359318767575        1.59469017051017       -1.54527014902890
C            3.07837058482377        1.73792676258301       -1.33393841070490
C            3.76280053429528        2.69044270082595       -0.59299544016256
C            5.14318128142074        2.63360934822562       -0.58757431472481
C            5.83307280831082        1.63521578266421       -1.27045869153099
C            5.15609259340801        0.66319293308666       -1.98241473722941
C            3.77112503486166        0.71699720717510       -2.02781806053971
C            2.77317040928080       -0.07365020609646       -2.69446846825384
C            2.82484671209418       -1.19543190292490       -3.50923351639921
C            1.64288016120642       -1.69298659937966       -4.02519027332017
C            0.42675024049705       -1.06605263636141       -3.76472388553494
C            0.35051630942903        0.05357699672028       -2.95850320483929
C            1.52770887822224        0.51928051048522       -2.38916249484405
C           -0.29618846474007        1.62045612260206       -0.17772090272219
C           -0.33250538487439        0.17348754558032       -0.12941250461233
N           -1.47906668940144       -0.44922950107293       -0.10944851677841
C           -1.52435789507090       -1.78434829834530       -0.20081382270930
C           -2.76861096434580       -2.46820041466341       -0.17496358880267
C           -2.81541138632045       -3.87495517911400       -0.11262000244601
C           -4.00946695615397       -4.54016911053378        0.01740210313692
C           -5.20793309275232       -3.83382605794662        0.09121706551879
C           -5.19130623484208       -2.45070826324278        0.00380392209047
C           -3.99890350718785       -1.76505795875325       -0.14579632643819
N           -4.02663283001815       -0.36474387666446       -0.27598489977694
C           -3.73515628961632        0.34106906119170       -1.42387465124421
C           -3.29545197779793       -0.12927480052974       -2.65131170858317
C           -3.06843849797893        0.80089072000839       -3.64964276239441
C           -3.27472584792564        2.16141611131177       -3.43410702468269
C           -3.73312161996887        2.63113619644253       -2.21681881106020
C           -3.97589211711582        1.71664885251897       -1.20319658697082
C           -4.45640247721028        1.83089283073549        0.14824065584507
C           -4.85950869949766        2.89504085085395        0.94055928569041
C           -5.25077237397330        2.63975210429556        2.24264460550662
C           -5.24169819257601        1.34438117014778        2.75871140491529
C           -4.85251054949210        0.26609797504761        1.98822061947623
C           -4.46742216726959        0.51567668461264        0.67690632505878
N           -0.36489230751530       -2.52524892178030       -0.25763121974017
C            0.73872942556690       -1.84679340378444       -0.12528718184601
C            1.98151910246436       -2.60699553631962        0.08836581716224
C            2.31705673645408       -3.67488839131835       -0.72974884272620
C            3.49365789599571       -4.37074584488036       -0.52045734182624
C            4.32889937249626       -4.01679199507349        0.52717583004691
C            3.98908410471194       -2.97279481934061        1.36901718459627
C            2.81813462530179       -2.25455161254767        1.15771057854351
N            2.47178699816915       -1.19100939630781        2.00295219249022
C            3.22087474331559       -0.04311824554257        2.18234699936589
C            4.54668648681146        0.20478394116371        1.86289283014674
C            5.07415190214912        1.43419176963738        2.20993620901241
C            4.29630874127027        2.41202710298682        2.82337264590950
C            2.96323961626017        2.18470365508789        3.10760968277559
C            2.42077678759627        0.94607859484891        2.79953691991476
C            1.12209555348562        0.36098148360421        2.99619500674730
C           -0.07867895409068        0.83720482216722        3.50268299302149
C           -1.16178327200690       -0.02014648225946        3.55462604694947
C           -1.04230022980622       -1.34950064354064        3.15759290989243
C            0.14531317953611       -1.84756374831173        2.65476740202305
C            1.21043727108607       -0.96689148248849        2.52341716876263
N            0.83563659170226       -0.51770693654934       -0.09819591277697
C           -1.28214402120872        2.35668660750056        0.47781378193453
H           -2.04026744750449        4.28738944425358        0.96833017425163
H           -0.27199816382191        5.48474657421599       -0.28613240847643
H            1.46805798864952        4.20922554100304       -1.47530227562691
H            3.23826852433120        3.44912987489335       -0.03348393761930
H            5.69832857757253        3.38144253627847       -0.04154402632170
H            6.91261748799022        1.62207821232450       -1.23896493107535
H            5.69063045536608       -0.11663336301242       -2.50405722395148
H            3.76981856254449       -1.66752601995069       -3.73287546711855
H            1.65992107451720       -2.57175418850108       -4.65297531880491
H           -0.47775048372734       -1.46188666869983       -4.20272923553311
H           -0.59471730765377        0.54058639941188       -2.76978721222546
H           -1.87791157214280       -4.40684452199554       -0.14982275580234
H           -4.02134094232728       -5.61891226868455        0.07168069310614
H           -6.14533452724005       -4.35621059729770        0.20228984475389
H           -6.11501025188430       -1.88939844677156        0.03234013100553
H           -3.12823054483477       -1.18351699953999       -2.81316442886837
H           -2.72011106199878        0.46762731379640       -4.61636973012237
H           -3.07587622532078        2.85719413081583       -4.23570077563896
H           -3.89842023161910        3.68584734506269       -2.05701052150742
H           -4.86439799194256        3.90039669837997        0.54703851899348
H           -5.56649654810550        3.45563201671963        2.87594005308883
H           -5.54631615050150        1.18300739675631        3.78230686915991
H           -4.84138311970539       -0.73763876759098        2.38548326159621
H            1.65354033935792       -3.93333098349625       -1.54036658383522
H            3.75876488682893       -5.19039878757300       -1.17089873355149
H            5.24368124016641       -4.56430371323715        0.69914663738165
H            4.61855811509767       -2.71946384242800        2.20904516084231
H            5.15156492827577       -0.53260232149732        1.35849029131120
H            6.11341999606535        1.63768688686675        2.00089011442361
H            4.74383898345961        3.36186531531263        3.07648568063834
H            2.35547934132798        2.94688264470507        3.57202736629185
H           -0.16425834019707        1.85976239116168        3.83843026377843
H           -2.11322237977777        0.33844348302353        3.91935256803671
H           -1.89553015063547       -2.00711377259762        3.23762886685906
H            0.23095508217846       -2.88151828629490        2.35532979053195
H           -2.03193345632379        1.81813280833048        1.03505016854610

 projected vibrational frequencies (cm⁻¹)
eigval :       -0.00    -0.00    -0.00    -0.00     0.00     0.00
eigval :        8.32    11.24    18.80    19.55    21.90    33.95
eigval :       38.87    44.96    49.63    55.22    56.59    62.47
eigval :       64.90    71.69    82.49    89.50    99.36   107.35
eigval :      110.39   128.23   132.25   135.98   143.60   148.29
eigval :      150.33   156.43   167.52   176.51   184.57   192.36
eigval :      214.46   223.85   228.90   235.82   258.04   264.46
eigval :      269.05   270.19   274.64   278.93   282.94   285.22
eigval :      308.92   332.96   348.17   355.09   384.68   390.46
eigval :      392.59   398.34   399.95   403.28   408.56   419.93
eigval :      422.04   425.10   427.79   433.80   434.68   436.77
eigval :      447.38   452.70   475.06   479.16   498.69   516.76
eigval :      518.32   518.48   535.61   536.49   538.41   540.78
eigval :      542.62   549.88   560.77   566.89   567.41   579.72
eigval :      581.04   584.18   586.67   597.79   602.74   605.24
eigval :      609.10   609.98   611.12   613.14   645.76   670.11
eigval :      673.01   673.69   674.72   682.26   696.91   704.41
eigval :      705.66   707.95   710.42   712.90   715.11   721.80
eigval :      755.26   756.67   756.94   763.53   768.13   769.05
eigval :      771.87   777.83   778.90   779.77   782.97   784.20
eigval :      807.31   813.42   860.49   865.41   866.53   867.01
eigval :      869.01   873.05   874.29   882.15   884.65   890.72
eigval :      895.49   896.11   899.88   900.19   900.36   901.67
eigval :      902.02   902.92   903.18   904.07   915.17   915.53
eigval :      917.50   917.85   919.96   921.33   921.48   922.68
eigval :      922.90   923.74   925.23   926.31   927.96   935.86
eigval :      960.01  1011.35  1011.58  1012.11  1026.02  1064.06
eigval :     1068.65  1069.59  1070.04  1072.19  1072.67  1075.74
eigval :     1079.52  1084.34  1086.45  1087.30  1109.77  1123.02
eigval :     1131.80  1141.32  1142.94  1148.72  1149.23  1149.54
eigval :     1171.43  1173.12  1173.79  1174.28  1175.62  1176.64
eigval :     1179.33  1180.20  1181.08  1183.34  1188.95  1194.97
eigval :     1198.73  1228.53  1232.10  1232.77  1234.33  1235.16
eigval :     1236.04  1243.08  1245.78  1246.61  1268.21  1291.64
eigval :     1293.07  1293.53  1295.94  1296.74  1297.07  1309.35
eigval :     1313.44  1325.28  1330.14  1346.56  1348.78  1350.85
eigval :     1353.52  1353.78  1354.98  1361.39  1362.04  1363.05
eigval :     1369.18  1398.38  1414.37  1417.75  1419.76  1421.76
eigval :     1422.33  1422.95  1425.31  1437.82  1446.07  1452.18
eigval :     1464.69  1466.54  1468.06  1470.04  1481.79  1484.45
eigval :     1485.90  1486.27  1490.82  1512.36  1544.64  1561.18
eigval :     1564.52  1568.46  1570.38  1572.71  1576.80  1583.44
eigval :     1583.87  1586.49  1587.61  1588.34  1589.21  1591.91
eigval :     1605.27  1607.39  1609.92  3070.46  3075.11  3075.34
eigval :     3076.34  3076.58  3077.11  3077.44  3079.06  3079.78
eigval :     3080.75  3081.26  3081.78  3082.58  3083.80  3083.97
eigval :     3085.36  3086.96  3088.63  3089.16  3089.51  3089.96
eigval :     3091.24  3091.35  3091.73  3094.35  3094.71  3095.23
eigval :     3095.51  3095.70  3096.40  3096.90  3099.27  3100.24
eigval :     3103.90  3106.78  3110.73

   temp. (K)  partition function   enthalpy   heat capacity  entropy
                                   cal/mol     cal/K/mol   cal/K/mol   J/K/mol
 298.15  VIB  0.379E+22            28551.536    184.081    176.460
         ROT  0.779E+08              888.752      2.981     39.090
         INT  0.295E+30            29440.288    187.062    215.550
         TR   0.221E+29             1481.254      4.968     45.914
         TOT                       30921.5423   192.0297   261.4641  1093.9657

       T/K    H(0)-H(T)+PV         H(T)/Eh          T*S/Eh         G(T)/Eh
   ------------------------------------------------------------------------
    298.15    0.492766E-01    0.797612E+00    0.124230E+00    0.673382E+00
   ------------------------------------------------------------------------

         :::::::::::::::::::::::::::::::::::::::::::::::::::::
         ::                  THERMODYNAMIC                  ::
         :::::::::::::::::::::::::::::::::::::::::::::::::::::
         :: total free energy        -157.358351375602 Eh   ::
         ::.................................................::
         :: total energy             -158.031733518867 Eh   ::
         :: zero point energy           0.748335543695 Eh   ::
         :: G(RRHO) w/o ZPVE           -0.074953400430 Eh   ::
         :: G(RRHO) contrib.            0.673382143265 Eh   ::
         :::::::::::::::::::::::::::::::::::::::::::::::::::::

           -------------------------------------------------
          | TOTAL ENERGY             -158.031733518867 Eh   |
          | TOTAL ENTHALPY           -157.234121360926 Eh   |
          | TOTAL FREE ENERGY        -157.358351375602 Eh   |
          | GRADIENT NORM               0.000085441315 Eh/α |
           -------------------------------------------------

 * finished run on 2025/09/14 at 13:01:44.112
