   * xtb version 6.7.1 (edcfbbe) compiled by 'albert@albert-system' on 2024-07-22

   ID    Z sym.   atoms
    1    6 C      1-4, 6-19, 21-27, 29-40, 42-48, 50-61, 63
    2    7 N      5, 20, 28, 41, 49, 62
    3    1 H      64-99

          program call               : xtb data2507/gas/TrisCz-Trz/TrisCz-Trz_gas_S0_crest.xyz --gfn 2 --ohess vtight --parallel 40 --molden --ceasefiles --namespace data2507/gas/TrisCz-Trz/TrisCz-Trz_gas_S0_finalOpt
          :  Hamiltonian                  GFN2-xTB          :
 * total energy  :  -158.1022623 Eh     change       -0.6828202E-08 Eh
 * total energy  :  -158.1022640 Eh     change       -0.1669850E-05 Eh
 * total energy  :  -158.1022678 Eh     change       -0.3786411E-05 Eh
 * total energy  :  -158.1022691 Eh     change       -0.1312281E-05 Eh
 * total energy  :  -158.1022703 Eh     change       -0.1188986E-05 Eh
 * total energy  :  -158.1022717 Eh     change       -0.1407701E-05 Eh
 * total energy  :  -158.1022730 Eh     change       -0.1341675E-05 Eh
 * total energy  :  -158.1022742 Eh     change       -0.1128292E-05 Eh
 * total energy  :  -158.1022752 Eh     change       -0.1030499E-05 Eh
 * total energy  :  -158.1022762 Eh     change       -0.1032813E-05 Eh
 * total energy  :  -158.1022931 Eh     change       -0.2750498E-06 Eh
 * total energy  :  -158.1022934 Eh     change       -0.2869443E-06 Eh
 * total energy  :  -158.1022937 Eh     change       -0.2503840E-06 Eh
 * total energy  :  -158.1022939 Eh     change       -0.2038787E-06 Eh
 * total energy  :  -158.1022941 Eh     change       -0.2132573E-06 Eh
 * total energy  :  -158.1022944 Eh     change       -0.3085283E-06 Eh
 * total energy  :  -158.1022949 Eh     change       -0.4583021E-06 Eh
 * total energy  :  -158.1022954 Eh     change       -0.5638899E-06 Eh
 * total energy  :  -158.1022954 Eh     change       -0.1183798E-07 Eh
   *** GEOMETRY OPTIMIZATION CONVERGED AFTER 44 ITERATIONS ***

 final structure:
================
99
 xtb: 6.7.1 (edcfbbe)
C           -1.14481904477730        3.73433775908757        0.52146043332609
C           -0.13529584590794        4.42167647374217       -0.13335855362376
C            0.85077862319958        3.73091838003639       -0.81390307034755
C            0.85019939653432        2.34008973176472       -0.84095266571775
N            1.86601750196188        1.65711194472177       -1.52034876792586
C            3.21604875327794        1.76343530206289       -1.23852045478439
C            3.88669976999456        2.68649341810149       -0.45169750983507
C            5.26289578040014        2.58888180601619       -0.37260627133158
C            5.96097611487989        1.58033472282468       -1.03117517566727
C            5.29559425986386        0.63892003730492       -1.79082271233175
C            3.91562873824374        0.73247768526991       -1.90644613541174
C            2.93402346419189       -0.03078623812235       -2.62477089212496
C            3.00040456113881       -1.14873382272683       -3.44587084285417
C            1.83441726574718       -1.62351692651208       -4.01242272460861
C            0.61749361086123       -0.98007971769420       -3.79407384854347
C            0.52753087589499        0.13434417869352       -2.98358143445384
C            1.68837276787540        0.58327938486776       -2.36952736063602
C           -0.18006494773147        1.64714641969379       -0.18894752468734
C           -0.23867634857021        0.18576767304886       -0.18248919271632
N           -1.43750880157521       -0.38137769033839       -0.20638846419911
C           -1.45445196777859       -1.69554443733649       -0.38439441760391
C           -2.74153984925784       -2.39249785729371       -0.41877985318379
C           -2.73596605158566       -3.78847390704443       -0.40276267965779
C           -3.90923894680803       -4.50643514448875       -0.29852580182324
C           -5.11975242405177       -3.83731817563818       -0.19298487542493
C           -5.14795297039945       -2.45635694038091       -0.22880924714253
C           -3.97297201724993       -1.72105911741701       -0.35887663585314
N           -4.06998550124241       -0.32596035280063       -0.43287210750093
C           -3.65464260535223        0.45878800555469       -1.48560611777773
C           -3.13865052907929        0.07735632658226       -2.71444116657891
C           -2.82355193649325        1.07541294618043       -3.61716614510752
C           -3.01674964284471        2.42084200277076       -3.30915563160700
C           -3.55112272032777        2.80341005836881       -2.09513230375847
C           -3.88359220077685        1.81833129927309       -1.17521991867495
C           -4.45438726145795        1.84294723103422        0.14298646784972
C           -4.86539711713701        2.86146666916152        0.99250860906510
C           -5.34967804225563        2.52713291478574        2.24201655336026
C           -5.42183503102764        1.19728452985113        2.65180895804251
C           -5.02303198286283        0.16521803635458        1.82355534488120
C           -4.54749018135682        0.49578655750330        0.56340072516755
N           -0.35661367137466       -2.45063793066542       -0.44971062535444
C            0.77435430307558       -1.81465468191053       -0.18882316704352
C            1.98230544160662       -2.60245928588302        0.08686022601471
C            2.38630947920841       -3.62070923945854       -0.76308420394973
C            3.55397963250973       -4.31659966909395       -0.50670007871233
C            4.30974399737838       -4.01035148736604        0.61349083622575
C            3.89767971180521       -3.01912710226167        1.48700662297619
C            2.73384346672231       -2.30486410706675        1.23250568642914
N            2.30031376332456       -1.30116417941306        2.11293144414207
C            2.97932844970565       -0.11754505001071        2.34716031186748
C            4.30796828022205        0.19605786397131        2.11169096973461
C            4.74973911628868        1.45025207720951        2.48719997005286
C            3.88745446250788        2.38703895196932        3.05055720173080
C            2.55466509190837        2.09127869032377        3.25611604407062
C            2.09500621080498        0.82691183085835        2.91486608723757
C            0.81453988129769        0.18308745426328        3.01612981166602
C           -0.43888400445854        0.60049426037945        3.44335577776494
C           -1.48872586303530       -0.29560105037077        3.39431592921909
C           -1.29017178436842       -1.60660300091277        2.96778233455775
C           -0.05028783727103       -2.04694761175882        2.54374901554427
C            0.99183800952982       -1.13028956386755        2.52800927601319
N            0.89368063825946       -0.49716011999054       -0.11209589903906
C           -1.16995634150824        2.35441527939316        0.48325534803061
H           -1.91312522761228        4.27072611177542        1.05676174219021
H           -0.11704248055710        5.50161996778536       -0.12055635661681
H            1.62397105279898        4.26565189587716       -1.34511291789156
H            3.35658890935917        3.45375627671927        0.09082780123615
H            5.80828625712314        3.31360523495127        0.21350268860127
H            7.03655768081647        1.53588736662205       -0.94201066486556
H            5.83344425467888       -0.15065711543287       -2.29431936430861
H            3.94637064844009       -1.63448816674649       -3.63338439626455
H            1.86196111913451       -2.49797984177580       -4.64618437609035
H           -0.27558348412809       -1.36019515255845       -4.26890823514448
H           -0.41822422276947        0.63169534264292       -2.82290067767682
H           -1.78108281874506       -4.28746619681755       -0.45646091014641
H           -3.88351701053394       -5.58549909512750       -0.28605612724461
H           -6.04129843549695       -4.39144853761012       -0.09437033493623
H           -6.08710607032733       -1.92554977181398       -0.16940420036357
H           -2.98110474609922       -0.96458989697183       -2.95337774817957
H           -2.41669072516977        0.80906346991827       -4.58222930171924
H           -2.74731306836741        3.17094332705482       -4.03802582389280
H           -3.70967163042294        3.84595615041450       -1.86367880688241
H           -4.80272124142527        3.89290360083832        0.67902467646960
H           -5.67409869455651        3.30460680860598        2.91792724116116
H           -5.79640696077048        0.96912439733869        3.63917661444821
H           -5.07227342853212       -0.86373769763494        2.14846491987160
H            1.78853240469392       -3.83676358529942       -1.63512371061099
H            3.87464672729270       -5.09816984303446       -1.17863612228985
H            5.21973959364919       -4.55531395410720        0.81661344318091
H            4.46729957577852       -2.80130383640583        2.37801906449148
H            4.97870552323287       -0.50962190528944        1.64642448284688
H            5.78755124661845        1.70735509073958        2.33927730628144
H            4.27014563236701        3.35877671271312        3.32627757286454
H            1.88107642856764        2.82028387798589        3.68161286505899
H           -0.58785884270907        1.61032215091647        3.79520167036062
H           -2.47761444343899        0.01747792030597        3.69545517080915
H           -2.12347913057145       -2.29475968035093        2.96089577569974
H            0.09533955533095       -3.06639187145719        2.21599097527882
H           -1.93993414805396        1.79821622340926        0.99321254028439

          :  Hamiltonian                  GFN2-xTB          :
         :: gradient norm              0.000066490981 Eh/a0 ::
         :: HOMO-LUMO gap              1.825861489901 eV    ::
         :: SCC energy              -161.040304828592 Eh    ::
         :: -> dispersion             -0.183790275404 Eh    ::
         :: repulsion energy           2.938009387233 Eh    ::

    * Orbital Energies and Occupations

         #    Occupation            Energy/Eh            Energy/eV
      -------------------------------------------------------------
         1        2.0000           -0.6874763             -18.7072
       ...           ...                  ...                  ...
       135        2.0000           -0.4090631             -11.1312
       136        2.0000           -0.4070440             -11.0762
       137        2.0000           -0.4013960             -10.9225
       138        2.0000           -0.3995514             -10.8723
       139        2.0000           -0.3974574             -10.8154
       140        2.0000           -0.3776837             -10.2773
       141        2.0000           -0.3767981             -10.2532
       142        2.0000           -0.3744028             -10.1880
       143        2.0000           -0.3715894             -10.1115
       144        2.0000           -0.3697280             -10.0608
       145        2.0000           -0.3597926              -9.7905
       146        2.0000           -0.3588135              -9.7638
       147        2.0000           -0.3569881              -9.7141 (HOMO)
       148                         -0.2898889              -7.8883 (LUMO)
       149                         -0.2804469              -7.6313
       150                         -0.2463860              -6.7045
       151                         -0.2433309              -6.6214
       152                         -0.2426649              -6.6032
       153                         -0.2390850              -6.5058
       154                         -0.2383283              -6.4852
       155                         -0.2347714              -6.3885
       156                         -0.2317317              -6.3057
       157                         -0.2181429              -5.9360
       158                         -0.2164337              -5.8895
       ...                                ...                  ...
       288                          0.7531544              20.4944
      -------------------------------------------------------------
                  HL-Gap            0.0670992 Eh            1.8259 eV

     #   Z          covCN         q      C6AA      α(0)
     1   6 C        2.918    -0.030    28.742     8.791
     2   6 C        2.919    -0.024    28.608     8.771
     3   6 C        2.923    -0.042    29.049     8.839
     4   6 C        2.914     0.073    26.370     8.421
     5   7 N        2.800    -0.038    21.965     6.961
     6   6 C        3.078     0.052    26.750     8.479
     7   6 C        2.910    -0.048    29.199     8.861
     8   6 C        2.925    -0.031    28.783     8.798
     9   6 C        2.920    -0.041    29.019     8.834
    10   6 C        2.913    -0.033    28.828     8.804
    11   6 C        3.071    -0.014    28.296     8.722
    12   6 C        3.066    -0.015    28.316     8.726
    13   6 C        2.913    -0.034    28.847     8.807
    14   6 C        2.920    -0.042    29.042     8.837
    15   6 C        2.924    -0.033    28.822     8.804
    16   6 C        2.910    -0.049    29.226     8.865
    17   6 C        3.082     0.054    26.695     8.470
    18   6 C        2.986    -0.011    28.284     8.724
    19   6 C        3.000     0.217    23.414     7.937
    20   7 N        1.845    -0.296    28.529     7.916
    21   6 C        3.000     0.210    23.563     7.963
    22   6 C        2.981    -0.009    28.237     8.717
    23   6 C        2.927    -0.024    28.605     8.771
    24   6 C        2.917    -0.031    28.763     8.795
    25   6 C        2.918    -0.023    28.588     8.768
    26   6 C        2.924    -0.040    28.998     8.831
    27   6 C        2.913     0.073    26.362     8.419
    28   7 N        2.806    -0.029    21.806     6.936
    29   6 C        3.082     0.056    26.660     8.465
    30   6 C        2.910    -0.045    29.113     8.847
    31   6 C        2.924    -0.032    28.803     8.801
    32   6 C        2.920    -0.042    29.050     8.839
    33   6 C        2.913    -0.033    28.824     8.804
    34   6 C        3.070    -0.014    28.291     8.721
    35   6 C        3.070    -0.015    28.303     8.723
    36   6 C        2.912    -0.033    28.820     8.803
    37   6 C        2.920    -0.042    29.048     8.838
    38   6 C        2.924    -0.033    28.833     8.806
    39   6 C        2.909    -0.049    29.215     8.863
    40   6 C        3.082     0.050    26.781     8.484
    41   7 N        1.845    -0.298    28.577     7.923
    42   6 C        3.007     0.218    23.406     7.936
    43   6 C        2.988    -0.008    28.218     8.714
    44   6 C        2.922    -0.021    28.541     8.761
    45   6 C        2.919    -0.031    28.771     8.796
    46   6 C        2.919    -0.026    28.648     8.777
    47   6 C        2.921    -0.041    29.012     8.833
    48   6 C        2.918     0.073    26.362     8.420
    49   7 N        2.798    -0.048    22.168     6.993
    50   6 C        3.078     0.055    26.696     8.471
    51   6 C        2.910    -0.048    29.190     8.859
    52   6 C        2.925    -0.031    28.778     8.797
    53   6 C        2.920    -0.040    28.998     8.831
    54   6 C        2.913    -0.033    28.828     8.804
    55   6 C        3.070    -0.015    28.309     8.724
    56   6 C        3.064    -0.017    28.362     8.733
    57   6 C        2.913    -0.033    28.834     8.805
    58   6 C        2.920    -0.040    28.995     8.830
    59   6 C        2.924    -0.032    28.809     8.802
    60   6 C        2.910    -0.050    29.251     8.869
    61   6 C        3.081     0.052    26.757     8.480
    62   7 N        1.847    -0.299    28.610     7.927
    63   6 C        2.926    -0.019    28.480     8.752
    64   1 H        0.926     0.044     2.394     2.420
    65   1 H        0.926     0.043     2.406     2.426
    66   1 H        0.926     0.048     2.347     2.396
    67   1 H        0.926     0.028     2.611     2.527
    68   1 H        0.926     0.030     2.583     2.513
    69   1 H        0.926     0.027     2.623     2.533
    70   1 H        0.926     0.029     2.594     2.519
    71   1 H        0.926     0.029     2.595     2.519
    72   1 H        0.926     0.027     2.635     2.539
    73   1 H        0.926     0.025     2.653     2.547
    74   1 H        0.926     0.022     2.710     2.575
    75   1 H        0.926     0.066     2.130     2.282
    76   1 H        0.926     0.044     2.400     2.423
    77   1 H        0.926     0.044     2.395     2.420
    78   1 H        0.926     0.047     2.354     2.399
    79   1 H        0.926     0.020     2.736     2.587
    80   1 H        0.926     0.029     2.596     2.520
    81   1 H        0.926     0.027     2.632     2.537
    82   1 H        0.926     0.029     2.596     2.520
    83   1 H        0.926     0.029     2.602     2.523
    84   1 H        0.926     0.027     2.630     2.536
    85   1 H        0.926     0.028     2.616     2.530
    86   1 H        0.926     0.023     2.681     2.561
    87   1 H        0.926     0.050     2.316     2.380
    88   1 H        0.926     0.043     2.406     2.426
    89   1 H        0.926     0.043     2.408     2.427
    90   1 H        0.926     0.048     2.344     2.394
    91   1 H        0.926     0.028     2.611     2.527
    92   1 H        0.926     0.032     2.561     2.503
    93   1 H        0.926     0.028     2.618     2.530
    94   1 H        0.926     0.029     2.602     2.523
    95   1 H        0.926     0.030     2.586     2.515
    96   1 H        0.926     0.028     2.610     2.526
    97   1 H        0.926     0.023     2.693     2.566
    98   1 H        0.926     0.021     2.712     2.575
    99   1 H        0.926     0.056     2.244     2.343

molecular dipole:
                 x           y           z       tot (Debye)
 q only:       -0.138      -0.430       0.094
   full:       -0.223      -0.591       0.039       1.607

 projected vibrational frequencies (cm⁻¹)
eigval :       -0.00    -0.00    -0.00     0.00     0.00     0.00
eigval :        6.51     9.93    17.58    21.16    24.34    31.92
eigval :       39.71    44.42    48.52    55.89    59.99    60.63
eigval :       64.02    71.23    82.42    90.57    95.69   107.08
eigval :      110.55   131.35   135.21   141.62   146.43   149.94
eigval :      150.76   156.98   167.50   172.81   184.56   194.03
eigval :      198.19   221.71   229.31   239.03   251.36   261.03
eigval :      268.72   274.72   278.52   280.07   285.00   296.80
eigval :      318.67   339.51   351.08   370.99   390.14   393.33
eigval :      396.69   398.00   400.04   404.91   412.51   422.74
eigval :      425.62   428.98   433.82   436.05   437.76   441.20
eigval :      452.38   462.19   478.73   489.19   505.55   518.92
eigval :      519.35   519.77   536.14   541.79   542.24   543.24
eigval :      544.37   550.10   568.97   581.61   582.43   586.41
eigval :      596.20   601.01   602.73   606.68   610.06   612.68
eigval :      617.41   618.94   634.64   641.13   653.89   672.46
eigval :      674.64   676.40   700.32   706.21   707.46   708.54
eigval :      714.17   719.24   720.06   722.43   724.87   756.95
eigval :      757.43   757.94   767.67   769.93   772.59   773.26
eigval :      780.66   781.57   783.17   786.64   790.84   794.59
eigval :      842.32   846.39   866.13   867.82   867.99   870.64
eigval :      876.00   876.30   886.27   889.22   891.75   896.11
eigval :      897.82   899.39   900.08   900.50   902.26   902.48
eigval :      904.31   904.90   916.03   919.44   921.14   922.51
eigval :      923.02   923.87   924.34   926.57   926.73   927.13
eigval :      927.81   928.27   930.09   931.39   932.55  1011.55
eigval :     1012.27  1012.87  1021.38  1063.71  1067.93  1069.94
eigval :     1071.47  1071.82  1073.46  1075.06  1085.15  1087.14
eigval :     1089.84  1090.39  1091.24  1117.61  1132.43  1133.85
eigval :     1147.22  1150.27  1151.93  1153.91  1174.07  1175.07
eigval :     1175.49  1176.09  1177.58  1178.41  1180.26  1182.13
eigval :     1182.83  1187.08  1190.04  1196.52  1202.13  1203.78
eigval :     1215.27  1234.77  1236.41  1236.81  1237.89  1239.22
eigval :     1243.28  1246.66  1247.65  1249.44  1298.90  1299.03
eigval :     1300.43  1301.12  1304.08  1308.04  1312.68  1313.90
eigval :     1317.23  1350.62  1355.37  1356.60  1359.72  1361.10
eigval :     1361.36  1361.76  1362.40  1363.24  1367.44  1372.22
eigval :     1383.61  1420.71  1423.43  1424.24  1428.64  1428.74
eigval :     1429.68  1443.28  1447.27  1450.97  1467.19  1470.26
eigval :     1474.37  1475.66  1477.44  1481.71  1488.11  1488.51
eigval :     1489.25  1520.26  1526.21  1564.83  1568.20  1569.47
eigval :     1574.31  1575.87  1576.09  1587.70  1590.48  1590.66
eigval :     1591.51  1591.70  1592.59  1599.06  1599.24  1599.49
eigval :     1615.51  1615.88  1616.10  3069.65  3070.28  3071.42
eigval :     3072.62  3073.86  3074.92  3076.89  3077.74  3078.06
eigval :     3078.12  3079.55  3080.79  3080.98  3081.23  3083.12
eigval :     3083.36  3084.66  3085.07  3085.93  3088.48  3088.98
eigval :     3089.17  3090.06  3091.63  3092.12  3092.24  3093.32
eigval :     3094.02  3096.04  3096.38  3097.38  3098.24  3099.72
eigval :     3102.72  3109.55  3115.59

   temp. (K)  partition function   enthalpy   heat capacity  entropy
                                   cal/mol     cal/K/mol   cal/K/mol   J/K/mol
 298.15  VIB  0.397E+22            28269.224    181.878    175.301
         ROT  0.771E+08              888.752      2.981     39.072
         INT  0.306E+30            29157.976    184.859    214.373
         TR   0.221E+29             1481.254      4.968     45.914
         TOT                       30639.2299   189.8272   260.2866  1089.0392

       T/K    H(0)-H(T)+PV         H(T)/Eh          T*S/Eh         G(T)/Eh
   ------------------------------------------------------------------------
    298.15    0.488267E-01    0.801827E+00    0.123671E+00    0.678156E+00
   ------------------------------------------------------------------------

         :::::::::::::::::::::::::::::::::::::::::::::::::::::
         ::                  THERMODYNAMIC                  ::
         :::::::::::::::::::::::::::::::::::::::::::::::::::::
         :: total free energy        -157.424139157096 Eh   ::
         ::.................................................::
         :: total energy             -158.102295441356 Eh   ::
         :: zero point energy           0.753000136025 Eh   ::
         :: G(RRHO) w/o ZPVE           -0.074843851765 Eh   ::
         :: G(RRHO) contrib.            0.678156284261 Eh   ::
         :::::::::::::::::::::::::::::::::::::::::::::::::::::

           -------------------------------------------------
          | TOTAL ENERGY             -158.102295441356 Eh   |
          | TOTAL ENTHALPY           -157.300468584468 Eh   |
          | TOTAL FREE ENERGY        -157.424139157096 Eh   |
          | GRADIENT NORM               0.000066502443 Eh/α |
          | HOMO-LUMO GAP               1.825862168849 eV   |
           -------------------------------------------------

 * finished run on 2025/09/14 at 12:51:02.534
