   * xtb version 6.7.1 (edcfbbe) compiled by 'albert@albert-system' on 2024-07-22

   ID    Z sym.   atoms
    1    6 C      1-20, 22-28
    2    7 N      21, 29
    3    1 H      30-57

          program call               : xtb data2507/gas/CzBN/CzBN.xyz --gfn 2 --ohess vtight --parallel 40 --molden --ceasefiles --namespace data2507/gas/CzBN/CzBN_gas_S0_preOpt
          :  Hamiltonian                  GFN2-xTB          :
 * total energy  :   -77.9515761 Eh     change       -0.1677179E-08 Eh
 * total energy  :   -77.9611969 Eh     change       -0.9620824E-02 Eh
 * total energy  :   -77.9618896 Eh     change       -0.6926570E-03 Eh
 * total energy  :   -77.9636806 Eh     change       -0.1791061E-02 Eh
 * total energy  :   -77.9642391 Eh     change       -0.5584371E-03 Eh
 * total energy  :   -77.9644464 Eh     change       -0.2073520E-03 Eh
 * total energy  :   -77.9645500 Eh     change       -0.1035773E-03 Eh
 * total energy  :   -77.9646118 Eh     change       -0.6176544E-04 Eh
 * total energy  :   -77.9646713 Eh     change       -0.5952327E-04 Eh
 * total energy  :   -77.9647123 Eh     change       -0.4100465E-04 Eh
 * total energy  :   -77.9647924 Eh     change       -0.6334245E-06 Eh
 * total energy  :   -77.9647926 Eh     change       -0.2895794E-06 Eh
 * total energy  :   -77.9647930 Eh     change       -0.3838230E-06 Eh
 * total energy  :   -77.9647933 Eh     change       -0.2490940E-06 Eh
 * total energy  :   -77.9647935 Eh     change       -0.1782232E-06 Eh
 * total energy  :   -77.9647937 Eh     change       -0.1952219E-06 Eh
 * total energy  :   -77.9647939 Eh     change       -0.1998930E-06 Eh
 * total energy  :   -77.9647940 Eh     change       -0.1252022E-06 Eh
 * total energy  :   -77.9647941 Eh     change       -0.8866270E-07 Eh
   *** GEOMETRY OPTIMIZATION CONVERGED AFTER 32 ITERATIONS ***

 final structure:
================
57
 xtb: 6.7.1 (edcfbbe)
C           -5.60248509060084       -1.30441707918207        0.08910435521445
C           -4.17758801868154       -1.86470216866446        0.08117772119798
C           -4.02838975500400       -2.76513591205418       -1.15351735062389
C           -3.98649851297709       -2.69664940614705        1.35724490275900
C           -3.11284947953861       -0.77772379346150        0.03340256877896
C           -3.43005913753149        0.58257242797441        0.01854029176145
C           -2.46488910065130        1.57298478296964       -0.03041429210975
C           -1.13646186580006        1.19002192222845       -0.07646327324099
C           -0.78658296509494       -0.17595308663203       -0.03628789104399
C           -1.77356691306272       -1.14645417197692        0.01455796228950
C            0.65068567032782       -0.23209322262774       -0.04874204889214
C            1.55452231206855       -1.28565757828233       -0.05261136500292
C            2.91389652923534       -1.02426231306709       -0.10428216690292
C            3.96284438081971       -2.12656558745251       -0.09588251653851
C            3.34574052854178       -3.52494985130800       -0.00417524510158
C            4.78449055537096       -2.05280140753460       -1.39071584938800
C            4.88280681657418       -1.93198885749178        1.11742490082690
C            3.33592759216558        0.30918174142442       -0.17809115599567
C            2.45929400104025        1.37500589900614       -0.17734245314765
C            1.10522720881881        1.10055253537785       -0.08397083520919
N            0.01615340502179        1.95806584844644       -0.09771171467386
C            0.06400499244408        3.34824926365370       -0.12363874550481
C           -0.68193948133618        4.05981094212386       -1.06066586464723
C           -0.63383129446914        5.43997218111866       -1.09702007788248
C            0.16624144333743        6.14014737210491       -0.20455091251028
C            0.90748114812611        5.45472413587891        0.73652814927848
C            0.85651869575770        4.06123466221691        0.79311755087400
C            1.55993261844031        3.39818641662086        1.82444420191410
N            2.11291623675999        2.90172079907382        2.69778022458908
H           -5.79929105953571       -0.72003906704799       -0.80685612062042
H           -6.31404537970321       -2.12745949264559        0.11534253085557
H           -5.77554780051840       -0.68481866929825        0.96597040476875
H           -3.05385522589705       -3.24437687147499       -1.17950654386208
H           -4.14344788815338       -2.17826030142047       -2.06259371411006
H           -4.78983624083410       -3.54233792251236       -1.14563362804557
H           -3.01248277284027       -3.17729743816368        1.37512231617248
H           -4.06767513018273       -2.06019956368446        2.23598295265174
H           -4.74931625470772       -3.47012568357991        1.41891850289146
H           -4.46036072716286        0.89581258444941        0.05042704250029
H           -2.75265297405274        2.61406498430379       -0.02051930444174
H           -1.48198021007177       -2.18481791809787        0.04463061556934
H            1.17263736350880       -2.29232752658663       -0.01970851367877
H            4.13838896096315       -4.27050850611478        0.00942614554481
H            2.70851777449202       -3.72929793360489       -0.86163094063185
H            2.76483024123985       -3.63599033906262        0.90840300383982
H            5.30278760490557       -1.10212904925042       -1.47849770426436
H            4.13413811086261       -2.16745027836430       -2.25563503595672
H            5.52710420579895       -2.84787083052319       -1.40907940607855
H            5.62715709446225       -2.72488371954737        1.15499187319103
H            4.30137393434484       -1.95860343034593        2.03644916235129
H            5.40236278138460       -0.97916029374978        1.07329457803487
H            4.39042802540491        0.52864712275162       -0.24137434212078
H            2.83144637321969        2.38591321961687       -0.25334057305412
H           -1.28304082646650        3.51345932400003       -1.77177580107867
H           -1.21437261490888        5.97462601954780       -1.83379523529735
H            0.20758675468451        7.21770273881534       -0.24261110791846
H            1.52560335966317        5.98465134725322        1.44636277171872

          :  Hamiltonian                  GFN2-xTB          :
         :: gradient norm              0.000034001287 Eh/a0 ::
         :: HOMO-LUMO gap              2.291937935538 eV    ::
         :: SCC energy               -79.374575095639 Eh    ::
         :: -> dispersion             -0.068673402352 Eh    ::
         :: repulsion energy           1.409781026250 Eh    ::

    * Orbital Energies and Occupations

         #    Occupation            Energy/Eh            Energy/eV
      -------------------------------------------------------------
         1        2.0000           -0.6811117             -18.5340
       ...           ...                  ...                  ...
        61        2.0000           -0.4331805             -11.7874
        62        2.0000           -0.4307641             -11.7217
        63        2.0000           -0.4257470             -11.5852
        64        2.0000           -0.4208531             -11.4520
        65        2.0000           -0.4186741             -11.3927
        66        2.0000           -0.4165888             -11.3360
        67        2.0000           -0.4153172             -11.3014
        68        2.0000           -0.4150143             -11.2931
        69        2.0000           -0.4075531             -11.0901
        70        2.0000           -0.4059934             -11.0476
        71        2.0000           -0.3946114             -10.7379
        72        2.0000           -0.3730573             -10.1514
        73        2.0000           -0.3590160              -9.7693 (HOMO)
        74                         -0.2747889              -7.4774 (LUMO)
        75                         -0.2488956              -6.7728
        76                         -0.2386036              -6.4927
        77                         -0.2170226              -5.9055
        78                         -0.2050934              -5.5809
        79                         -0.1889185              -5.1407
        80                         -0.1817125              -4.9446
        81                         -0.1738395              -4.7304
        82                         -0.0968341              -2.6350
        83                         -0.0846394              -2.3032
        84                         -0.0571285              -1.5545
       ...                                ...                  ...
       144                          1.1700136              31.8377
      -------------------------------------------------------------
                  HL-Gap            0.0842271 Eh            2.2919 eV

     #   Z          covCN         q      C6AA      α(0)
     1   6 C        3.761    -0.107    22.589     6.775
     2   6 C        3.903     0.026    20.086     6.370
     3   6 C        3.762    -0.105    22.557     6.770
     4   6 C        3.762    -0.105    22.559     6.771
     5   6 C        2.972    -0.000    28.035     8.685
     6   6 C        2.929    -0.043    29.078     8.843
     7   6 C        2.909    -0.054    29.342     8.882
     8   6 C        3.072     0.043    26.960     8.513
     9   6 C        3.065    -0.017    28.358     8.732
    10   6 C        2.921    -0.039    28.959     8.825
    11   6 C        3.066    -0.017    28.376     8.735
    12   6 C        2.918    -0.042    29.048     8.838
    13   6 C        2.973     0.001    27.990     8.678
    14   6 C        3.903     0.026    20.083     6.370
    15   6 C        3.761    -0.107    22.592     6.776
    16   6 C        3.761    -0.105    22.559     6.771
    17   6 C        3.762    -0.106    22.573     6.773
    18   6 C        2.932    -0.036    28.887     8.814
    19   6 C        2.909    -0.048    29.182     8.858
    20   6 C        3.074     0.045    26.918     8.507
    21   7 N        2.801    -0.048    22.174     6.994
    22   6 C        2.915     0.075    26.320     8.413
    23   6 C        2.922    -0.042    29.034     8.836
    24   6 C        2.918    -0.023    28.567     8.765
    25   6 C        2.917    -0.032    28.802     8.801
    26   6 C        2.929    -0.020    28.515     8.757
    27   6 C        2.974     0.004    27.935     8.670
    28   6 C        1.911     0.116    28.239     8.582
    29   7 N        0.911    -0.236    26.180     7.400
    30   1 H        0.925     0.035     2.522     2.483
    31   1 H        0.925     0.036     2.509     2.477
    32   1 H        0.925     0.035     2.513     2.479
    33   1 H        0.925     0.036     2.498     2.472
    34   1 H        0.925     0.033     2.549     2.497
    35   1 H        0.925     0.036     2.501     2.473
    36   1 H        0.925     0.037     2.494     2.470
    37   1 H        0.925     0.034     2.534     2.489
    38   1 H        0.925     0.036     2.500     2.473
    39   1 H        0.926     0.037     2.495     2.470
    40   1 H        0.926     0.022     2.696     2.568
    41   1 H        0.926     0.032     2.551     2.498
    42   1 H        0.926     0.039     2.465     2.455
    43   1 H        0.925     0.035     2.511     2.478
    44   1 H        0.925     0.034     2.524     2.484
    45   1 H        0.925     0.036     2.497     2.471
    46   1 H        0.925     0.036     2.508     2.477
    47   1 H        0.925     0.032     2.553     2.499
    48   1 H        0.925     0.037     2.496     2.470
    49   1 H        0.925     0.036     2.504     2.474
    50   1 H        0.925     0.036     2.498     2.471
    51   1 H        0.925     0.038     2.482     2.464
    52   1 H        0.926     0.033     2.541     2.493
    53   1 H        0.926     0.021     2.723     2.580
    54   1 H        0.926     0.047     2.356     2.400
    55   1 H        0.926     0.042     2.420     2.433
    56   1 H        0.926     0.041     2.432     2.439
    57   1 H        0.926     0.045     2.389     2.417

molecular dipole:
                 x           y           z       tot (Debye)
 q only:       -0.523       0.201      -0.864
   full:       -0.733       0.576      -1.193       3.848

 projected vibrational frequencies (cm⁻¹)
eigval :       -0.00    -0.00     0.00     0.00     0.00     0.00
eigval :       27.72    30.98    31.56    38.07    50.99    71.05
eigval :       79.80    81.70   110.51   126.86   140.13   159.90
eigval :      176.10   181.17   194.64   208.01   216.51   218.57
eigval :      226.73   240.61   250.11   268.03   303.03   308.08
eigval :      319.29   326.02   330.75   347.40   356.83   360.24
eigval :      362.84   380.71   399.69   411.02   439.36   443.96
eigval :      453.37   459.22   465.56   470.28   502.28   519.51
eigval :      544.71   557.37   575.31   580.47   587.77   626.91
eigval :      636.98   640.31   687.31   687.70   706.44   720.41
eigval :      727.18   774.83   782.00   818.09   820.83   832.74
eigval :      871.00   873.26   879.43   887.35   906.79   912.63
eigval :      917.06   918.55   926.10   932.54   941.39   960.19
eigval :      960.60   962.72   962.78   963.06   963.36  1032.44
eigval :     1035.72  1035.99  1036.17  1039.80  1088.63  1094.34
eigval :     1127.43  1132.23  1151.91  1178.25  1180.29  1209.20
eigval :     1221.09  1228.04  1228.58  1230.10  1233.34  1236.17
eigval :     1244.70  1249.37  1259.91  1285.64  1300.39  1307.48
eigval :     1312.31  1347.83  1361.07  1370.60  1402.09  1404.34
eigval :     1406.12  1406.30  1412.64  1428.37  1429.42  1429.63
eigval :     1443.13  1469.52  1474.58  1483.80  1491.79  1492.20
eigval :     1494.79  1494.90  1501.53  1502.54  1505.17  1505.79
eigval :     1515.13  1515.72  1520.61  1520.66  1554.82  1573.43
eigval :     1583.37  1586.40  1606.10  1618.51  2368.72  3020.91
eigval :     3020.98  3022.48  3022.78  3026.75  3026.83  3029.30
eigval :     3029.82  3031.00  3032.60  3035.38  3035.82  3037.77
eigval :     3038.53  3047.96  3048.36  3051.52  3052.61  3076.52
eigval :     3077.09  3085.27  3088.12  3091.67  3096.54  3097.78
eigval :     3103.83  3117.49  3119.50

   temp. (K)  partition function   enthalpy   heat capacity  entropy
                                   cal/mol     cal/K/mol   cal/K/mol   J/K/mol
 298.15  VIB  0.496E+11            15565.876     98.851     94.261
         ROT  0.196E+08              888.752      2.981     36.353
         INT  0.974E+18            16454.628    101.832    130.614
         TR   0.718E+28             1481.254      4.968     43.682
         TOT                       17935.8820   106.7999   174.2960   729.2545

       T/K    H(0)-H(T)+PV         H(T)/Eh          T*S/Eh         G(T)/Eh
   ------------------------------------------------------------------------
    298.15    0.285826E-01    0.499256E+00    0.828137E-01    0.416442E+00
   ------------------------------------------------------------------------

         :::::::::::::::::::::::::::::::::::::::::::::::::::::
         ::                  THERMODYNAMIC                  ::
         :::::::::::::::::::::::::::::::::::::::::::::::::::::
         :: total free energy         -77.548351677664 Eh   ::
         ::.................................................::
         :: total energy              -77.964794069385 Eh   ::
         :: zero point energy           0.470673398261 Eh   ::
         :: G(RRHO) w/o ZPVE           -0.054231006540 Eh   ::
         :: G(RRHO) contrib.            0.416442391721 Eh   ::
         :::::::::::::::::::::::::::::::::::::::::::::::::::::

           -------------------------------------------------
          | TOTAL ENERGY              -77.964794069385 Eh   |
          | TOTAL ENTHALPY            -77.465538023721 Eh   |
          | TOTAL FREE ENERGY         -77.548351677664 Eh   |
          | GRADIENT NORM               0.000033891240 Eh/α |
          | HOMO-LUMO GAP               2.291937053632 eV   |
           -------------------------------------------------

 * finished run on 2025/08/22 at 09:43:19.397
