   * xtb version 6.7.1 (edcfbbe) compiled by 'albert@albert-system' on 2024-07-22

   ID    Z sym.   atoms
    1    6 C      1-20, 22-28
    2    7 N      21, 29
    3    1 H      30-57

          program call               : xtb data2507/gas/CzBN/CzBN_gas_S0_finalOpt.xtbopt.xyz --gfn 2 --spinpol --tblite --uhf 2 --ohess vtight --parallel 40 --molden --ceasefiles --namespace data2507/gas/CzBN/CzBN_gas_T1_preOpt
 * total energy  :   -77.8585315 Eh     change       -0.1399152E-07 Eh
 * total energy  :   -77.8617592 Eh     change       -0.3227706E-02 Eh
 * total energy  :   -77.8629617 Eh     change       -0.1202465E-02 Eh
 * total energy  :   -77.8633234 Eh     change       -0.3617120E-03 Eh
 * total energy  :   -77.8635518 Eh     change       -0.2284623E-03 Eh
 * total energy  :   -77.8636587 Eh     change       -0.1068816E-03 Eh
 * total energy  :   -77.8636972 Eh     change       -0.3850847E-04 Eh
 * total energy  :   -77.8637253 Eh     change       -0.2807288E-04 Eh
 * total energy  :   -77.8637419 Eh     change       -0.1663845E-04 Eh
 * total energy  :   -77.8637518 Eh     change       -0.9817465E-05 Eh
 * total energy  :   -77.8637716 Eh     change       -0.4676218E-05 Eh
 * total energy  :   -77.8637752 Eh     change       -0.3586453E-05 Eh
 * total energy  :   -77.8637771 Eh     change       -0.1907542E-05 Eh
 * total energy  :   -77.8637778 Eh     change       -0.6835357E-06 Eh
 * total energy  :   -77.8637783 Eh     change       -0.5133396E-06 Eh
 * total energy  :   -77.8637789 Eh     change       -0.5499458E-06 Eh
 * total energy  :   -77.8637792 Eh     change       -0.3347419E-06 Eh
 * total energy  :   -77.8637794 Eh     change       -0.1605964E-06 Eh
 * total energy  :   -77.8637794 Eh     change       -0.5914680E-07 Eh
   *** GEOMETRY OPTIMIZATION CONVERGED AFTER 22 ITERATIONS ***

 final structure:
================
57
 xtb: 6.7.1 (edcfbbe)
C           -4.16665263895666       -3.47916339993894        0.99881365330211
C           -3.19181153068108       -3.52181650641451       -0.18708738372263
C           -3.97444220710527       -3.67186953706286       -1.50019439851976
C           -2.29578634240020       -4.75279414960881       -0.02407937499827
C           -2.40535545869136       -2.22312346781579       -0.21985459796075
C           -3.10062867970130       -1.01352635123588       -0.36795578076807
C           -2.46882347178347        0.21327065628565       -0.39103610415287
C           -1.08974542081617        0.23848773408991       -0.24132959143543
C           -0.35922758238592       -0.97070980030141       -0.13704301974433
C           -1.01743415460868       -2.18805620497489       -0.11793966296201
C            1.03083692425712       -0.60281723731060       -0.09339176812143
C            2.20170364810492       -1.33400061236704        0.01541795822167
C            3.42593600830849       -0.67476958267568        0.06903041265365
C            4.74716653964131       -1.41637131325417        0.17939458064922
C            4.57138709387807       -2.93724184018423        0.20033622116266
C            5.62584145284945       -1.05415947042357       -1.02713951488459
C            5.45049273338588       -0.99909563688829        1.47935964994016
C            3.43650164863895        0.72788776691388        0.03615839112969
C            2.28347258591987        1.48107760287706       -0.07581869975698
C            1.07248687057958        0.81175297695389       -0.16813835041129
N           -0.21567071281016        1.30803474782386       -0.25478971525892
C           -0.56425997699539        2.63613402512659       -0.34121105399776
C            0.11672914591340        3.51049401267341       -1.17860323108184
C           -0.23553934242707        4.83755232554031       -1.27688324879693
C           -1.30653053626217        5.34759674844914       -0.47512421491242
C           -1.97964549718893        4.53973984485500        0.38191382005281
C           -1.63321784545616        3.16490813490199        0.53136978208866
C           -2.11488564182936        2.43178186849254        1.58741304407368
N           -2.59061657789034        1.80408408851141        2.44628299353126
H           -4.87286350762012       -2.65970313489646        0.90415666766343
H           -4.72777076970010       -4.40955592271757        1.05374755181899
H           -3.61930967957905       -3.34863725657513        1.92962987537839
H           -3.29171716687846       -3.67443152277620       -2.34750348298763
H           -4.68373260029537       -2.86075213140548       -1.63621019576333
H           -4.52638248586683       -4.60921241636365       -1.49869238742846
H           -2.91373596313728       -5.64789811814416        0.00214807227628
H           -1.60404560818078       -4.84871946468501       -0.85801703271101
H           -1.73368298667146       -4.70724272564150        0.90567921552583
H           -4.17350536018551       -1.02840346527986       -0.47297382346671
H           -3.03798698086550        1.11957492617112       -0.52396719785191
H           -0.43741005345016       -3.09110433670317       -0.02744474029309
H            2.13928712878401       -2.40793598966356        0.06594213048426
H            5.54768685201480       -3.41252811943726        0.26876035457669
H            4.09089176834130       -3.28916738364349       -0.70969208270268
H            3.98550958982570       -3.25230255831455        1.06061483019816
H            5.83826490297021        0.01057210310918       -1.05998236466233
H            5.12585882103625       -1.33124813938704       -1.95294420292333
H            6.57192877284340       -1.58815781663630       -0.97260269065738
H            4.81906768785146       -1.22249156875421        2.33664750169463
H            5.67347431668384        0.06390262276796        1.48857334262056
H            6.38589105992975       -1.54366115968744        1.58773957016163
H            4.37589650292575        1.25277607086224        0.10780579659811
H            2.33157977363616        2.55901540414975       -0.07176976440321
H            0.88084342251302        3.10527358867562       -1.82771089416399
H            0.25203997591669        5.48359587428127       -1.98769869654475
H           -1.57641595926776        6.38846536982544       -0.57011621443415
H           -2.78128491410202        4.92222290483517        0.99716880751782

 projected vibrational frequencies (cm⁻¹)
eigval :       -0.00    -0.00    -0.00     0.00     0.00     0.00
eigval :       28.43    30.02    31.24    35.29    44.21    68.67
eigval :       77.18    83.54   103.62   116.97   135.59   158.17
eigval :      172.00   183.86   198.51   207.32   209.57   219.84
eigval :      223.22   231.92   247.39   255.03   278.74   305.89
eigval :      317.02   322.54   323.38   334.34   349.27   349.59
eigval :      355.02   381.93   386.57   394.79   401.59   411.66
eigval :      436.03   441.85   453.93   465.45   472.34   498.68
eigval :      517.68   548.48   568.67   570.48   587.29   597.55
eigval :      617.95   628.42   639.30   687.91   695.48   700.33
eigval :      706.97   716.52   751.73   792.63   818.79   819.93
eigval :      829.77   859.46   861.90   869.19   875.87   886.54
eigval :      892.13   907.36   914.64   922.55   930.58   960.27
eigval :      960.39   962.71   963.08   963.77   963.92  1009.77
eigval :     1028.40  1033.77  1033.86  1035.36  1039.39  1075.15
eigval :     1115.58  1126.65  1135.21  1135.78  1141.92  1168.94
eigval :     1207.45  1213.37  1218.38  1223.77  1224.35  1228.13
eigval :     1231.03  1252.55  1258.01  1259.75  1282.50  1288.74
eigval :     1296.15  1317.87  1333.21  1349.43  1369.97  1397.22
eigval :     1404.82  1405.46  1405.74  1406.56  1414.16  1421.89
eigval :     1428.58  1428.77  1447.88  1449.24  1474.47  1489.41
eigval :     1490.46  1492.29  1492.51  1498.21  1498.88  1501.58
eigval :     1502.78  1503.81  1514.52  1514.73  1518.47  1519.39
eigval :     1542.45  1552.50  1560.67  1569.81  2134.80  3024.56
eigval :     3025.21  3026.82  3027.31  3029.02  3029.22  3032.82
eigval :     3033.11  3034.15  3035.09  3037.66  3038.52  3041.21
eigval :     3041.60  3050.44  3052.69  3053.81  3056.99  3065.42
eigval :     3075.83  3089.93  3091.50  3097.20  3103.53  3108.73
eigval :     3110.23  3118.73  3122.46

   temp. (K)  partition function   enthalpy   heat capacity  entropy
                                   cal/mol     cal/K/mol   cal/K/mol   J/K/mol
 298.15  VIB  0.108E+12            15956.155    100.711     96.639
         ROT  0.197E+08              888.752      2.981     36.360
         INT  0.214E+19            16844.907    103.692    132.999
         TR   0.718E+28             1481.254      4.968     43.682
         TOT                       18326.1611   108.6599   176.6806   739.2314

       T/K    H(0)-H(T)+PV         H(T)/Eh          T*S/Eh         G(T)/Eh
   ------------------------------------------------------------------------
    298.15    0.292046E-01    0.495096E+00    0.839466E-01    0.411149E+00
   ------------------------------------------------------------------------

         :::::::::::::::::::::::::::::::::::::::::::::::::::::
         ::                  THERMODYNAMIC                  ::
         :::::::::::::::::::::::::::::::::::::::::::::::::::::
         :: total free energy         -77.452629991539 Eh   ::
         ::.................................................::
         :: total energy              -77.863779439082 Eh   ::
         :: zero point energy           0.465891482090 Eh   ::
         :: G(RRHO) w/o ZPVE           -0.054742034548 Eh   ::
         :: G(RRHO) contrib.            0.411149447542 Eh   ::
         :::::::::::::::::::::::::::::::::::::::::::::::::::::

           -------------------------------------------------
          | TOTAL ENERGY              -77.863779439082 Eh   |
          | TOTAL ENTHALPY            -77.368683360366 Eh   |
          | TOTAL FREE ENERGY         -77.452629991539 Eh   |
          | GRADIENT NORM               0.000073689299 Eh/α |
           -------------------------------------------------

 * finished run on 2025/08/22 at 09:45:33.875
