   * xtb version 6.7.1 (edcfbbe) compiled by 'albert@albert-system' on 2024-07-22

   ID    Z sym.   atoms
    1    6 C      1-20, 22-28
    2    7 N      21, 29
    3    1 H      30-57

          program call               : xtb data2507/gas/CzBN/CzBN_gas_T1_crest.xyz --gfn 2 --spinpol --tblite --uhf 2 --ohess vtight --parallel 40 --molden --ceasefiles --namespace data2507/gas/CzBN/CzBN_gas_T1_finalOpt
 * total energy  :   -77.8633937 Eh     change       -0.2297840E-07 Eh
 * total energy  :   -77.8635356 Eh     change       -0.1418359E-03 Eh
 * total energy  :   -77.8636940 Eh     change       -0.1583854E-03 Eh
 * total energy  :   -77.8637204 Eh     change       -0.2640285E-04 Eh
 * total energy  :   -77.8637350 Eh     change       -0.1465099E-04 Eh
 * total energy  :   -77.8637507 Eh     change       -0.1565081E-04 Eh
 * total energy  :   -77.8637559 Eh     change       -0.5201602E-05 Eh
 * total energy  :   -77.8637631 Eh     change       -0.7247610E-05 Eh
 * total energy  :   -77.8637612 Eh     change        0.1896947E-05 Eh
 * total energy  :   -77.8637666 Eh     change       -0.5420874E-05 Eh
 * total energy  :   -77.8637774 Eh     change       -0.1289723E-05 Eh
 * total energy  :   -77.8637782 Eh     change       -0.7467693E-06 Eh
 * total energy  :   -77.8637788 Eh     change       -0.5937627E-06 Eh
 * total energy  :   -77.8637794 Eh     change       -0.6761476E-06 Eh
 * total energy  :   -77.8637800 Eh     change       -0.5323200E-06 Eh
 * total energy  :   -77.8637800 Eh     change       -0.4431944E-07 Eh
 * total energy  :   -77.8637801 Eh     change       -0.1150721E-06 Eh
 * total energy  :   -77.8637801 Eh     change        0.3722904E-07 Eh
 * total energy  :   -77.8637801 Eh     change       -0.4080559E-07 Eh
   *** GEOMETRY OPTIMIZATION CONVERGED AFTER 23 ITERATIONS ***

 final structure:
================
57
 xtb: 6.7.1 (edcfbbe)
C           -4.22828438745434       -3.40128775300627        0.97895061966701
C           -3.24656011692160       -3.46221077616010       -0.20047083819155
C           -4.02298746410064       -3.60075783600291       -1.51849525958905
C           -2.37274007687277       -4.70800942912291       -0.02959074715770
C           -2.43779479855638       -2.17723408992596       -0.23015632023580
C           -3.11156631009956       -0.95569355528008       -0.37973068203655
C           -2.45868364714074        0.26011732219930       -0.39867645205336
C           -1.07996191250091        0.26144196371579       -0.24365495849668
C           -0.37070536553483       -0.96037399950179       -0.13958056923348
C           -1.04980116263336       -2.16623654878533       -0.12421590646770
C            1.02528114670401       -0.61663134594985       -0.09008784031035
C            2.18297980079471       -1.36827133922929        0.02011940761406
C            3.41808098442823       -0.73037917079198        0.08138979581322
C            4.72565735452149       -1.49515558862451        0.19608971703789
C            4.52497466388882       -3.01308453473098        0.18996922877167
C            5.62718516888153       -1.12915596055019       -0.99226063132257
C            5.41704817724810       -1.10935800938607        1.51208210102574
C            3.45270685298504        0.67207299103590        0.05581720303702
C            2.31331068541017        1.44535722513473       -0.05884017840810
C            1.09151821258157        0.79724242906824       -0.15995502110595
N           -0.18751939834503        1.31584449881125       -0.25079614427445
C           -0.51255403851121        2.64995335544578       -0.33616733232189
C            0.18754118093244        3.51379741896528       -1.16876458256145
C           -0.14214158738565        4.84656902923175       -1.26745753757989
C           -1.20928571307642        5.37335882280691       -0.47139732325473
C           -1.90016077692638        4.57599274555527        0.38128067000251
C           -1.57687153398544        3.19566589178225        0.53164923062838
C           -2.07501392928812        2.46956355764925        1.58491553522957
N           -2.56381479901150        1.84825219104188        2.44101162059936
H           -4.92065252325523       -2.57082621289001        0.87817903999483
H           -4.80470046888082       -4.32238477334332        1.03201576454541
H           -3.68496209487783       -3.27772913141636        1.91306529370819
H           -3.33477726166161       -3.61739875077462       -2.36119790935771
H           -4.71641027512329       -2.77706439131380       -1.66072078940365
H           -4.59184334079054       -4.52793148349845       -1.51891819952169
H           -3.00613938274143       -5.59227429020981       -0.00444579480482
H           -1.67826064098936       -4.81813796211929       -0.85948735623344
H           -1.81495392738897       -4.66957710510394        0.90309348657172
H           -4.18412395443430       -0.95203772603451       -0.48899022685135
H           -3.01170931695105        1.17625681232157       -0.53228929701080
H           -0.48563635063734       -3.07920489155985       -0.03304680813382
H            2.10191445668395       -2.44117666634617        0.06577417210011
H            5.49282954960267       -3.50544070284048        0.25772851271270
H            4.04582087405281       -3.34132624284041       -0.72959486348861
H            3.92745693380159       -3.33331879193873        1.04023473658024
H            5.13426330766025       -1.37982068252053       -1.92930150117591
H            6.56165566406217       -1.68296774157292       -0.93497505255975
H            5.86170724907967       -0.06867757712748       -1.00343498185116
H            4.77200220764056       -1.34031802645935        2.35715660248688
H            5.65153141496945       -0.04919841048514        1.54271092189037
H            6.34464525456795       -1.66666125988190        1.62271180442712
H            4.40047425616417        1.18049382541150        0.13556018393841
H            2.37976997867747        2.52229630959507       -0.04982289677144
H            0.94837247473394        3.09661203682134       -1.81414362783537
H            0.36013472936381        5.48526996635847       -1.97465920260044
H           -1.46174460847881        6.41852961593612       -0.56718068475947
H           -2.69883372258191        4.97107608023752        0.99240836277808

 projected vibrational frequencies (cm⁻¹)
eigval :       -0.00    -0.00    -0.00    -0.00     0.00     0.00
eigval :       28.77    30.14    31.07    34.96    44.13    68.24
eigval :       77.07    83.74   103.65   116.83   135.39   158.00
eigval :      171.62   184.14   198.45   207.16   209.46   219.89
eigval :      223.11   231.89   247.05   254.63   278.96   305.48
eigval :      317.26   322.11   323.16   334.44   348.73   349.51
eigval :      354.88   382.05   386.29   394.46   401.67   411.69
eigval :      435.81   441.92   453.92   465.36   472.16   498.55
eigval :      517.67   548.38   568.63   570.51   587.13   597.41
eigval :      618.09   628.42   639.23   687.79   695.31   700.20
eigval :      707.06   716.44   751.71   792.51   818.59   819.59
eigval :      829.78   859.23   861.63   869.17   875.64   886.26
eigval :      892.05   907.17   914.52   922.63   930.79   960.14
eigval :      960.23   962.48   962.88   963.54   963.61  1010.27
eigval :     1028.31  1033.53  1033.65  1035.04  1039.16  1075.30
eigval :     1115.34  1126.45  1135.06  1135.69  1141.33  1168.88
eigval :     1207.43  1213.09  1217.80  1223.57  1224.21  1228.00
eigval :     1230.95  1252.28  1257.77  1259.57  1282.32  1288.71
eigval :     1296.20  1317.85  1332.79  1349.58  1369.93  1397.07
eigval :     1404.20  1405.05  1405.12  1406.05  1413.61  1421.72
eigval :     1427.44  1427.81  1447.86  1449.22  1474.47  1488.73
eigval :     1489.78  1491.69  1492.51  1497.88  1498.11  1501.39
eigval :     1502.03  1502.94  1513.90  1514.22  1517.52  1518.43
eigval :     1542.39  1552.50  1560.71  1569.77  2135.11  3024.19
eigval :     3024.80  3026.41  3026.97  3028.37  3028.68  3032.28
eigval :     3032.56  3033.18  3034.22  3037.16  3037.85  3039.95
eigval :     3040.60  3049.13  3051.46  3052.83  3056.11  3065.09
eigval :     3075.61  3089.68  3091.09  3096.85  3103.09  3108.26
eigval :     3109.88  3118.36  3122.17

   temp. (K)  partition function   enthalpy   heat capacity  entropy
                                   cal/mol     cal/K/mol   cal/K/mol   J/K/mol
 298.15  VIB  0.110E+12            15960.892    100.722     96.670
         ROT  0.197E+08              888.752      2.981     36.360
         INT  0.217E+19            16849.644    103.703    133.030
         TR   0.718E+28             1481.254      4.968     43.682
         TOT                       18330.8982   108.6711   176.7120   739.3628

       T/K    H(0)-H(T)+PV         H(T)/Eh          T*S/Eh         G(T)/Eh
   ------------------------------------------------------------------------
    298.15    0.292121E-01    0.495007E+00    0.839616E-01    0.411045E+00
   ------------------------------------------------------------------------

         :::::::::::::::::::::::::::::::::::::::::::::::::::::
         ::                  THERMODYNAMIC                  ::
         :::::::::::::::::::::::::::::::::::::::::::::::::::::
         :: total free energy         -77.452734578733 Eh   ::
         ::.................................................::
         :: total energy              -77.863780072019 Eh   ::
         :: zero point energy           0.465794901449 Eh   ::
         :: G(RRHO) w/o ZPVE           -0.054749408163 Eh   ::
         :: G(RRHO) contrib.            0.411045493286 Eh   ::
         :::::::::::::::::::::::::::::::::::::::::::::::::::::

           -------------------------------------------------
          | TOTAL ENERGY              -77.863780072019 Eh   |
          | TOTAL ENTHALPY            -77.368773024863 Eh   |
          | TOTAL FREE ENERGY         -77.452734578733 Eh   |
          | GRADIENT NORM               0.000161378152 Eh/α |
           -------------------------------------------------

 * finished run on 2025/08/22 at 09:48:11.123
