   * xtb version 6.7.1 (edcfbbe) compiled by 'albert@albert-system' on 2024-07-22

   ID    Z sym.   atoms
    1    6 C      1-20, 22-28
    2    7 N      21, 29
    3    1 H      30-57

          program call               : xtb data2507/gas/CzBN/CzBN_gas_S0_crest.xyz --gfn 2 --ohess vtight --parallel 40 --molden --ceasefiles --namespace data2507/gas/CzBN/CzBN_gas_S0_finalOpt
          :  Hamiltonian                  GFN2-xTB          :
 * total energy  :   -77.9650722 Eh     change       -0.2048125E-08 Eh
 * total energy  :   -77.9650723 Eh     change       -0.6648678E-07 Eh
 * total energy  :   -77.9650727 Eh     change       -0.3830496E-06 Eh
 * total energy  :   -77.9650730 Eh     change       -0.3502059E-06 Eh
 * total energy  :   -77.9650732 Eh     change       -0.2180730E-06 Eh
 * total energy  :   -77.9650735 Eh     change       -0.2667531E-06 Eh
 * total energy  :   -77.9650737 Eh     change       -0.1480655E-06 Eh
 * total energy  :   -77.9650737 Eh     change       -0.2043389E-07 Eh
   *** GEOMETRY OPTIMIZATION CONVERGED AFTER 8 ITERATIONS ***

 final structure:
================
57
 xtb: 6.7.1 (edcfbbe)
C           -4.16044154064522       -3.50883918377170        0.98399357048570
C           -3.18394955189270       -3.53029210799641       -0.20020363250812
C           -3.96232964243091       -3.67255131322801       -1.51587934451553
C           -2.28017408097374       -4.75702413686548       -0.04836805172708
C           -2.40037539741813       -2.22603096324997       -0.21882081986538
C           -3.09995111297094       -1.01953230151396       -0.34961438330012
C           -2.47698127698764        0.21171908779715       -0.36127380769323
C           -1.09955599153017        0.24247342088957       -0.22170700565796
C           -0.36709564414385       -0.95710754278812       -0.12857365907818
C           -1.01945214855468       -2.18265097972688       -0.12105963211419
C            1.02182412452350       -0.58793038684125       -0.07868137935461
C            2.19306170843224       -1.32494478609178        0.03289718075365
C            3.41491947404818       -0.67315334174858        0.07567339851721
C            4.73796335929896       -1.41633877250884        0.19052001564377
C            4.55670668448646       -2.93614456654794        0.23228751308567
C            5.61421582194463       -1.07538125639156       -1.02320109792037
C            5.44711912176331       -0.98588065452623        1.48227654509820
C            3.42862730267559        0.72652308449303        0.02191068219783
C            2.27974635747796        1.48427493131855       -0.08732939017377
C            1.06716105311995        0.81832364975560       -0.15613076265131
N           -0.22290602295597        1.31602131591897       -0.23479677671289
C           -0.57050247259846        2.66110234222125       -0.31058279641466
C            0.03389329413735        3.49126606349371       -1.25196474978459
C           -0.31162198422825        4.82610722951622       -1.33784655033803
C           -1.27367008015222        5.35999920528139       -0.49153775332778
C           -1.87927716180132        4.55641546052777        0.45313070576032
C           -1.52906558797763        3.20968959524099        0.55947262543567
C           -2.10626981582649        2.43856150625389        1.59405283258942
N           -2.56770896988965        1.85891783523776        2.46932880694375
H           -4.87244952285945       -2.69320015051680        0.89687686767230
H           -4.71604498007191       -4.44338903250382        1.02931494293730
H           -3.61505250290178       -3.38423417524738        1.91696315583287
H           -3.27696297729665       -3.66296233559220       -2.36108341002969
H           -4.67424061584439       -2.86238236716498       -1.64593389063934
H           -4.51102318711234       -4.61210981329067       -1.52676320949867
H           -2.89140832417194       -5.65725652451014       -0.03118827734045
H           -1.58680887746719       -4.83879348601488       -0.88237756515769
H           -1.71824648080022       -4.71514943635720        0.88170000524611
H           -4.17414949478195       -1.03785152611527       -0.44914123119801
H           -3.05738547699096        1.11443824715208       -0.48159223664234
H           -0.42884202005496       -3.08008957281513       -0.04335864542615
H            2.12238453783560       -2.39815367773726        0.08972303784299
H            5.53099693356400       -3.41523292108716        0.30668902431976
H            4.07322771677590       -3.29752850497518       -0.67242016279553
H            3.96888398081468       -3.23637198218251        1.09652961444360
H            5.83265725908380       -0.01217968477479       -1.06988271803788
H            5.10811412231339       -1.36014116772566       -1.94343097430435
H            6.55798825028939       -1.61395135248400       -0.96731737807061
H            4.81938874099223       -1.20131422426728        2.34444881651643
H            5.66717364956824        0.07800815080451        1.47952538884897
H            6.38468874508686       -1.52675559165383        1.59339979445378
H            4.37150992924258        1.24942538151675        0.07171823372539
H            2.33450716517582        2.56286898651157       -0.10561131247022
H            0.76257777285482        3.06915746508591       -1.92752083226141
H            0.16306886813464        5.45336026353735       -2.07740801440451
H           -1.54668699860273        6.40109275183379       -0.56823633892873
H           -2.62093805290578        4.95871340652497        1.12755463999266

          :  Hamiltonian                  GFN2-xTB          :
         :: gradient norm              0.000113136085 Eh/a0 ::
         :: HOMO-LUMO gap              2.298833369820 eV    ::
         :: SCC energy               -79.374864975175 Eh    ::
         :: -> dispersion             -0.068664248054 Eh    ::
         :: repulsion energy           1.409791304625 Eh    ::

    * Orbital Energies and Occupations

         #    Occupation            Energy/Eh            Energy/eV
      -------------------------------------------------------------
         1        2.0000           -0.6811784             -18.5358
       ...           ...                  ...                  ...
        61        2.0000           -0.4329095             -11.7801
        62        2.0000           -0.4305481             -11.7158
        63        2.0000           -0.4258887             -11.5890
        64        2.0000           -0.4203081             -11.4372
        65        2.0000           -0.4181843             -11.3794
        66        2.0000           -0.4163649             -11.3299
        67        2.0000           -0.4159880             -11.3196
        68        2.0000           -0.4142625             -11.2727
        69        2.0000           -0.4080184             -11.1027
        70        2.0000           -0.4054911             -11.0340
        71        2.0000           -0.3952447             -10.7552
        72        2.0000           -0.3722694             -10.1300
        73        2.0000           -0.3593480              -9.7784 (HOMO)
        74                         -0.2748674              -7.4795 (LUMO)
        75                         -0.2490316              -6.7765
        76                         -0.2382982              -6.4844
        77                         -0.2164600              -5.8902
        78                         -0.2051075              -5.5813
        79                         -0.1887737              -5.1368
        80                         -0.1821211              -4.9558
        81                         -0.1739213              -4.7326
        82                         -0.0968616              -2.6357
        83                         -0.0846774              -2.3042
        84                         -0.0569198              -1.5489
       ...                                ...                  ...
       144                          1.1698363              31.8329
      -------------------------------------------------------------
                  HL-Gap            0.0844806 Eh            2.2988 eV

     #   Z          covCN         q      C6AA      α(0)
     1   6 C        3.762    -0.106    22.573     6.773
     2   6 C        3.903     0.026    20.083     6.370
     3   6 C        3.761    -0.105    22.559     6.771
     4   6 C        3.761    -0.107    22.595     6.776
     5   6 C        2.973     0.001    27.990     8.678
     6   6 C        2.932    -0.036    28.890     8.815
     7   6 C        2.909    -0.048    29.182     8.858
     8   6 C        3.074     0.044    26.926     8.508
     9   6 C        3.067    -0.018    28.378     8.735
    10   6 C        2.918    -0.042    29.055     8.839
    11   6 C        3.067    -0.017    28.371     8.734
    12   6 C        2.918    -0.043    29.064     8.841
    13   6 C        2.973    -0.000    28.035     8.685
    14   6 C        3.903     0.026    20.085     6.370
    15   6 C        3.761    -0.107    22.595     6.776
    16   6 C        3.762    -0.105    22.555     6.770
    17   6 C        3.762    -0.105    22.557     6.770
    18   6 C        2.931    -0.039    28.969     8.827
    19   6 C        2.908    -0.053    29.327     8.880
    20   6 C        3.074     0.043    26.962     8.514
    21   7 N        2.802    -0.048    22.168     6.993
    22   6 C        2.915     0.075    26.319     8.413
    23   6 C        2.922    -0.042    29.033     8.836
    24   6 C        2.918    -0.023    28.567     8.765
    25   6 C        2.917    -0.032    28.801     8.800
    26   6 C        2.929    -0.020    28.515     8.757
    27   6 C        2.974     0.004    27.933     8.669
    28   6 C        1.911     0.116    28.238     8.582
    29   7 N        0.911    -0.236    26.177     7.400
    30   1 H        0.925     0.037     2.482     2.464
    31   1 H        0.925     0.036     2.504     2.475
    32   1 H        0.925     0.036     2.498     2.472
    33   1 H        0.925     0.032     2.553     2.499
    34   1 H        0.925     0.036     2.509     2.477
    35   1 H        0.925     0.036     2.496     2.471
    36   1 H        0.925     0.035     2.511     2.478
    37   1 H        0.925     0.035     2.522     2.483
    38   1 H        0.925     0.037     2.495     2.470
    39   1 H        0.926     0.033     2.543     2.494
    40   1 H        0.926     0.021     2.725     2.581
    41   1 H        0.926     0.039     2.457     2.451
    42   1 H        0.926     0.039     2.457     2.451
    43   1 H        0.925     0.035     2.512     2.478
    44   1 H        0.925     0.035     2.510     2.478
    45   1 H        0.925     0.036     2.499     2.472
    46   1 H        0.925     0.035     2.514     2.479
    47   1 H        0.925     0.033     2.544     2.494
    48   1 H        0.925     0.036     2.500     2.472
    49   1 H        0.925     0.034     2.528     2.487
    50   1 H        0.925     0.035     2.512     2.479
    51   1 H        0.925     0.036     2.499     2.472
    52   1 H        0.926     0.030     2.590     2.517
    53   1 H        0.926     0.022     2.696     2.568
    54   1 H        0.926     0.047     2.355     2.400
    55   1 H        0.926     0.042     2.420     2.433
    56   1 H        0.926     0.041     2.431     2.438
    57   1 H        0.926     0.045     2.388     2.417

molecular dipole:
                 x           y           z       tot (Debye)
 q only:        0.498       0.283      -0.856
   full:        0.640       0.702      -1.192       3.874

 projected vibrational frequencies (cm⁻¹)
eigval :       -0.00    -0.00    -0.00     0.00     0.00     0.00
eigval :       28.48    30.83    32.64    37.78    50.67    69.23
eigval :       80.77    84.30   111.10   125.28   139.89   161.23
eigval :      175.22   184.87   203.51   209.48   216.42   221.45
eigval :      228.37   233.48   250.48   259.12   282.62   318.19
eigval :      322.48   323.60   335.45   350.74   358.55   359.95
eigval :      360.70   380.74   399.01   410.76   438.77   443.36
eigval :      452.35   459.30   465.67   468.65   502.36   519.89
eigval :      544.81   557.62   575.40   580.60   588.66   627.76
eigval :      637.50   640.75   687.28   687.89   706.35   721.01
eigval :      727.18   774.99   782.06   819.98   822.46   831.89
eigval :      870.30   872.19   873.77   887.22   912.19   912.54
eigval :      917.66   919.52   926.22   932.72   941.66   960.44
eigval :      960.57   962.91   963.07   963.19   963.52  1031.21
eigval :     1035.70  1035.86  1036.17  1041.25  1088.58  1093.95
eigval :     1127.39  1131.79  1151.12  1177.12  1179.45  1207.86
eigval :     1221.95  1228.31  1228.57  1232.06  1232.84  1237.14
eigval :     1244.59  1245.84  1260.34  1285.24  1303.76  1308.54
eigval :     1312.79  1347.73  1358.67  1369.40  1402.26  1404.63
eigval :     1406.20  1406.33  1412.54  1428.88  1429.49  1429.57
eigval :     1443.55  1469.47  1482.65  1484.52  1491.85  1492.47
eigval :     1494.77  1495.16  1501.45  1501.87  1505.27  1505.87
eigval :     1514.96  1515.17  1520.19  1520.99  1554.85  1572.42
eigval :     1583.35  1584.37  1605.57  1617.06  2368.59  3021.09
eigval :     3021.54  3022.49  3023.02  3026.88  3027.16  3029.44
eigval :     3030.21  3031.36  3032.60  3035.83  3036.06  3038.34
eigval :     3038.69  3046.67  3048.25  3050.07  3052.34  3075.10
eigval :     3076.62  3085.24  3088.14  3092.33  3096.47  3097.69
eigval :     3103.77  3116.70  3120.44

   temp. (K)  partition function   enthalpy   heat capacity  entropy
                                   cal/mol     cal/K/mol   cal/K/mol   J/K/mol
 298.15  VIB  0.466E+11            15562.165     98.863     94.190
         ROT  0.197E+08              888.752      2.981     36.360
         INT  0.919E+18            16450.918    101.844    130.550
         TR   0.718E+28             1481.254      4.968     43.682
         TOT                       17932.1715   106.8122   174.2316   728.9852

       T/K    H(0)-H(T)+PV         H(T)/Eh          T*S/Eh         G(T)/Eh
   ------------------------------------------------------------------------
    298.15    0.285767E-01    0.499264E+00    0.827831E-01    0.416481E+00
   ------------------------------------------------------------------------

         :::::::::::::::::::::::::::::::::::::::::::::::::::::
         ::                  THERMODYNAMIC                  ::
         :::::::::::::::::::::::::::::::::::::::::::::::::::::
         :: total free energy         -77.548593086730 Eh   ::
         ::.................................................::
         :: total energy              -77.965073670547 Eh   ::
         :: zero point energy           0.470686921926 Eh   ::
         :: G(RRHO) w/o ZPVE           -0.054206338109 Eh   ::
         :: G(RRHO) contrib.            0.416480583817 Eh   ::
         :::::::::::::::::::::::::::::::::::::::::::::::::::::

           -------------------------------------------------
          | TOTAL ENERGY              -77.965073670547 Eh   |
          | TOTAL ENTHALPY            -77.465810014353 Eh   |
          | TOTAL FREE ENERGY         -77.548593086730 Eh   |
          | GRADIENT NORM               0.000113007905 Eh/α |
          | HOMO-LUMO GAP               2.298834474354 eV   |
           -------------------------------------------------

 * finished run on 2025/08/22 at 09:45:30.497
