   * xtb version 6.7.1 (edcfbbe) compiled by 'albert@albert-system' on 2024-07-22

   ID    Z sym.   atoms
    1    6 C      1-9, 11-15, 17-20, 22-37
    2    7 N      10
    3    8 O      16
    4   16 S      21
    5    1 H      38-64

          program call               : xtb data2507/toluene/PT-BZ-DMAC/PT-BZ-DMAC_toluene_T1_crest.xyz --gfn 2 --uhf 2 --gbsa toluene --ohess vtight --parallel 40 --molden --ceasefiles --namespace data2507/toluene/PT-BZ-DMAC/PT-BZ-DMAC_toluene_T1_finalOpt
      * Solvation model:               GBSA
        Solvent                        toluene
        Solvent mass                       9.2140E+01 g/mol
          :  Hamiltonian                  GFN2-xTB          :
 * total energy  :   -96.7728554 Eh     change       -0.9041230E-09 Eh
 * total energy  :   -96.7729825 Eh     change       -0.1271247E-03 Eh
 * total energy  :   -96.7730165 Eh     change       -0.3401956E-04 Eh
 * total energy  :   -96.7730262 Eh     change       -0.9636318E-05 Eh
 * total energy  :   -96.7730337 Eh     change       -0.7567961E-05 Eh
 * total energy  :   -96.7730396 Eh     change       -0.5888359E-05 Eh
 * total energy  :   -96.7730425 Eh     change       -0.2869288E-05 Eh
 * total energy  :   -96.7730446 Eh     change       -0.2119134E-05 Eh
 * total energy  :   -96.7730471 Eh     change       -0.2475012E-05 Eh
 * total energy  :   -96.7730505 Eh     change       -0.3355420E-05 Eh
 * total energy  :   -96.7730646 Eh     change       -0.1897713E-05 Eh
 * total energy  :   -96.7730656 Eh     change       -0.1010877E-05 Eh
 * total energy  :   -96.7730664 Eh     change       -0.7533418E-06 Eh
 * total energy  :   -96.7730669 Eh     change       -0.5856768E-06 Eh
 * total energy  :   -96.7730674 Eh     change       -0.5106354E-06 Eh
 * total energy  :   -96.7730678 Eh     change       -0.3301845E-06 Eh
 * total energy  :   -96.7730679 Eh     change       -0.1591574E-06 Eh
 * total energy  :   -96.7730681 Eh     change       -0.1725360E-06 Eh
 * total energy  :   -96.7730681 Eh     change       -0.1208392E-08 Eh
   *** GEOMETRY OPTIMIZATION CONVERGED AFTER 22 ITERATIONS ***

 final structure:
================
64
 xtb: 6.7.1 (edcfbbe)
C           -7.13352902555885       -1.21798388738283       -1.72793544682822
C           -6.60171921424687       -0.72157954612751       -0.36809173124410
C           -7.74346770802565       -0.69098078682228        0.66817277000186
C           -6.06507895601143        0.68168421158506       -0.54395563152792
C           -6.90922298980017        1.69433950876081       -0.97943164964767
C           -6.46121271688205        2.98878547083556       -1.17036555534727
C           -5.12914820793198        3.29689005651488       -0.92918196084681
C           -4.26774406926718        2.31566523470899       -0.49626755475137
C           -4.71978581892169        1.00213589926279       -0.28991919266774
N           -3.83505550919768        0.04359683286157        0.15051211331450
C           -2.47625580439951        0.40955777932629        0.37771077666313
C           -1.52421266927482        0.18994044745345       -0.61947947198916
C           -0.20959362720662        0.53404807576607       -0.41130269860989
C            0.20458876523816        1.10071628288718        0.80871324866668
C            1.56439636933317        1.53706331951012        1.06479081354406
O            1.78532911955231        2.45815196962125        1.91606627143762
C            2.68117769155157        0.92981022331007        0.36592678065602
C            2.66513980229561       -0.39146913415080       -0.12540936783200
C            3.76743598418597       -0.92599223719232       -0.74595392613150
C            4.93481872757866       -0.17164988585925       -0.87764825956009
S            6.31119295189237       -0.87249308318207       -1.73953698449962
C            7.67561823865671       -0.60099456585382       -0.63677371371225
C            8.95404892693767       -0.59609801958708       -1.18686789622282
C           10.05147580169651       -0.40834675273276       -0.36881524439968
C            9.88119896366455       -0.22419407326557        0.99520777365054
C            8.60654999399396       -0.24015756081978        1.53926058009399
C            7.50100380141736       -0.43396146356935        0.73126265966400
C            4.98456172977347        1.13021662155226       -0.37060998343108
C            3.88824431010465        1.65547278689932        0.26131290759725
C           -0.78219820699237        1.35580725898542        1.78430633304055
C           -2.09392512056244        1.00849605126981        1.58002137642596
C           -4.21665229789359       -1.26189164897618        0.36358331843336
C           -3.27354288199144       -2.18593269603637        0.84190878919853
C           -3.62100182900845       -3.49938740115227        1.05704505034044
C           -4.91857734956824       -3.92080313983810        0.79953484280215
C           -5.85449991181248       -3.01228651119915        0.33970913350043
C           -5.53626596852345       -1.67927002429634        0.11702816049251
H           -6.32740799641201       -1.23496695131143       -2.45889581602295
H           -7.53893541798761       -2.22114672908379       -1.63862082975130
H           -7.91797138630417       -0.56366556282431       -2.09565848395849
H           -7.36581129146726       -0.34080428954386        1.62694760033307
H           -8.16481931725064       -1.68208800586176        0.80531343048586
H           -8.53750243781923       -0.02417500608677        0.34640673014093
H           -7.94569140150761        1.47278674636219       -1.17920149726110
H           -7.14396654918564        3.75278651050708       -1.50892776488057
H           -4.76341892659437        4.30096480954924       -1.08065119950827
H           -3.23146601715058        2.55191288091249       -0.31311966053767
H           -1.83396887355472       -0.23844712596199       -1.56201308246656
H            0.50420385897645        0.40648907431889       -1.21075950942809
H            1.79064615704192       -1.00696330650207        0.02106324156819
H            3.74891454562371       -1.93998264189805       -1.11840579312272
H            9.07318731796649       -0.73604669476720       -2.25064685629605
H           11.04222664989120       -0.40116344926326       -0.79810175060787
H           10.73887175875635       -0.07177991272342        1.63285783469352
H            8.46689001272954       -0.10633184200947        2.60185478281249
H            6.50990718620393       -0.45552852433681        1.16010940381479
H            5.88825181872361        1.71389338627610       -0.47550531240441
H            3.91254535610245        2.65491275445054        0.67171177394417
H           -0.46804830581095        1.82717594777640        2.70433674365963
H           -2.83683506539991        1.19228209526817        2.34272044513109
H           -2.26757752515497       -1.85406690661463        1.04459981605984
H           -2.88281367448250       -4.19513209738196        1.42561677550075
H           -5.19915388405656       -4.95012773650835        0.96155100185781
H           -6.85908598567099       -3.35722995901002        0.15239751706864

          :  Hamiltonian                  GFN2-xTB          :
         :: gradient norm              0.000053422329 Eh/a0 ::
         :: HOMO-LUMO gap              0.943549839435 eV    ::
         :: SCC energy               -98.459036898970 Eh    ::
         :: -> dispersion             -0.084587419554 Eh    ::
         :: -> Gsolv                  -0.055139243634 Eh    ::
         :: repulsion energy           1.685968785491 Eh    ::

    * Orbital Energies and Occupations

         #    Occupation            Energy/Eh            Energy/eV
      -------------------------------------------------------------
         1        2.0000           -0.7231507             -19.6779
       ...           ...                  ...                  ...
        79        2.0000           -0.4228763             -11.5070
        80        2.0000           -0.4213802             -11.4663
        81        2.0000           -0.4172417             -11.3537
        82        2.0000           -0.4154332             -11.3045
        83        2.0000           -0.4110909             -11.1864
        84        2.0000           -0.4105728             -11.1723
        85        2.0000           -0.4066927             -11.0667
        86        2.0000           -0.4031716             -10.9709
        87        2.0000           -0.4005787             -10.9003
        88        1.9739           -0.3708805             -10.0922
        89        1.6901           -0.3682020             -10.0193
        90        1.3360           -0.3667945              -9.9810
        91        1.0000           -0.2810527              -7.6478 (HOMO)
        92                         -0.2463779              -6.7043 (LUMO)
        93                         -0.2411954              -6.5633
        94                         -0.2373248              -6.4579
        95                         -0.2368034              -6.4437
        96                         -0.2349199              -6.3925
        97                         -0.2335743              -6.3559
        98                         -0.2255662              -6.1380
        99                         -0.2219503              -6.0396
       100                         -0.2107890              -5.7359
       101                         -0.1942988              -5.2871
       102                         -0.1731386              -4.7113
       ...                                ...                  ...
       180                          0.6692394              18.2109
      -------------------------------------------------------------
                  HL-Gap            0.0346747 Eh            0.9435 eV

     #   Z          covCN         q      C6AA      α(0)
     1   6 C        3.761    -0.108    22.619     6.780
     2   6 C        3.909     0.025    20.095     6.372
     3   6 C        3.761    -0.109    22.621     6.780
     4   6 C        2.978     0.001    27.993     8.679
     5   6 C        2.924    -0.032    28.789     8.799
     6   6 C        2.917    -0.028    28.706     8.786
     7   6 C        2.917    -0.026    28.648     8.777
     8   6 C        2.922    -0.045    29.105     8.847
     9   6 C        2.930     0.062    26.608     8.460
    10   7 N        2.755    -0.007    21.402     6.871
    11   6 C        2.930     0.037    27.168     8.548
    12   6 C        2.916    -0.041    29.011     8.832
    13   6 C        2.919    -0.042    29.043     8.837
    14   6 C        2.967    -0.018    28.464     8.751
    15   6 C        2.833     0.163    24.471     8.106
    16   8 O        0.858    -0.522    24.274     6.606
    17   6 C        2.967    -0.018    28.443     8.748
    18   6 C        2.919    -0.044    29.082     8.843
    19   6 C        2.958    -0.039    28.956     8.826
    20   6 C        2.967     0.029    27.347     8.578
    21  16 S        2.109    -0.112   145.763    20.320
    22   6 C        2.968     0.050    26.877     8.504
    23   6 C        2.972    -0.035    28.866     8.813
    24   6 C        2.920    -0.026    28.651     8.778
    25   6 C        2.919    -0.030    28.739     8.791
    26   6 C        2.921    -0.027    28.667     8.780
    27   6 C        2.946    -0.033    28.824     8.806
    28   6 C        2.944    -0.036    28.905     8.818
    29   6 C        2.925    -0.032    28.786     8.799
    30   6 C        2.924    -0.030    28.755     8.794
    31   6 C        2.914    -0.041    29.015     8.833
    32   6 C        2.931     0.062    26.610     8.460
    33   6 C        2.922    -0.045    29.108     8.848
    34   6 C        2.917    -0.026    28.650     8.777
    35   6 C        2.917    -0.028    28.709     8.786
    36   6 C        2.924    -0.032    28.787     8.799
    37   6 C        2.978     0.001    27.993     8.679
    38   1 H        0.925     0.039     2.467     2.456
    39   1 H        0.925     0.054     2.267     2.355
    40   1 H        0.925     0.054     2.270     2.356
    41   1 H        0.925     0.038     2.471     2.458
    42   1 H        0.925     0.054     2.269     2.355
    43   1 H        0.925     0.054     2.270     2.356
    44   1 H        0.926     0.054     2.267     2.354
    45   1 H        0.926     0.048     2.348     2.396
    46   1 H        0.926     0.044     2.394     2.420
    47   1 H        0.926     0.043     2.405     2.425
    48   1 H        0.926     0.039     2.468     2.457
    49   1 H        0.926     0.037     2.492     2.468
    50   1 H        0.926     0.036     2.497     2.471
    51   1 H        0.926     0.039     2.458     2.452
    52   1 H        0.926     0.048     2.341     2.393
    53   1 H        0.926     0.047     2.358     2.401
    54   1 H        0.926     0.045     2.388     2.417
    55   1 H        0.926     0.042     2.421     2.433
    56   1 H        0.926     0.037     2.490     2.468
    57   1 H        0.926     0.031     2.569     2.506
    58   1 H        0.926     0.031     2.566     2.505
    59   1 H        0.926     0.034     2.526     2.485
    60   1 H        0.926     0.038     2.481     2.463
    61   1 H        0.926     0.044     2.398     2.421
    62   1 H        0.926     0.045     2.386     2.416
    63   1 H        0.926     0.048     2.348     2.396
    64   1 H        0.926     0.054     2.269     2.356

molecular dipole:
                 x           y           z       tot (Debye)
 q only:       -4.531      -2.301      -1.404
   full:       -4.423      -2.122      -1.164      12.815

 projected vibrational frequencies (cm⁻¹)
eigval :       -0.00    -0.00     0.00     0.00     0.00     0.00
eigval :       -5.59     8.50    16.60    26.86    29.47    38.86
eigval :       44.54    50.20    65.15    89.32    96.32   101.72
eigval :      110.32   126.63   141.50   155.68   161.22   180.61
eigval :      192.93   213.86   216.30   223.64   236.53   247.93
eigval :      266.28   299.79   305.07   316.99   323.66   337.60
eigval :      347.15   366.63   371.85   377.67   385.93   388.81
eigval :      396.11   408.16   417.36   439.15   441.40   447.07
eigval :      465.01   491.05   499.44   523.48   535.20   540.49
eigval :      561.91   565.33   582.13   583.97   590.36   599.52
eigval :      606.05   636.71   645.89   651.51   665.78   679.75
eigval :      680.77   688.76   703.90   718.69   742.45   758.14
eigval :      771.16   773.21   792.41   806.26   825.70   841.80
eigval :      856.61   868.40   870.57   871.68   889.03   894.45
eigval :      896.86   905.99   910.27   911.53   915.23   916.57
eigval :      922.69   923.93   924.27   926.73   929.08   934.04
eigval :      936.84   958.85   961.03   982.96  1003.98  1011.65
eigval :     1071.89  1076.75  1078.92  1082.92  1092.43  1102.88
eigval :     1108.25  1116.37  1126.14  1132.36  1136.07  1142.87
eigval :     1158.39  1165.24  1169.46  1174.63  1180.31  1181.14
eigval :     1191.62  1195.22  1212.62  1234.76  1237.44  1252.01
eigval :     1253.67  1254.40  1262.14  1271.93  1290.97  1304.77
eigval :     1308.52  1317.93  1321.12  1328.34  1330.73  1335.32
eigval :     1396.75  1403.47  1407.07  1410.20  1414.74  1423.29
eigval :     1423.61  1424.82  1431.21  1438.80  1446.57  1450.19
eigval :     1470.65  1476.60  1479.74  1480.86  1484.41  1490.78
eigval :     1494.73  1531.64  1544.84  1557.28  1569.47  1572.09
eigval :     1574.12  1583.48  1584.83  3029.16  3031.20  3050.75
eigval :     3052.72  3057.30  3061.10  3066.80  3071.92  3073.71
eigval :     3075.64  3077.51  3081.30  3081.71  3085.74  3086.52
eigval :     3087.31  3087.38  3089.72  3091.65  3091.84  3093.58
eigval :     3094.09  3098.46  3103.17  3103.42  3109.38  3109.73

   temp. (K)  partition function   enthalpy   heat capacity  entropy
                                   cal/mol     cal/K/mol   cal/K/mol   J/K/mol
 298.15  VIB  0.142E+16            18592.478    115.713    116.507
         ROT  0.538E+08              888.752      2.981     38.357
         INT  0.763E+23            19481.231    118.694    154.864
         TR   0.107E+29             1481.254      4.968     44.481
         TOT                       20962.4847   123.6617   199.3453   834.0605

       T/K    H(0)-H(T)+PV         H(T)/Eh          T*S/Eh         G(T)/Eh
   ------------------------------------------------------------------------
    298.15    0.334058E-01    0.528626E+00    0.947154E-01    0.433911E+00
   ------------------------------------------------------------------------

         :::::::::::::::::::::::::::::::::::::::::::::::::::::
         ::                  THERMODYNAMIC                  ::
         :::::::::::::::::::::::::::::::::::::::::::::::::::::
         :: total free energy         -96.339157346838 Eh   ::
         ::.................................................::
         :: total energy              -96.773068110429 Eh   ::
         :: zero point energy           0.495220279058 Eh   ::
         :: G(RRHO) w/o ZPVE           -0.061309515468 Eh   ::
         :: G(RRHO) contrib.            0.433910763590 Eh   ::
         :::::::::::::::::::::::::::::::::::::::::::::::::::::

           -------------------------------------------------
          | TOTAL ENERGY              -96.773068110429 Eh   |
          | TOTAL ENTHALPY            -96.244441985630 Eh   |
          | TOTAL FREE ENERGY         -96.339157346838 Eh   |
          | GRADIENT NORM               0.000052655797 Eh/α |
          | HOMO-LUMO GAP               0.943547624853 eV   |
           -------------------------------------------------

 * finished run on 2025/07/20 at 04:30:48.870
