   * xtb version 6.7.1 (edcfbbe) compiled by 'albert@albert-system' on 2024-07-22

   ID    Z sym.   atoms
    1    6 C      1-9, 11-15, 17-20, 22-37
    2    7 N      10
    3    8 O      16
    4   16 S      21
    5    1 H      38-64

          program call               : xtb data2507/toluene/PT-BZ-DMAC/PT-BZ-DMAC_toluene_S0_crest.xyz --gfn 2 --gbsa toluene --ohess vtight --parallel 40 --molden --ceasefiles --namespace data2507/toluene/PT-BZ-DMAC/PT-BZ-DMAC_toluene_S0_finalOpt
      * Solvation model:               GBSA
        Solvent                        toluene
        Solvent mass                       9.2140E+01 g/mol
          :  Hamiltonian                  GFN2-xTB          :
 * total energy  :   -96.8490279 Eh     change       -0.8177636E-09 Eh
 * total energy  :   -96.8490867 Eh     change       -0.5879309E-04 Eh
 * total energy  :   -96.8491002 Eh     change       -0.1347697E-04 Eh
 * total energy  :   -96.8491053 Eh     change       -0.5098679E-05 Eh
 * total energy  :   -96.8491120 Eh     change       -0.6782137E-05 Eh
 * total energy  :   -96.8491224 Eh     change       -0.1033278E-04 Eh
 * total energy  :   -96.8491317 Eh     change       -0.9334652E-05 Eh
 * total energy  :   -96.8491369 Eh     change       -0.5150584E-05 Eh
 * total energy  :   -96.8491365 Eh     change        0.3781379E-06 Eh
 * total energy  :   -96.8491409 Eh     change       -0.4419319E-05 Eh
 * total energy  :   -96.8491757 Eh     change       -0.1073829E-05 Eh
 * total energy  :   -96.8491766 Eh     change       -0.9377576E-06 Eh
 * total energy  :   -96.8491774 Eh     change       -0.8194314E-06 Eh
 * total energy  :   -96.8491783 Eh     change       -0.8685510E-06 Eh
 * total energy  :   -96.8491793 Eh     change       -0.1054140E-05 Eh
 * total energy  :   -96.8491805 Eh     change       -0.1188081E-05 Eh
 * total energy  :   -96.8491816 Eh     change       -0.1106143E-05 Eh
 * total energy  :   -96.8491824 Eh     change       -0.7477143E-06 Eh
 * total energy  :   -96.8491824 Eh     change       -0.6350362E-08 Eh
   *** GEOMETRY OPTIMIZATION CONVERGED AFTER 44 ITERATIONS ***

 final structure:
================
64
 xtb: 6.7.1 (edcfbbe)
C           -7.65195428360102       -0.80905390733983       -0.71038529715032
C           -6.53630106274521       -0.77672978960983        0.35126011241420
C           -7.07120546440991       -1.28632927494929        1.70292874334175
C           -6.06794066275953        0.65594898212221        0.52727086468239
C           -6.97391999873368        1.62409179238369        0.93980087786594
C           -6.60227139021745        2.93988725894144        1.14621444472789
C           -5.28329120951394        3.30761862426487        0.94971466181550
C           -4.36231202883016        2.36646487602581        0.53933047881405
C           -4.74065292332375        1.04035416111985        0.30840336581039
N           -3.79169548053408        0.11717669601286       -0.10827590142804
C           -2.45196824689444        0.54200825439632       -0.30534348407832
C           -2.10722483670135        1.27438434184605       -1.43797282732412
C           -0.80146074453007        1.68196734381371       -1.62223949199644
C            0.18441010607933        1.34463845924532       -0.69538216187198
C            1.57346749685254        1.81398759817968       -0.92399465037798
O            1.79688110616224        2.89104416314029       -1.45940609853593
C            2.66995137975787        0.92834194177661       -0.48067499255687
C            2.53682324644896       -0.46162438346802       -0.44138696741050
C            3.59998131334451       -1.25140068249753       -0.05970883282203
C            4.81427924770481       -0.66867769224464        0.29879211068608
S            6.10508288809488       -1.74606058418136        0.83892696827851
C            7.58471705815776       -0.80168809309583        0.51178304916790
C            7.79316774176720       -0.22944666532115       -0.73539746403108
C            8.96703334871691        0.46101531222336       -0.97756040045908
C            9.93464363088834        0.56253096082791        0.00985418442260
C            9.72801832903320       -0.02842339151130        1.24553579008631
C            8.55128290702163       -0.71090341226171        1.50225725803402
C            4.95599664873884        0.71543403578607        0.26899027128664
C            3.89700210179016        1.49888161270596       -0.13543213352451
C           -0.16901923428324        0.62426554427476        0.44539143215956
C           -1.47845604513871        0.23033309933769        0.63959695026183
C           -4.11256127334000       -1.21577551941406       -0.32407626085242
C           -3.13289504093183       -2.09595365537165       -0.79397530773000
C           -3.41816884846759       -3.42766457171322       -1.01205948792244
C           -4.69320940885144       -3.90649455745533       -0.77014211839646
C           -5.66980021577611       -3.03283191148102       -0.32827272408352
C           -5.41100852501341       -1.68720193738801       -0.10345665396129
H           -8.47692847472092       -0.16195955556193       -0.42596756291161
H           -7.26199655280041       -0.46789265224977       -1.66807416012744
H           -8.03840897021965       -1.81647687306128       -0.83700926915143
H           -6.28064836776756       -1.25248004227025        2.45091186263452
H           -7.42075969051954       -2.31165069957795        1.61925881804821
H           -7.89733317941198       -0.67176497188196        2.04953686030544
H           -8.00347789222483        1.34796472702861        1.11062648717733
H           -7.33401392556542        3.66695457179289        1.46503376777887
H           -4.96602349891370        4.32639374325175        1.11825153515273
H           -3.33328471984191        2.66042524497353        0.39969750309687
H           -2.86837145097013        1.52278988906229       -2.16260878199792
H           -0.52020995764132        2.25456506764465       -2.49395011447375
H            1.60954676818135       -0.92506364473049       -0.74197873493113
H            3.50404219016754       -2.32640956473359       -0.03858108836237
H            7.04008978135403       -0.31931602224283       -1.50467073361767
H            9.12738861217332        0.91403186597625       -1.94466518850475
H           10.85078932197206        1.09913678743851       -0.18632727153647
H           10.48120865357705        0.04482361340636        2.01580516129517
H            8.37793313031326       -1.17312971289853        2.46234354391046
H            5.88931201052567        1.17436023893750        0.55829251701645
H            3.99598206683802        2.57406128284886       -0.17224753623396
H            0.57695241952976        0.39663297272635        1.19186866883983
H           -1.75775816847221       -0.32393920401958        1.52335450015197
H           -2.13879750292248       -1.72801796347802       -0.99630824720525
H           -2.64315218874428       -4.08778894896789       -1.37334191299493
H           -4.92957652733584       -4.94744448638580       -0.93234098086785
H           -6.66378454372724       -3.41713870554900       -0.15634476783624

          :  Hamiltonian                  GFN2-xTB          :
         :: gradient norm              0.000061578812 Eh/a0 ::
         :: HOMO-LUMO gap              1.383494960734 eV    ::
         :: SCC energy               -98.548843311485 Eh    ::
         :: -> dispersion             -0.084872976388 Eh    ::
         :: -> Gsolv                  -0.043189040644 Eh    ::
         :: repulsion energy           1.699660928742 Eh    ::

    * Orbital Energies and Occupations

         #    Occupation            Energy/Eh            Energy/eV
      -------------------------------------------------------------
         1        2.0000           -0.7247858             -19.7224
       ...           ...                  ...                  ...
        78        2.0000           -0.4263359             -11.6012
        79        2.0000           -0.4241671             -11.5422
        80        2.0000           -0.4199268             -11.4268
        81        2.0000           -0.4188560             -11.3977
        82        2.0000           -0.4177106             -11.3665
        83        2.0000           -0.4082602             -11.1093
        84        2.0000           -0.4072430             -11.0816
        85        2.0000           -0.4034290             -10.9779
        86        2.0000           -0.3985980             -10.8464
        87        2.0000           -0.3976949             -10.8218
        88        2.0000           -0.3924238             -10.6784
        89        2.0000           -0.3725060             -10.1364
        90        2.0000           -0.3471248              -9.4457 (HOMO)
        91                         -0.2962823              -8.0623 (LUMO)
        92                         -0.2508252              -6.8253
        93                         -0.2442091              -6.6453
        94                         -0.2439607              -6.6385
        95                         -0.2410428              -6.5591
        96                         -0.2361250              -6.4253
        97                         -0.2242847              -6.1031
        98                         -0.2191820              -5.9642
        99                         -0.2181016              -5.9348
       100                         -0.2058106              -5.6004
       101                         -0.1910978              -5.2000
       ...                                ...                  ...
       180                          0.6781293              18.4528
      -------------------------------------------------------------
                  HL-Gap            0.0508425 Eh            1.3835 eV

     #   Z          covCN         q      C6AA      α(0)
     1   6 C        3.761    -0.104    22.525     6.766
     2   6 C        3.909     0.021    20.164     6.383
     3   6 C        3.761    -0.103    22.522     6.765
     4   6 C        2.979    -0.014    28.346     8.733
     5   6 C        2.928    -0.037    28.932     8.821
     6   6 C        2.917    -0.046    29.143     8.852
     7   6 C        2.919    -0.035    28.861     8.810
     8   6 C        2.924    -0.060    29.490     8.905
     9   6 C        2.927     0.058    26.697     8.473
    10   7 N        2.754    -0.072    22.633     7.066
    11   6 C        2.927     0.077    26.277     8.406
    12   6 C        2.919    -0.036    28.886     8.814
    13   6 C        2.923    -0.017    28.426     8.743
    14   6 C        2.972    -0.014    28.350     8.734
    15   6 C        2.829     0.227    23.243     7.900
    16   8 O        0.858    -0.422    22.126     6.307
    17   6 C        2.971    -0.019    28.472     8.753
    18   6 C        2.920    -0.024    28.615     8.772
    19   6 C        2.974    -0.036    28.884     8.816
    20   6 C        2.967     0.060    26.660     8.469
    21  16 S        2.111    -0.148   147.300    20.427
    22   6 C        2.969     0.051    26.849     8.499
    23   6 C        2.951    -0.032    28.791     8.801
    24   6 C        2.921    -0.027    28.675     8.781
    25   6 C        2.919    -0.029    28.714     8.787
    26   6 C        2.921    -0.026    28.658     8.779
    27   6 C        2.961    -0.034    28.833     8.807
    28   6 C        2.944    -0.035    28.879     8.814
    29   6 C        2.926    -0.016    28.419     8.742
    30   6 C        2.920    -0.025    28.630     8.774
    31   6 C        2.920    -0.036    28.895     8.815
    32   6 C        2.927     0.058    26.700     8.474
    33   6 C        2.924    -0.060    29.491     8.906
    34   6 C        2.919    -0.035    28.863     8.810
    35   6 C        2.917    -0.046    29.143     8.852
    36   6 C        2.928    -0.037    28.928     8.820
    37   6 C        2.979    -0.013    28.342     8.733
    38   1 H        0.925     0.042     2.427     2.436
    39   1 H        0.925     0.030     2.587     2.515
    40   1 H        0.925     0.042     2.425     2.435
    41   1 H        0.925     0.030     2.584     2.514
    42   1 H        0.925     0.042     2.424     2.435
    43   1 H        0.925     0.042     2.427     2.436
    44   1 H        0.926     0.033     2.544     2.494
    45   1 H        0.926     0.026     2.645     2.543
    46   1 H        0.926     0.026     2.640     2.541
    47   1 H        0.926     0.023     2.683     2.562
    48   1 H        0.926     0.053     2.287     2.365
    49   1 H        0.926     0.052     2.289     2.366
    50   1 H        0.926     0.051     2.302     2.373
    51   1 H        0.926     0.055     2.258     2.350
    52   1 H        0.926     0.041     2.436     2.441
    53   1 H        0.926     0.044     2.395     2.420
    54   1 H        0.926     0.044     2.392     2.419
    55   1 H        0.926     0.046     2.375     2.410
    56   1 H        0.926     0.048     2.350     2.397
    57   1 H        0.926     0.047     2.358     2.401
    58   1 H        0.926     0.052     2.295     2.369
    59   1 H        0.926     0.052     2.293     2.368
    60   1 H        0.926     0.054     2.270     2.356
    61   1 H        0.926     0.023     2.681     2.561
    62   1 H        0.926     0.027     2.624     2.533
    63   1 H        0.926     0.026     2.642     2.542
    64   1 H        0.926     0.033     2.545     2.495

molecular dipole:
                 x           y           z       tot (Debye)
 q only:        0.504      -1.007       0.563
   full:        0.575      -0.806       0.477       2.794

 projected vibrational frequencies (cm⁻¹)
eigval :       -0.00    -0.00    -0.00     0.00     0.00     0.00
eigval :        9.61    12.77    16.70    24.61    31.67    35.17
eigval :       42.28    45.98    58.47    86.19    96.89    99.52
eigval :      103.29   142.64   148.05   155.63   161.33   192.03
eigval :      212.91   215.27   224.63   233.85   240.90   247.47
eigval :      258.45   287.90   305.02   317.72   332.63   344.07
eigval :      348.16   368.50   375.32   378.21   381.07   392.23
eigval :      403.51   409.57   422.03   450.34   455.37   458.44
eigval :      479.31   489.72   514.70   515.16   545.80   546.87
eigval :      570.74   581.66   584.73   592.98   597.20   608.39
eigval :      638.03   645.50   653.46   675.55   682.36   685.14
eigval :      691.22   693.82   724.86   731.01   746.25   764.80
eigval :      774.51   777.06   815.34   820.68   828.89   863.80
eigval :      865.75   868.47   872.06   873.47   898.10   898.59
eigval :      911.46   913.08   914.93   918.33   919.19   921.35
eigval :      922.50   925.70   927.33   929.93   933.60   937.06
eigval :      942.36   957.53   962.17  1002.31  1017.03  1025.20
eigval :     1077.12  1077.66  1085.01  1095.85  1108.28  1112.57
eigval :     1113.92  1118.63  1128.96  1134.79  1139.57  1158.49
eigval :     1167.63  1174.81  1175.97  1180.31  1185.50  1186.61
eigval :     1191.81  1194.17  1210.36  1243.32  1248.55  1258.47
eigval :     1261.16  1263.57  1267.20  1271.91  1293.40  1309.18
eigval :     1314.09  1315.25  1323.94  1326.46  1333.14  1335.75
eigval :     1396.04  1398.66  1400.51  1418.96  1425.96  1435.01
eigval :     1439.34  1444.45  1449.01  1471.30  1476.52  1487.96
eigval :     1491.29  1494.90  1500.41  1503.44  1549.98  1555.94
eigval :     1565.14  1573.85  1578.25  1578.95  1581.75  1589.66
eigval :     1590.45  1600.54  1644.33  3020.65  3023.14  3039.63
eigval :     3041.69  3048.08  3052.23  3072.44  3072.52  3076.56
eigval :     3079.02  3079.42  3079.69  3082.37  3084.02  3085.64
eigval :     3085.81  3087.74  3089.74  3090.48  3091.33  3093.89
eigval :     3094.77  3096.72  3097.40  3097.81  3098.39  3099.49

   temp. (K)  partition function   enthalpy   heat capacity  entropy
                                   cal/mol     cal/K/mol   cal/K/mol   J/K/mol
 298.15  VIB  0.578E+15            18389.633    114.139    114.404
         ROT  0.532E+08              888.752      2.981     38.333
         INT  0.307E+23            19278.385    117.120    152.736
         TR   0.107E+29             1481.254      4.968     44.481
         TOT                       20759.6388   122.0877   197.2173   825.1572

       T/K    H(0)-H(T)+PV         H(T)/Eh          T*S/Eh         G(T)/Eh
   ------------------------------------------------------------------------
    298.15    0.330826E-01    0.531341E+00    0.937043E-01    0.437637E+00
   ------------------------------------------------------------------------

         :::::::::::::::::::::::::::::::::::::::::::::::::::::
         ::                  THERMODYNAMIC                  ::
         :::::::::::::::::::::::::::::::::::::::::::::::::::::
         :: total free energy         -96.411545718448 Eh   ::
         ::.................................................::
         :: total energy              -96.849182389335 Eh   ::
         :: zero point energy           0.498258390285 Eh   ::
         :: G(RRHO) w/o ZPVE           -0.060621719398 Eh   ::
         :: G(RRHO) contrib.            0.437636670886 Eh   ::
         :::::::::::::::::::::::::::::::::::::::::::::::::::::

           -------------------------------------------------
          | TOTAL ENERGY              -96.849182389335 Eh   |
          | TOTAL ENTHALPY            -96.317841408832 Eh   |
          | TOTAL FREE ENERGY         -96.411545718448 Eh   |
          | GRADIENT NORM               0.000061581842 Eh/α |
          | HOMO-LUMO GAP               1.383494205749 eV   |
           -------------------------------------------------

 * finished run on 2025/07/20 at 04:24:19.625
