   * xtb version 6.7.1 (edcfbbe) compiled by 'albert@albert-system' on 2024-07-22

   ID    Z sym.   atoms
    1    6 C      1-9, 11-15, 17-20, 22-37
    2    7 N      10
    3    8 O      16
    4   16 S      21
    5    1 H      38-64

          program call               : xtb data2507/toluene/PT-BZ-DMAC/PT-BZ-DMAC.xyz --gfn 2 --gbsa toluene --ohess vtight --parallel 40 --molden --ceasefiles --namespace data2507/toluene/PT-BZ-DMAC/PT-BZ-DMAC_toluene_S0_preOpt
      * Solvation model:               GBSA
        Solvent                        toluene
        Solvent mass                       9.2140E+01 g/mol
          :  Hamiltonian                  GFN2-xTB          :
 * total energy  :   -96.8298623 Eh     change       -0.5926921E-09 Eh
 * total energy  :   -96.8415820 Eh     change       -0.1171974E-01 Eh
 * total energy  :   -96.8447801 Eh     change       -0.3198016E-02 Eh
 * total energy  :   -96.8454898 Eh     change       -0.7097121E-03 Eh
 * total energy  :   -96.8460835 Eh     change       -0.5937323E-03 Eh
 * total energy  :   -96.8463130 Eh     change       -0.2294814E-03 Eh
 * total energy  :   -96.8464820 Eh     change       -0.1689754E-03 Eh
 * total energy  :   -96.8466866 Eh     change       -0.2046563E-03 Eh
 * total energy  :   -96.8469371 Eh     change       -0.2504726E-03 Eh
 * total energy  :   -96.8472001 Eh     change       -0.2630450E-03 Eh
 * total energy  :   -96.8489022 Eh     change       -0.8472757E-06 Eh
 * total energy  :   -96.8489030 Eh     change       -0.8278156E-06 Eh
 * total energy  :   -96.8489038 Eh     change       -0.8031363E-06 Eh
 * total energy  :   -96.8489046 Eh     change       -0.7716669E-06 Eh
 * total energy  :   -96.8489053 Eh     change       -0.7400624E-06 Eh
 * total energy  :   -96.8489060 Eh     change       -0.7123689E-06 Eh
 * total energy  :   -96.8489067 Eh     change       -0.6992185E-06 Eh
 * total energy  :   -96.8489074 Eh     change       -0.7042249E-06 Eh
 * total energy  :   -96.8489074 Eh     change       -0.4796746E-08 Eh
   *** GEOMETRY OPTIMIZATION CONVERGED AFTER 122 ITERATIONS ***

 final structure:
================
64
 xtb: 6.7.1 (edcfbbe)
C           -7.04747052711614       -0.31446780634907       -0.12820305839387
C           -5.78068881518478       -0.04066597787208        0.70421515048989
C           -6.14711063563811        0.12813465189545        2.19087163295034
C           -5.14198366530495        1.24612204069823        0.21508320534006
C           -5.86354417249397        2.43101099801560        0.27325552353011
C           -5.32904074334466        3.63912987024227       -0.13555524986267
C           -4.02982001659332        3.67715183591542       -0.60902595529956
C           -3.28979751677895        2.51508413595214       -0.67690257257963
C           -3.83474842006876        1.28963461656053       -0.28145258339613
N           -3.06564465324033        0.13729848765087       -0.36206484805392
C           -1.73623667286579        0.22822798819661       -0.85185691562889
C           -1.49902440200888        0.33891006544874       -2.21912102228323
C           -0.20405743408047        0.43664803459958       -2.68634957450677
C            0.87395439855142        0.40497411278723       -1.80168988126985
C            2.24807562132835        0.55269675829640       -2.34140582216679
O            2.46416254653401        1.21277753202721       -3.34806162712276
C            3.34217630653327       -0.11692096498158       -1.60584891802598
C            3.15674086332538       -1.32952827563884       -0.93868722529225
C            4.20940458499518       -1.92769636676683       -0.27885761191928
C            5.46247667957574       -1.31904969501200       -0.26287014258857
S            6.76966629526934       -2.14898332391350        0.58956920681075
C            7.84920036393287       -0.80276967807324        1.05016628238665
C            9.21118415730013       -0.92660593544651        0.82056864270478
C           10.06451678879361        0.08834654436324        1.21871047836235
C            9.55997716317483        1.21914498410587        1.83949886789257
C            8.19824414190856        1.33203074659657        2.07281289466566
C            7.33873973975835        0.31880140650503        1.68890461312233
C            5.66664296392857       -0.12900765674285       -0.95435576717233
C            4.61454499802643        0.45729465274250       -1.62428141206903
C            0.62975747448474        0.30453863897270       -0.43204467827750
C           -0.66607470470949        0.21904418286132        0.03803280978942
C           -3.55211592809668       -1.09794596337900        0.04120918962345
C           -2.75148234277988       -2.23571467574679       -0.09899673154434
C           -3.20493098441411       -3.47737006582576        0.29501009584207
C           -4.47298323251916       -3.60802008527968        0.83220082160404
C           -5.27388644769291       -2.48712410801323        0.95324485029166
C           -4.84334246238819       -1.22566514499773        0.56413802592260
H           -7.74554278878495        0.51487703842459       -0.05616069591578
H           -6.78135582116167       -0.44936546380643       -1.17533086566763
H           -7.55121644283735       -1.21337222312781        0.21597780254613
H           -5.25082458902105        0.33712745548124        2.77268854938608
H           -6.60651503984934       -0.77566217920108        2.58151132901852
H           -6.84356120801732        0.95074293386858        2.32737071085175
H           -6.87446810544198        2.41791269090367        0.65167639556180
H           -5.91957749244230        4.54121546596888       -0.07809125430423
H           -3.58689079535381        4.61102267100082       -0.92317924752148
H           -2.27359801449570        2.55651126454220       -1.03821014812573
H           -2.33405753322006        0.35434535557563       -2.90370933651842
H           -0.00416936992379        0.52880335511435       -3.74385978620950
H            2.19164724324148       -1.81286371587239       -0.95413607089704
H            4.07208680233432       -2.86770651832068        0.23381332641435
H            9.59321528562242       -1.81100661217369        0.33339957924930
H           11.12505756717947       -0.00530141552281        1.03852128162778
H           10.22677531264246        2.01173485633563        2.14446956371401
H            7.80169944732091        2.20878813577178        2.56304700758214
H            6.27791073346000        0.39837704469568        1.87576468885666
H            6.64307916013790        0.33126551100693       -0.97055829988247
H            4.75954523442834        1.37887256484802       -2.16897461806775
H            1.45330220164689        0.32212139222033        0.26542435178281
H           -0.86057693598260        0.14643728041905        1.09783126563945
H           -1.76554868211555       -2.14412145302163       -0.52829262038264
H           -2.56667161628975       -4.34110510055815        0.17845011448967
H           -4.84006540161579       -4.57345717832962        1.14679489638265
H           -6.26515746146285       -2.60565871664872        1.36390438648212

          :  Hamiltonian                  GFN2-xTB          :
         :: gradient norm              0.000055636258 Eh/a0 ::
         :: HOMO-LUMO gap              1.371538247098 eV    ::
         :: SCC energy               -98.548615174759 Eh    ::
         :: -> dispersion             -0.084824208596 Eh    ::
         :: -> Gsolv                  -0.043265652819 Eh    ::
         :: repulsion energy           1.699707730676 Eh    ::

    * Orbital Energies and Occupations

         #    Occupation            Energy/Eh            Energy/eV
      -------------------------------------------------------------
         1        2.0000           -0.7243025             -19.7093
       ...           ...                  ...                  ...
        78        2.0000           -0.4266187             -11.6089
        79        2.0000           -0.4246546             -11.5554
        80        2.0000           -0.4206651             -11.4469
        81        2.0000           -0.4190933             -11.4041
        82        2.0000           -0.4176528             -11.3649
        83        2.0000           -0.4084735             -11.1151
        84        2.0000           -0.4074089             -11.0862
        85        2.0000           -0.4035516             -10.9812
        86        2.0000           -0.3990342             -10.8583
        87        2.0000           -0.3978901             -10.8271
        88        2.0000           -0.3925766             -10.6826
        89        2.0000           -0.3720833             -10.1249
        90        2.0000           -0.3472213              -9.4484 (HOMO)
        91                         -0.2968182              -8.0768 (LUMO)
        92                         -0.2513789              -6.8404
        93                         -0.2447886              -6.6610
        94                         -0.2438003              -6.6341
        95                         -0.2413920              -6.5686
        96                         -0.2359421              -6.4203
        97                         -0.2243940              -6.1061
        98                         -0.2193030              -5.9675
        99                         -0.2182469              -5.9388
       100                         -0.2067857              -5.6269
       101                         -0.1908967              -5.1946
       ...                                ...                  ...
       180                          0.6778681              18.4457
      -------------------------------------------------------------
                  HL-Gap            0.0504031 Eh            1.3715 eV

     #   Z          covCN         q      C6AA      α(0)
     1   6 C        3.761    -0.104    22.525     6.766
     2   6 C        3.908     0.021    20.164     6.383
     3   6 C        3.761    -0.103    22.523     6.765
     4   6 C        2.979    -0.014    28.346     8.733
     5   6 C        2.928    -0.037    28.931     8.821
     6   6 C        2.917    -0.046    29.144     8.853
     7   6 C        2.919    -0.035    28.861     8.810
     8   6 C        2.924    -0.060    29.492     8.906
     9   6 C        2.927     0.058    26.696     8.473
    10   7 N        2.754    -0.072    22.641     7.067
    11   6 C        2.927     0.078    26.262     8.404
    12   6 C        2.919    -0.035    28.877     8.812
    13   6 C        2.924    -0.016    28.412     8.741
    14   6 C        2.972    -0.014    28.352     8.734
    15   6 C        2.829     0.227    23.235     7.899
    16   8 O        0.858    -0.421    22.096     6.302
    17   6 C        2.971    -0.018    28.454     8.750
    18   6 C        2.921    -0.024    28.615     8.772
    19   6 C        2.971    -0.036    28.880     8.815
    20   6 C        2.967     0.059    26.663     8.470
    21  16 S        2.109    -0.152   147.443    20.437
    22   6 C        2.969     0.051    26.842     8.498
    23   6 C        2.960    -0.034    28.835     8.808
    24   6 C        2.921    -0.026    28.659     8.779
    25   6 C        2.919    -0.029    28.720     8.788
    26   6 C        2.921    -0.027    28.679     8.782
    27   6 C        2.952    -0.032    28.799     8.802
    28   6 C        2.946    -0.035    28.862     8.811
    29   6 C        2.926    -0.017    28.427     8.744
    30   6 C        2.920    -0.025    28.626     8.774
    31   6 C        2.920    -0.036    28.890     8.814
    32   6 C        2.927     0.058    26.698     8.474
    33   6 C        2.924    -0.060    29.492     8.906
    34   6 C        2.919    -0.035    28.862     8.810
    35   6 C        2.917    -0.046    29.144     8.853
    36   6 C        2.928    -0.037    28.928     8.820
    37   6 C        2.979    -0.014    28.344     8.733
    38   1 H        0.925     0.042     2.428     2.437
    39   1 H        0.925     0.030     2.587     2.515
    40   1 H        0.925     0.042     2.425     2.435
    41   1 H        0.925     0.030     2.584     2.514
    42   1 H        0.925     0.042     2.424     2.435
    43   1 H        0.925     0.042     2.428     2.437
    44   1 H        0.926     0.033     2.544     2.494
    45   1 H        0.926     0.026     2.646     2.544
    46   1 H        0.926     0.026     2.641     2.541
    47   1 H        0.926     0.023     2.689     2.564
    48   1 H        0.926     0.053     2.282     2.362
    49   1 H        0.926     0.054     2.273     2.358
    50   1 H        0.926     0.051     2.303     2.373
    51   1 H        0.926     0.055     2.256     2.349
    52   1 H        0.926     0.047     2.360     2.402
    53   1 H        0.926     0.045     2.380     2.413
    54   1 H        0.926     0.044     2.395     2.420
    55   1 H        0.926     0.044     2.393     2.419
    56   1 H        0.926     0.041     2.436     2.440
    57   1 H        0.926     0.047     2.361     2.403
    58   1 H        0.926     0.051     2.301     2.372
    59   1 H        0.926     0.053     2.286     2.364
    60   1 H        0.926     0.054     2.265     2.353
    61   1 H        0.926     0.023     2.683     2.561
    62   1 H        0.926     0.027     2.626     2.534
    63   1 H        0.926     0.026     2.643     2.542
    64   1 H        0.926     0.033     2.547     2.495

molecular dipole:
                 x           y           z       tot (Debye)
 q only:        0.289      -0.291       1.451
   full:        0.321      -0.083       1.409       3.680

 projected vibrational frequencies (cm⁻¹)
eigval :       -0.00    -0.00    -0.00     0.00     0.00     0.00
eigval :       -4.00     7.32    17.66    24.07    33.30    37.07
eigval :       42.70    46.84    58.37    85.94    96.84    98.87
eigval :      104.77   132.85   138.69   149.30   161.42   190.89
eigval :      196.29   207.01   220.33   231.84   237.76   251.49
eigval :      259.08   284.60   305.15   320.95   331.29   345.05
eigval :      345.95   368.18   371.88   377.93   382.36   390.15
eigval :      407.05   409.63   415.79   450.51   451.04   464.96
eigval :      480.82   489.47   513.75   515.95   545.68   547.55
eigval :      570.11   581.26   584.31   593.15   596.55   608.52
eigval :      640.17   646.14   652.19   675.22   682.93   684.25
eigval :      691.86   694.12   724.52   731.16   749.55   764.40
eigval :      777.37   779.85   813.75   819.97   828.45   861.03
eigval :      866.34   868.25   872.80   873.36   898.10   901.20
eigval :      913.82   914.27   915.45   916.83   921.23   924.89
eigval :      925.14   926.32   926.90   931.77   933.14   936.76
eigval :      942.44   956.25   961.75  1002.57  1013.80  1024.67
eigval :     1076.11  1077.83  1084.65  1096.03  1108.45  1112.67
eigval :     1114.79  1118.78  1127.64  1135.62  1140.03  1158.05
eigval :     1167.58  1174.51  1178.67  1180.05  1186.10  1187.65
eigval :     1192.30  1194.07  1210.15  1243.01  1248.89  1257.37
eigval :     1260.58  1263.97  1268.25  1272.41  1293.26  1309.96
eigval :     1314.16  1315.45  1323.79  1325.79  1333.01  1336.57
eigval :     1395.24  1398.93  1399.83  1418.47  1426.69  1435.42
eigval :     1439.64  1444.67  1449.42  1470.59  1476.68  1486.62
eigval :     1487.49  1495.34  1497.10  1502.57  1551.18  1556.37
eigval :     1567.09  1573.81  1578.30  1579.33  1582.03  1589.58
eigval :     1590.26  1600.40  1645.69  3020.69  3023.15  3038.60
eigval :     3040.70  3047.15  3051.22  3070.84  3072.63  3077.16
eigval :     3078.52  3079.81  3081.06  3083.08  3084.80  3086.71
eigval :     3087.21  3088.25  3089.80  3090.34  3091.86  3093.61
eigval :     3094.72  3096.74  3097.31  3098.18  3098.52  3099.04

   temp. (K)  partition function   enthalpy   heat capacity  entropy
                                   cal/mol     cal/K/mol   cal/K/mol   J/K/mol
 298.15  VIB  0.251E+16            18457.962    114.266    116.375
         ROT  0.548E+08              888.752      2.981     38.394
         INT  0.138E+24            19346.714    117.247    154.769
         TR   0.107E+29             1481.254      4.968     44.481
         TOT                       20827.9682   122.2149   199.2497   833.6609

       T/K    H(0)-H(T)+PV         H(T)/Eh          T*S/Eh         G(T)/Eh
   ------------------------------------------------------------------------
    298.15    0.331915E-01    0.531331E+00    0.946700E-01    0.436661E+00
   ------------------------------------------------------------------------

         :::::::::::::::::::::::::::::::::::::::::::::::::::::
         ::                  THERMODYNAMIC                  ::
         :::::::::::::::::::::::::::::::::::::::::::::::::::::
         :: total free energy         -96.412246646706 Eh   ::
         ::.................................................::
         :: total energy              -96.848907448031 Eh   ::
         :: zero point energy           0.498139296729 Eh   ::
         :: G(RRHO) w/o ZPVE           -0.061478495404 Eh   ::
         :: G(RRHO) contrib.            0.436660801325 Eh   ::
         :::::::::::::::::::::::::::::::::::::::::::::::::::::

           -------------------------------------------------
          | TOTAL ENERGY              -96.848907448031 Eh   |
          | TOTAL ENTHALPY            -96.317576671319 Eh   |
          | TOTAL FREE ENERGY         -96.412246646706 Eh   |
          | GRADIENT NORM               0.000055636470 Eh/α |
          | HOMO-LUMO GAP               1.371538317525 eV   |
           -------------------------------------------------

 * finished run on 2025/07/20 at 04:19:28.022
