   * xtb version 6.7.1 (edcfbbe) compiled by 'albert@albert-system' on 2024-07-22

   ID    Z sym.   atoms
    1    6 C      1-9, 11-15, 17-20, 22-37
    2    7 N      10
    3    8 O      16
    4   16 S      21
    5    1 H      38-64

          program call               : xtb data2507/toluene/PT-BZ-DMAC/PT-BZ-DMAC_toluene_S0_finalOpt.xtbopt.xyz --gfn 2 --uhf 2 --gbsa toluene --ohess vtight --parallel 40 --molden --ceasefiles --namespace data2507/toluene/PT-BZ-DMAC/PT-BZ-DMAC_toluene_T1_preOpt
      * Solvation model:               GBSA
        Solvent                        toluene
        Solvent mass                       9.2140E+01 g/mol
          :  Hamiltonian                  GFN2-xTB          :
 * total energy  :   -96.7661393 Eh     change       -0.3039645E-08 Eh
 * total energy  :   -96.7698838 Eh     change       -0.3744520E-02 Eh
 * total energy  :   -96.7708299 Eh     change       -0.9461006E-03 Eh
 * total energy  :   -96.7709940 Eh     change       -0.1641149E-03 Eh
 * total energy  :   -96.7711710 Eh     change       -0.1769797E-03 Eh
 * total energy  :   -96.7713540 Eh     change       -0.1830632E-03 Eh
 * total energy  :   -96.7715854 Eh     change       -0.2314004E-03 Eh
 * total energy  :   -96.7717486 Eh     change       -0.1632023E-03 Eh
 * total energy  :   -96.7718282 Eh     change       -0.7951936E-04 Eh
 * total energy  :   -96.7718853 Eh     change       -0.5718558E-04 Eh
 * total energy  :   -96.7730913 Eh     change       -0.4820078E-06 Eh
 * total energy  :   -96.7730920 Eh     change       -0.6578637E-06 Eh
 * total energy  :   -96.7730928 Eh     change       -0.7905136E-06 Eh
 * total energy  :   -96.7730934 Eh     change       -0.6224189E-06 Eh
 * total energy  :   -96.7730937 Eh     change       -0.3377404E-06 Eh
 * total energy  :   -96.7730940 Eh     change       -0.2522324E-06 Eh
 * total energy  :   -96.7730942 Eh     change       -0.1987985E-06 Eh
 * total energy  :   -96.7730943 Eh     change       -0.1378686E-06 Eh
 * total energy  :   -96.7730944 Eh     change       -0.8877562E-07 Eh
   *** GEOMETRY OPTIMIZATION CONVERGED AFTER 116 ITERATIONS ***

 final structure:
================
64
 xtb: 6.7.1 (edcfbbe)
C           -7.71307719200966       -0.72857153750388       -0.73923482137719
C           -6.58533936976955       -0.79454439966725        0.31078466890704
C           -7.13208920724863       -1.35220610152403        1.64059439161654
C           -6.06314034969755        0.60480266625716        0.55053438056735
C           -6.91980240172738        1.59052172121038        1.02179865363900
C           -6.48699659684359        2.88197920353445        1.26198865521450
C           -5.15950497727852        3.21589602264734        1.02982676553598
C           -4.28607467347018        2.26171712905868        0.56196912435519
C           -4.72084431127835        0.94970019284214        0.31358053058894
N           -3.82274201352554        0.01744894463918       -0.15447329470677
C           -2.46813467816551        0.40903271513775       -0.36693633719859
C           -2.07740743965219        0.97755045701322       -1.58101686003391
C           -0.76992901668254        1.34717436493643       -1.77348871826110
C            0.20418572714934        1.14582046995024       -0.77300398403942
C            1.55915942697204        1.60080412309138       -1.02232830282644
O            1.77647129158686        2.49318265849029       -1.90469310780779
C            2.67659188869573        1.04352597322395       -0.28408951239244
C            2.67911645515161       -0.25570752551811        0.26336739213877
C            3.78125572452429       -0.73961377423553        0.92459315293708
C            4.93140313083805        0.04307030492572        1.04052173871798
S            6.30489715617434       -0.58634940658141        1.96040282600147
C            7.67957940110466       -0.35584665031588        0.86092944147043
C            7.51958247922561       -0.28007640855664       -0.51693214268218
C            8.63175506302399       -0.11765297056426       -1.32273719847876
C            9.89863465186584       -0.04218225629048       -0.76564108057474
C           10.05445358746027       -0.13326956070405        0.60947645997276
C            8.95013295958605       -0.28976992257782        1.42493736116652
C            4.96520492327902        1.32076836306818        0.47395131005550
C            3.86870951814556        1.79594975686993       -0.19585594013333
C           -0.22001582201242        0.61107810669925        0.45780358026828
C           -1.53058538543664        0.24448366426095        0.65399548670206
C           -4.18673307050829       -1.28488182797263       -0.41181064739400
C           -3.22531857531925       -2.18500810454624       -0.89908396166153
C           -3.55646472838640       -3.49350314745348       -1.16441683500434
C           -4.85531512751813       -3.93380306605813       -0.94818987696770
C           -5.80730328761344       -3.05023651267960       -0.47294196002898
C           -5.50525936303174       -1.72322647044923       -0.19796803878593
H           -8.51848171876220       -0.08518496857781       -0.39849790775744
H           -7.32638459959248       -0.33101339757389       -1.67568147289186
H           -8.12135966438131       -1.71683562954504       -0.92713574203727
H           -6.33491748451639       -1.39895862411510        2.38004495802411
H           -7.53284622953924       -2.35164706636146        1.50221036191009
H           -7.92341523943073       -0.71737795305414        2.02718051988674
H           -7.95426759317294        1.35005017437585        1.20968671747276
H           -7.17879368798090        3.62433104672552        1.62913336980608
H           -4.80708432197200        4.21915289306081        1.21459904510104
H           -3.25391625547829        2.51797347908717        0.38249191862386
H           -2.81046188818786        1.12117108366528       -2.36165242612100
H           -0.44948102946032        1.79589084041341       -2.70263413773155
H            1.82012334931345       -0.89550179261223        0.13002157052016
H            3.77645422258222       -1.73632906758869        1.34151469211501
H            6.53452029151016       -0.34842971764513       -0.95468437634394
H            8.50374853402260       -0.05612520979390       -2.39340155230141
H           10.76174228307543        0.08473251457402       -1.40155865816727
H           11.03914573493419       -0.07834512696685        1.04906961626244
H            9.05789279799010       -0.35815889887004        2.49688841139696
H            5.85674439234038        1.92522450588252        0.56393365762173
H            3.88046487850625        2.77608389259263       -0.65095399880896
H            0.48139599953305        0.52622932988493        1.27366886490228
H           -1.84802900773802       -0.16033252135849        1.60435184903719
H           -2.21794199361254       -1.83855733695370       -1.06744385695091
H           -2.80444983954633       -4.17075186485860       -1.53942807237845
H           -5.12375109546479       -4.95902924063802       -1.15157306311432
H           -6.81156938005454       -3.41034128600868       -0.31475898938100

          :  Hamiltonian                  GFN2-xTB          :
         :: gradient norm              0.000038478919 Eh/a0 ::
         :: HOMO-LUMO gap              0.947689663664 eV    ::
         :: SCC energy               -98.459078917936 Eh    ::
         :: -> dispersion             -0.084561740120 Eh    ::
         :: -> Gsolv                  -0.055160219752 Eh    ::
         :: repulsion energy           1.685984517123 Eh    ::

    * Orbital Energies and Occupations

         #    Occupation            Energy/Eh            Energy/eV
      -------------------------------------------------------------
         1        2.0000           -0.7230890             -19.6763
       ...           ...                  ...                  ...
        79        2.0000           -0.4228760             -11.5070
        80        2.0000           -0.4212806             -11.4636
        81        2.0000           -0.4172678             -11.3544
        82        2.0000           -0.4154528             -11.3050
        83        2.0000           -0.4111131             -11.1870
        84        2.0000           -0.4106375             -11.1740
        85        2.0000           -0.4066998             -11.0669
        86        2.0000           -0.4030839             -10.9685
        87        2.0000           -0.4005102             -10.8984
        88        1.9731           -0.3709247             -10.0934
        89        1.6914           -0.3682811             -10.0214
        90        1.3355           -0.3668658              -9.9829
        91        1.0000           -0.2812023              -7.6519 (HOMO)
        92                         -0.2463756              -6.7042 (LUMO)
        93                         -0.2411133              -6.5610
        94                         -0.2373365              -6.4583
        95                         -0.2368109              -6.4440
        96                         -0.2350691              -6.3966
        97                         -0.2336268              -6.3573
        98                         -0.2255857              -6.1385
        99                         -0.2219281              -6.0390
       100                         -0.2107942              -5.7360
       101                         -0.1944003              -5.2899
       102                         -0.1729278              -4.7056
       ...                                ...                  ...
       180                          0.6694611              18.2170
      -------------------------------------------------------------
                  HL-Gap            0.0348267 Eh            0.9477 eV

     #   Z          covCN         q      C6AA      α(0)
     1   6 C        3.761    -0.108    22.619     6.780
     2   6 C        3.909     0.025    20.095     6.372
     3   6 C        3.761    -0.109    22.621     6.780
     4   6 C        2.978     0.001    27.994     8.679
     5   6 C        2.924    -0.032    28.788     8.799
     6   6 C        2.917    -0.028    28.706     8.786
     7   6 C        2.917    -0.026    28.648     8.777
     8   6 C        2.922    -0.044    29.104     8.847
     9   6 C        2.930     0.062    26.606     8.459
    10   7 N        2.755    -0.008    21.407     6.872
    11   6 C        2.930     0.037    27.167     8.548
    12   6 C        2.914    -0.041    29.016     8.833
    13   6 C        2.925    -0.030    28.754     8.794
    14   6 C        2.967    -0.018    28.466     8.751
    15   6 C        2.833     0.163    24.472     8.107
    16   8 O        0.858    -0.522    24.271     6.605
    17   6 C        2.967    -0.017    28.440     8.748
    18   6 C        2.919    -0.044    29.086     8.844
    19   6 C        2.958    -0.039    28.956     8.826
    20   6 C        2.967     0.029    27.348     8.578
    21  16 S        2.109    -0.113   145.779    20.321
    22   6 C        2.968     0.050    26.877     8.504
    23   6 C        2.946    -0.033    28.822     8.805
    24   6 C        2.921    -0.027    28.667     8.780
    25   6 C        2.919    -0.030    28.738     8.791
    26   6 C        2.920    -0.026    28.652     8.778
    27   6 C        2.971    -0.035    28.866     8.813
    28   6 C        2.944    -0.036    28.904     8.818
    29   6 C        2.925    -0.031    28.785     8.798
    30   6 C        2.919    -0.042    29.045     8.838
    31   6 C        2.916    -0.041    29.013     8.833
    32   6 C        2.931     0.062    26.608     8.459
    33   6 C        2.922    -0.045    29.108     8.848
    34   6 C        2.917    -0.026    28.649     8.777
    35   6 C        2.917    -0.028    28.708     8.786
    36   6 C        2.924    -0.032    28.787     8.799
    37   6 C        2.978     0.001    27.993     8.679
    38   1 H        0.925     0.054     2.270     2.356
    39   1 H        0.925     0.038     2.472     2.459
    40   1 H        0.925     0.054     2.268     2.355
    41   1 H        0.925     0.039     2.466     2.456
    42   1 H        0.925     0.054     2.267     2.355
    43   1 H        0.925     0.054     2.270     2.356
    44   1 H        0.926     0.054     2.266     2.354
    45   1 H        0.926     0.048     2.348     2.396
    46   1 H        0.926     0.044     2.394     2.419
    47   1 H        0.926     0.043     2.406     2.426
    48   1 H        0.926     0.037     2.484     2.465
    49   1 H        0.926     0.034     2.525     2.485
    50   1 H        0.926     0.037     2.494     2.470
    51   1 H        0.926     0.039     2.459     2.452
    52   1 H        0.926     0.037     2.491     2.468
    53   1 H        0.926     0.042     2.420     2.433
    54   1 H        0.926     0.045     2.388     2.417
    55   1 H        0.926     0.047     2.358     2.401
    56   1 H        0.926     0.048     2.341     2.393
    57   1 H        0.926     0.031     2.570     2.507
    58   1 H        0.926     0.032     2.563     2.504
    59   1 H        0.926     0.037     2.489     2.467
    60   1 H        0.926     0.039     2.468     2.456
    61   1 H        0.926     0.044     2.399     2.422
    62   1 H        0.926     0.045     2.386     2.416
    63   1 H        0.926     0.048     2.348     2.396
    64   1 H        0.926     0.054     2.269     2.356

molecular dipole:
                 x           y           z       tot (Debye)
 q only:       -4.511      -2.363       1.384
   full:       -4.402      -2.194       1.139      12.832

 projected vibrational frequencies (cm⁻¹)
eigval :       -0.00    -0.00     0.00     0.00     0.00     0.00
eigval :        6.22    11.28    15.00    23.19    30.71    38.43
eigval :       48.60    50.10    63.50    89.90    96.76    99.57
eigval :      110.33   133.50   141.70   156.29   162.19   179.87
eigval :      200.53   214.81   217.01   224.09   235.11   247.63
eigval :      267.47   299.19   304.59   317.99   323.38   337.13
eigval :      346.58   367.03   372.18   377.61   386.78   389.18
eigval :      396.88   408.05   418.80   439.11   443.74   447.41
eigval :      465.91   491.23   499.52   523.25   535.40   540.52
eigval :      563.27   565.66   582.36   584.04   590.69   599.98
eigval :      606.16   637.01   648.08   652.43   666.01   679.82
eigval :      680.67   688.88   703.83   718.80   742.42   758.36
eigval :      771.66   773.69   792.52   806.55   825.48   842.36
eigval :      857.04   867.81   870.94   872.02   889.28   894.08
eigval :      897.20   906.43   910.31   912.06   915.37   915.83
eigval :      923.01   924.10   924.13   926.79   929.51   934.57
eigval :      936.35   957.51   960.93   983.25  1004.54  1010.84
eigval :     1071.78  1076.26  1079.01  1082.75  1092.25  1102.98
eigval :     1108.40  1116.36  1126.81  1133.14  1136.03  1142.41
eigval :     1158.79  1165.66  1170.18  1176.45  1180.10  1180.85
eigval :     1191.75  1194.09  1212.87  1234.65  1238.08  1252.04
eigval :     1254.14  1254.74  1262.94  1271.27  1290.97  1305.21
eigval :     1309.31  1318.17  1320.78  1328.44  1330.85  1335.35
eigval :     1395.43  1402.95  1406.87  1410.35  1413.70  1423.28
eigval :     1424.07  1424.90  1431.11  1438.50  1446.94  1450.25
eigval :     1470.99  1476.72  1479.93  1481.09  1485.18  1490.72
eigval :     1495.05  1532.25  1544.80  1557.26  1570.01  1572.07
eigval :     1574.27  1583.74  1584.99  3028.64  3030.37  3051.01
eigval :     3052.99  3057.54  3061.34  3067.25  3071.96  3073.65
eigval :     3075.70  3077.28  3080.79  3081.21  3084.77  3086.47
eigval :     3086.74  3087.53  3090.24  3091.80  3092.30  3093.81
eigval :     3093.96  3098.24  3102.86  3103.31  3109.86  3110.16

   temp. (K)  partition function   enthalpy   heat capacity  entropy
                                   cal/mol     cal/K/mol   cal/K/mol   J/K/mol
 298.15  VIB  0.105E+16            18567.774    115.697    116.095
         ROT  0.539E+08              888.752      2.981     38.361
         INT  0.568E+23            19456.526    118.678    154.456
         TR   0.107E+29             1481.254      4.968     44.481
         TOT                       20937.7803   123.6461   198.9367   832.3512

       T/K    H(0)-H(T)+PV         H(T)/Eh          T*S/Eh         G(T)/Eh
   ------------------------------------------------------------------------
    298.15    0.333665E-01    0.528674E+00    0.945213E-01    0.434153E+00
   ------------------------------------------------------------------------

         :::::::::::::::::::::::::::::::::::::::::::::::::::::
         ::                  THERMODYNAMIC                  ::
         :::::::::::::::::::::::::::::::::::::::::::::::::::::
         :: total free energy         -96.338941391067 Eh   ::
         ::.................................................::
         :: total energy              -96.773094402323 Eh   ::
         :: zero point energy           0.495307785366 Eh   ::
         :: G(RRHO) w/o ZPVE           -0.061154774110 Eh   ::
         :: G(RRHO) contrib.            0.434153011257 Eh   ::
         :::::::::::::::::::::::::::::::::::::::::::::::::::::

           -------------------------------------------------
          | TOTAL ENERGY              -96.773094402323 Eh   |
          | TOTAL ENTHALPY            -96.244420140171 Eh   |
          | TOTAL FREE ENERGY         -96.338941391067 Eh   |
          | GRADIENT NORM               0.000038768424 Eh/α |
          | HOMO-LUMO GAP               0.947683549602 eV   |
           -------------------------------------------------

 * finished run on 2025/07/20 at 04:24:29.545
