   * xtb version 6.7.1 (edcfbbe) compiled by 'albert@albert-system' on 2024-07-22

   ID    Z sym.   atoms
    1    9 F      1, 3, 4
    2    6 C      2, 5-9, 11-24, 26-31, 33-44, 46-60
    3    7 N      10, 25, 32, 45
    4    1 H      61-93

          program call               : xtb data2507/toluene/m-CF3PIBI/m-CF3PIBI.xyz --gfn 2 --gbsa toluene --ohess vtight --parallel 40 --molden --ceasefiles --namespace data2507/toluene/m-CF3PIBI/m-CF3PIBI_toluene_S0_preOpt
      * Solvation model:               GBSA
        Solvent                        toluene
        Solvent mass                       9.2140E+01 g/mol
          :  Hamiltonian                  GFN2-xTB          :
 * total energy  :  -156.3449103 Eh     change       -0.2866955E-08 Eh
 * total energy  :  -156.3593693 Eh     change       -0.1445898E-01 Eh
 * total energy  :  -156.3632954 Eh     change       -0.3926146E-02 Eh
 * total energy  :  -156.3646338 Eh     change       -0.1338434E-02 Eh
 * total energy  :  -156.3657901 Eh     change       -0.1156238E-02 Eh
 * total energy  :  -156.3665462 Eh     change       -0.7561252E-03 Eh
 * total energy  :  -156.3671664 Eh     change       -0.6201816E-03 Eh
 * total energy  :  -156.3677158 Eh     change       -0.5494524E-03 Eh
 * total energy  :  -156.3681568 Eh     change       -0.4409183E-03 Eh
 * total energy  :  -156.3685295 Eh     change       -0.3727468E-03 Eh
 * total energy  :  -156.3701537 Eh     change       -0.5466102E-06 Eh
 * total energy  :  -156.3701541 Eh     change       -0.4354928E-06 Eh
 * total energy  :  -156.3701545 Eh     change       -0.3857637E-06 Eh
 * total energy  :  -156.3701548 Eh     change       -0.3117997E-06 Eh
 * total energy  :  -156.3701550 Eh     change       -0.2556178E-06 Eh
 * total energy  :  -156.3701552 Eh     change       -0.1973764E-06 Eh
 * total energy  :  -156.3701554 Eh     change       -0.1341342E-06 Eh
 * total energy  :  -156.3701555 Eh     change       -0.1375954E-06 Eh
 * total energy  :  -156.3701555 Eh     change       -0.1231570E-08 Eh
   *** GEOMETRY OPTIMIZATION CONVERGED AFTER 68 ITERATIONS ***

 final structure:
================
93
 xtb: 6.7.1 (edcfbbe)
F           -3.25980418358415       -3.12223478663042       -2.78240709140737
C           -3.11931939697661       -3.67592679643625       -1.56687678216866
F           -1.86639548944384       -3.36605121587110       -1.16429508919672
F           -3.11877436856479       -5.00690895667329       -1.75809627769215
C           -4.15676410932315       -3.22288518263664       -0.58189659239170
C           -4.48579264439738       -4.03947555418450        0.49267067357827
C           -5.41536654863086       -3.59600999495332        1.41937083280075
C           -6.00004042465654       -2.35029008714728        1.28372459927462
C           -5.66644041749861       -1.53661580007569        0.20207050574965
N           -6.21679562511022       -0.25102795952557        0.08014592461355
C           -5.47738391647787        0.91693172427191        0.05259760137504
C           -4.02358598058028        0.95999708083811        0.11456389714194
C           -3.29029533733556        0.15425227190693        0.98458541845013
C           -1.91164483142763        0.21166738339978        0.99338127759140
C           -1.22372670478559        1.07671678059305        0.14335809323057
C            0.24455153982067        1.11051027747256        0.13546347984623
C            0.98229518819054       -0.06906222998464        0.22659617645328
C            2.36187242070064       -0.04320340372804        0.20268019100031
C            3.05353459858858        1.16303043055025        0.09758014610221
C            4.52192144950303        1.18856555651570        0.06670897599620
C            5.23564284123762        0.21267806925729       -0.62880568285150
C            6.61488206343646        0.22846482870016       -0.66197132690906
C            7.32392692781880        1.22434840843648        0.00827588994821
C            8.77722860629106        1.28791887254321       -0.02102385341387
N            9.44264779028948        2.41067344502217       -0.09613447119912
C           10.76525554168517        2.06479374105381       -0.15631072336474
C           11.90179306952147        2.86253725675224       -0.24250035634885
C           13.12707399374630        2.23063378675336       -0.26977127889157
C           13.23593849961095        0.83966241673408       -0.20306076321228
C           12.12138080149201        0.02873475580498       -0.11978720620576
C           10.88546062164723        0.65554470553723       -0.11232348629542
N            9.59617418076955        0.17767863069072       -0.02656507158936
C            9.23016115738512       -1.16873553016072        0.15734027895375
C            8.41590444388209       -1.52900670950218        1.22641276307967
C            8.06855813574553       -2.85513108803494        1.40675844398498
C            8.53699088328716       -3.82510566775279        0.53494163810736
C            9.35369836873524       -3.46594664165660       -0.52442798567205
C            9.70042093719371       -2.14054010011754       -0.71918960049151
C            6.61528197234067        2.21502492659039        0.68768819550195
C            5.23668929765314        2.19344153844149        0.71943796607701
C            2.31500955734679        2.34294269414547        0.01520974150175
C            0.93519363342171        2.31681402798857        0.02893508524679
C           -1.96369953827069        1.90778491905312       -0.69784703541165
C           -3.34185000631925        1.85342248138281       -0.71141328475968
N           -6.23682576070243        1.97724323764993       -0.02321622373085
C           -7.52047670554842        1.52221580447770       -0.04296743703808
C           -8.71728225060610        2.29231727935242       -0.06391618911472
C           -8.68239922750899        3.69127766219842       -0.05680488461029
C           -9.84906528129704        4.41417817212965       -0.02786241746317
C          -11.06999646079405        3.74225116119140        0.00018640966633
C          -11.11652209891671        2.36760364646856       -0.01534925108937
C           -9.94644972127677        1.59313340953755       -0.05827284711812
C           -9.96288132344428        0.14138556770640       -0.11801563756223
C          -11.16373299380828       -0.57615950629833       -0.22208636908418
C          -11.18850260016902       -1.94692090057648       -0.32789994497571
C           -9.99773830387348       -2.66643138577595       -0.35629298244333
C           -8.80017964947877       -2.00254345253592       -0.25052094977435
C           -8.75378815609082       -0.60793820104548       -0.10699963968222
C           -7.54157003430904        0.13088024840621        0.00613761858207
C           -4.73929625405504       -1.97365554897374       -0.73788319783782
H           -4.02192600302862       -5.00773595505698        0.59637997616019
H           -5.67755796784090       -4.22254792268234        2.25688486904124
H           -6.71653434141443       -1.99672810968268        2.01024784333989
H           -3.79841409762981       -0.50317310215113        1.67442522793684
H           -1.35940286261518       -0.40928436323955        1.68288096545769
H            0.46714057774270       -1.01653406292776        0.29145233174323
H            2.91288312700095       -0.96872114134019        0.28433903908043
H            4.70243640969534       -0.55307379893712       -1.17242698154777
H            7.14230608291424       -0.52377161341308       -1.22998052080964
H           11.81357764933116        3.93697613873156       -0.28118479188566
H           14.02876016051496        2.82176395381917       -0.33678791016786
H           14.21708384114093        0.38831597607155       -0.21605890085295
H           12.21114648361505       -1.04552483068651       -0.05783970572470
H            8.06052193879974       -0.76827069091190        1.90587310303246
H            7.43459993322687       -3.13108556495278        2.23592730004607
H            8.26638866398247       -4.85973064432363        0.68170793930723
H            9.71966000312155       -4.21822488350288       -1.20722726637595
H           10.32316119537594       -1.85062147058285       -1.55282840921628
H            7.16795020028318        2.99354401435458        1.19120592617696
H            4.70540774701366        2.95330749949661        1.27298703223633
H            2.82919021278987        3.28768714110413       -0.08345449444595
H            0.38319908784725        3.24375504254152       -0.02530576825723
H           -1.45072254750034        2.58375724154855       -1.36560248883454
H           -3.91230381956811        2.49189647934144       -1.36879267314564
H           -7.71643979033652        4.17285650264950       -0.06501045089778
H           -9.82563699003777        5.49400328664765       -0.01956536562136
H          -11.99064777084713        4.30688909492848        0.03440898950944
H          -12.08363447725588        1.89151265709126        0.01214721218826
H          -12.10325063697154       -0.04812883979080       -0.23319646430371
H          -12.13352944346336       -2.46394649897670       -0.40623704460249
H          -10.01303088629011       -3.74044488473839       -0.46838528076076
H           -7.87984084003400       -2.56212840560042       -0.29903787616644
H           -4.47764401565928       -1.34604274410196       -1.57597525446610

          :  Hamiltonian                  GFN2-xTB          :
         :: gradient norm              0.000042549343 Eh/a0 ::
         :: HOMO-LUMO gap              2.491158262814 eV    ::
         :: SCC energy              -159.038414746755 Eh    ::
         :: -> dispersion             -0.131624315004 Eh    ::
         :: -> Gsolv                  -0.064130864576 Eh    ::
         :: repulsion energy           2.668259235210 Eh    ::

    * Orbital Energies and Occupations

         #    Occupation            Energy/Eh            Energy/eV
      -------------------------------------------------------------
         1        2.0000           -0.8919046             -24.2700
       ...           ...                  ...                  ...
       131        2.0000           -0.4144004             -11.2764
       132        2.0000           -0.4130831             -11.2406
       133        2.0000           -0.4107781             -11.1778
       134        2.0000           -0.4092499             -11.1363
       135        2.0000           -0.4071790             -11.0799
       136        2.0000           -0.4041289             -10.9969
       137        2.0000           -0.3914123             -10.6509
       138        2.0000           -0.3872863             -10.5386
       139        2.0000           -0.3855598             -10.4916
       140        2.0000           -0.3840367             -10.4502
       141        2.0000           -0.3811603             -10.3719
       142        2.0000           -0.3779261             -10.2839
       143        2.0000           -0.3692243             -10.0471 (HOMO)
       144                         -0.2776759              -7.5559 (LUMO)
       145                         -0.2726675              -7.4197
       146                         -0.2685928              -7.3088
       147                         -0.2592630              -7.0549
       148                         -0.2519757              -6.8566
       149                         -0.2494762              -6.7886
       150                         -0.2394851              -6.5167
       151                         -0.2381755              -6.4811
       152                         -0.2312218              -6.2919
       153                         -0.2300415              -6.2597
       154                         -0.2280671              -6.2060
       ...                                ...                  ...
       273                          0.7203929              19.6029
      -------------------------------------------------------------
                  HL-Gap            0.0915484 Eh            2.4912 eV

     #   Z          covCN         q      C6AA      α(0)
     1   9 F        0.791    -0.214    11.385     3.986
     2   6 C        3.337     0.487    17.266     6.579
     3   9 F        0.791    -0.219    11.433     3.994
     4   9 F        0.791    -0.213    11.369     3.983
     5   6 C        2.977    -0.021    28.521     8.760
     6   6 C        2.920    -0.022    28.564     8.764
     7   6 C        2.920    -0.017    28.440     8.745
     8   6 C        2.920    -0.028    28.711     8.787
     9   6 C        2.912     0.077    26.274     8.405
    10   7 N        2.840    -0.049    22.183     6.995
    11   6 C        3.184     0.133    24.683     8.108
    12   6 C        2.974    -0.005    28.153     8.703
    13   6 C        2.920    -0.038    28.933     8.821
    14   6 C        2.924    -0.034    28.858     8.809
    15   6 C        2.976     0.014    27.695     8.632
    16   6 C        2.976     0.009    27.814     8.651
    17   6 C        2.923    -0.034    28.854     8.809
    18   6 C        2.923    -0.034    28.848     8.808
    19   6 C        2.976     0.010    27.799     8.649
    20   6 C        2.976     0.014    27.698     8.633
    21   6 C        2.924    -0.034    28.844     8.807
    22   6 C        2.921    -0.033    28.832     8.805
    23   6 C        2.974    -0.003    28.102     8.696
    24   6 C        3.179     0.144    24.480     8.078
    25   7 N        1.885    -0.320    29.159     8.005
    26   6 C        3.189     0.069    26.003     8.318
    27   6 C        2.910    -0.048    29.188     8.859
    28   6 C        2.922    -0.042    29.038     8.837
    29   6 C        2.926    -0.040    28.983     8.829
    30   6 C        2.908    -0.054    29.344     8.882
    31   6 C        3.087     0.036    27.098     8.533
    32   7 N        2.824    -0.060    22.395     7.029
    33   6 C        2.912     0.065    26.549     8.449
    34   6 C        2.921    -0.039    28.977     8.828
    35   6 C        2.920    -0.026    28.644     8.777
    36   6 C        2.919    -0.030    28.753     8.793
    37   6 C        2.920    -0.027    28.670     8.781
    38   6 C        2.922    -0.041    29.016     8.833
    39   6 C        2.924    -0.029    28.716     8.788
    40   6 C        2.923    -0.033    28.811     8.802
    41   6 C        2.923    -0.034    28.843     8.807
    42   6 C        2.922    -0.034    28.841     8.807
    43   6 C        2.923    -0.032    28.807     8.802
    44   6 C        2.925    -0.029    28.720     8.789
    45   7 N        1.893    -0.305    28.749     7.949
    46   6 C        3.204     0.060    26.089     8.320
    47   6 C        2.985    -0.001    28.056     8.689
    48   6 C        2.921    -0.033    28.813     8.803
    49   6 C        2.917    -0.031    28.767     8.795
    50   6 C        2.917    -0.033    28.822     8.804
    51   6 C        2.921    -0.036    28.891     8.814
    52   6 C        2.979    -0.003    28.100     8.695
    53   6 C        2.979     0.001    28.008     8.681
    54   6 C        2.922    -0.034    28.848     8.808
    55   6 C        2.916    -0.033    28.816     8.803
    56   6 C        2.917    -0.032    28.786     8.798
    57   6 C        2.919    -0.042    29.040     8.837
    58   6 C        2.978    -0.004    28.122     8.699
    59   6 C        3.067     0.019    27.527     8.603
    60   6 C        2.923    -0.034    28.835     8.806
    61   1 H        0.926     0.072     2.062     2.246
    62   1 H        0.926     0.078     2.001     2.212
    63   1 H        0.926     0.071     2.074     2.252
    64   1 H        0.926     0.029     2.595     2.519
    65   1 H        0.926     0.042     2.416     2.431
    66   1 H        0.926     0.037     2.495     2.470
    67   1 H        0.926     0.037     2.486     2.466
    68   1 H        0.926     0.042     2.429     2.437
    69   1 H        0.926     0.030     2.591     2.517
    70   1 H        0.926     0.038     2.479     2.462
    71   1 H        0.926     0.034     2.534     2.489
    72   1 H        0.926     0.035     2.519     2.482
    73   1 H        0.926     0.031     2.566     2.505
    74   1 H        0.926     0.036     2.499     2.472
    75   1 H        0.926     0.046     2.374     2.409
    76   1 H        0.926     0.046     2.371     2.408
    77   1 H        0.926     0.046     2.373     2.409
    78   1 H        0.926     0.042     2.419     2.432
    79   1 H        0.926     0.046     2.376     2.410
    80   1 H        0.926     0.045     2.387     2.416
    81   1 H        0.926     0.039     2.464     2.455
    82   1 H        0.926     0.039     2.466     2.455
    83   1 H        0.926     0.045     2.380     2.412
    84   1 H        0.926     0.045     2.377     2.411
    85   1 H        0.926     0.045     2.378     2.411
    86   1 H        0.926     0.034     2.526     2.485
    87   1 H        0.926     0.034     2.532     2.488
    88   1 H        0.926     0.037     2.489     2.467
    89   1 H        0.926     0.040     2.453     2.449
    90   1 H        0.926     0.035     2.516     2.480
    91   1 H        0.926     0.034     2.525     2.485
    92   1 H        0.926     0.029     2.604     2.524
    93   1 H        0.926     0.061     2.186     2.312

molecular dipole:
                 x           y           z       tot (Debye)
 q only:       -1.444      -1.609       1.448
   full:       -1.300      -2.321       1.364       7.599

 projected vibrational frequencies (cm⁻¹)
eigval :       -0.00    -0.00    -0.00     0.00     0.00     0.00
eigval :        6.28     8.59    10.75    14.53    18.46    23.50
eigval :       26.86    28.97    42.06    46.06    47.43    57.27
eigval :       60.38    69.39    72.39    75.08    82.02    84.25
eigval :       91.20    96.54    98.67   111.30   115.81   126.40
eigval :      133.03   173.94   182.27   189.83   196.12   207.23
eigval :      209.93   220.65   233.65   241.24   251.37   261.51
eigval :      264.01   276.90   299.24   308.73   319.53   334.72
eigval :      339.52   343.94   350.55   368.54   372.65   377.45
eigval :      378.83   379.71   381.51   397.50   400.32   403.18
eigval :      411.53   418.93   434.12   436.39   439.66   444.75
eigval :      458.09   475.81   482.43   487.47   506.53   515.03
eigval :      518.34   523.41   533.86   535.35   547.95   549.60
eigval :      564.28   580.73   583.80   592.31   595.53   597.69
eigval :      598.44   605.63   608.62   613.64   636.40   644.57
eigval :      645.21   658.71   660.02   666.98   667.75   677.76
eigval :      680.03   684.40   688.61   698.01   701.82   709.59
eigval :      715.31   716.60   732.74   734.20   760.75   765.46
eigval :      768.85   773.86   782.94   787.77   799.72   801.48
eigval :      819.84   823.77   839.24   863.86   866.00   866.69
eigval :      868.62   871.11   875.14   875.71   876.23   878.62
eigval :      886.39   896.88   901.27   903.53   909.14   913.48
eigval :      915.76   918.64   920.78   922.83   923.74   924.54
eigval :      925.82   927.33   927.67   928.25   929.38   932.49
eigval :      938.23   949.42   954.69   969.46   986.40   997.82
eigval :     1003.03  1013.63  1025.91  1029.15  1041.20  1059.49
eigval :     1065.55  1076.86  1079.67  1083.11  1083.46  1085.64
eigval :     1107.16  1116.29  1124.26  1131.64  1131.95  1134.89
eigval :     1136.23  1139.36  1148.73  1150.81  1170.83  1172.67
eigval :     1178.18  1178.68  1181.52  1184.49  1188.60  1193.33
eigval :     1199.35  1200.18  1205.23  1207.56  1231.70  1253.69
eigval :     1257.70  1257.86  1259.73  1267.41  1270.09  1273.72
eigval :     1275.11  1278.51  1281.06  1290.51  1296.96  1311.20
eigval :     1313.39  1314.50  1316.27  1317.19  1318.47  1322.65
eigval :     1328.49  1336.74  1344.40  1361.20  1366.73  1371.85
eigval :     1387.11  1397.46  1406.39  1410.08  1411.80  1415.70
eigval :     1425.68  1432.11  1433.71  1437.89  1456.50  1466.95
eigval :     1473.81  1478.28  1485.67  1501.65  1511.76  1515.62
eigval :     1532.28  1544.32  1551.36  1557.59  1562.53  1565.50
eigval :     1569.12  1573.88  1582.41  1585.15  1587.53  1588.74
eigval :     1592.32  1592.59  1595.04  1602.81  1603.66  1614.14
eigval :     3070.57  3073.39  3074.13  3075.56  3076.12  3078.16
eigval :     3078.29  3079.78  3079.99  3081.34  3081.35  3083.37
eigval :     3084.66  3085.31  3085.39  3087.61  3088.23  3089.04
eigval :     3090.30  3091.68  3092.14  3093.90  3097.28  3097.70
eigval :     3098.52  3099.33  3099.76  3100.28  3103.59  3104.47
eigval :     3110.66  3112.84  3113.47

   temp. (K)  partition function   enthalpy   heat capacity  entropy
                                   cal/mol     cal/K/mol   cal/K/mol   J/K/mol
 298.15  VIB  0.223E+24            28064.531    174.016    177.706
         ROT  0.247E+09              888.752      2.981     41.383
         INT  0.549E+32            28953.283    176.997    219.089
         TR   0.212E+29             1481.254      4.968     45.831
         TOT                       30434.5374   181.9651   264.9198  1108.4245

       T/K    H(0)-H(T)+PV         H(T)/Eh          T*S/Eh         G(T)/Eh
   ------------------------------------------------------------------------
    298.15    0.485005E-01    0.742233E+00    0.125872E+00    0.616361E+00
   ------------------------------------------------------------------------

         :::::::::::::::::::::::::::::::::::::::::::::::::::::
         ::                  THERMODYNAMIC                  ::
         :::::::::::::::::::::::::::::::::::::::::::::::::::::
         :: total free energy        -155.753794845236 Eh   ::
         ::.................................................::
         :: total energy             -156.370155511479 Eh   ::
         :: zero point energy           0.693732094141 Eh   ::
         :: G(RRHO) w/o ZPVE           -0.077371427898 Eh   ::
         :: G(RRHO) contrib.            0.616360666243 Eh   ::
         :::::::::::::::::::::::::::::::::::::::::::::::::::::

           -------------------------------------------------
          | TOTAL ENERGY             -156.370155511479 Eh   |
          | TOTAL ENTHALPY           -155.627922894857 Eh   |
          | TOTAL FREE ENERGY        -155.753794845236 Eh   |
          | GRADIENT NORM               0.000042552889 Eh/α |
          | HOMO-LUMO GAP               2.491158229951 eV   |
           -------------------------------------------------

 * finished run on 2025/07/18 at 15:44:21.993
