   * xtb version 6.7.1 (edcfbbe) compiled by 'albert@albert-system' on 2024-07-22

   ID    Z sym.   atoms
    1    9 F      1, 3, 4
    2    6 C      2, 5-9, 11-24, 26-31, 33-44, 46-60
    3    7 N      10, 25, 32, 45
    4    1 H      61-93

          program call               : xtb data2507/toluene/m-CF3PIBI/m-CF3PIBI_toluene_S0_finalOpt.xtbopt.xyz --gfn 2 --uhf 2 --gbsa toluene --ohess vtight --parallel 40 --molden --ceasefiles --namespace data2507/toluene/m-CF3PIBI/m-CF3PIBI_toluene_T1_preOpt
      * Solvation model:               GBSA
        Solvent                        toluene
        Solvent mass                       9.2140E+01 g/mol
          :  Hamiltonian                  GFN2-xTB          :
 * total energy  :  -156.2732859 Eh     change        0.8526513E-09 Eh
 * total energy  :  -156.2785931 Eh     change       -0.5307183E-02 Eh
 * total energy  :  -156.2815077 Eh     change       -0.2914680E-02 Eh
 * total energy  :  -156.2823780 Eh     change       -0.8702800E-03 Eh
 * total energy  :  -156.2833775 Eh     change       -0.9994656E-03 Eh
 * total energy  :  -156.2839657 Eh     change       -0.5881869E-03 Eh
 * total energy  :  -156.2843755 Eh     change       -0.4098358E-03 Eh
 * total energy  :  -156.2846723 Eh     change       -0.2967948E-03 Eh
 * total energy  :  -156.2849137 Eh     change       -0.2413977E-03 Eh
 * total energy  :  -156.2850890 Eh     change       -0.1752814E-03 Eh
 * total energy  :  -156.2857413 Eh     change       -0.1608965E-05 Eh
 * total energy  :  -156.2857426 Eh     change       -0.1329299E-05 Eh
 * total energy  :  -156.2857436 Eh     change       -0.9447446E-06 Eh
 * total energy  :  -156.2857444 Eh     change       -0.7816626E-06 Eh
 * total energy  :  -156.2857452 Eh     change       -0.8601058E-06 Eh
 * total energy  :  -156.2857462 Eh     change       -0.9506673E-06 Eh
 * total energy  :  -156.2857472 Eh     change       -0.1043955E-05 Eh
 * total energy  :  -156.2857483 Eh     change       -0.1093436E-05 Eh
 * total energy  :  -156.2857483 Eh     change       -0.1053218E-07 Eh
   *** GEOMETRY OPTIMIZATION CONVERGED AFTER 68 ITERATIONS ***

 final structure:
================
93
 xtb: 6.7.1 (edcfbbe)
F           -3.53452425483113       -3.63264940032448       -2.40222244418203
C           -3.38877815847761       -4.08103021137153       -1.14336268424703
F           -2.09499647267085       -3.84906264632174       -0.82099957666925
F           -3.50919751967127       -5.41928699193168       -1.20718034076462
C           -4.33686220735936       -3.44705258016534       -0.17069706697063
C           -4.70888791718699       -4.14071629834285        0.97754207434665
C           -5.55631066086369       -3.52765947257783        1.88990257750202
C           -6.01623199513109       -2.24480740962197        1.66980101864584
C           -5.63687563881148       -1.55017471063146        0.51567160060646
N           -6.06499877009166       -0.23774847740751        0.29583606406592
C           -5.21303459437816        0.86776450661364        0.08372701278751
C           -3.81394558044361        0.90119632078316        0.19452744985040
C           -3.00756780737461       -0.08368341217391        0.83327882870892
C           -1.64999362915701        0.00618442899837        0.82650882032908
C           -0.96345739434738        1.08937140704810        0.21410659131075
C            0.46423548606795        1.13602882445781        0.16506827413494
C            1.24256163549748       -0.04458751917981        0.23841102010158
C            2.60821403686586       -0.00883328601410        0.17039646164415
C            3.30898485430937        1.20833746692688        0.06438494981671
C            4.75657742967478        1.24131717648085        0.01960601777351
C            5.48982275332700        0.18622085625629       -0.54803921305463
C            6.86365570543285        0.20283882090935       -0.57960243462843
C            7.57632372951670        1.27415456358695       -0.02761318199478
C            9.01998788860499        1.34251805539791       -0.03351558988591
N            9.67805633740821        2.47668439038255       -0.09788442464128
C           11.00135318470269        2.14848337048831       -0.13855155019671
C           12.13017790659425        2.96112114899627       -0.20901293737006
C           13.36338182961372        2.34535194000381       -0.21545335465865
C           13.48985928949051        0.95541673227106       -0.14470933318871
C           12.38470183867142        0.12950863486141       -0.07791465825876
C           11.14073397026391        0.73935809464531       -0.09075472513088
N            9.85863040358330        0.24269695055891       -0.02433109059233
C            9.52601907869517       -1.10929890573753        0.18261132414243
C            8.73909087482382       -1.47598707919514        1.27027511847352
C            8.43208666211512       -2.80828896329482        1.47560916423923
C            8.91454812226847       -3.77813703522672        0.61107029930742
C            9.70458579382109       -3.41264490274137       -0.46622672037545
C           10.01123999781731       -2.08120727177501       -0.68575397086686
C            6.85317879715010        2.34654315359792        0.51195483684108
C            5.48037131057410        2.33018398178128        0.53528705285485
C            2.54143454750842        2.38767290615407        0.00530883609282
C            1.17396806049870        2.35382875831370        0.03427656837194
C           -1.77597153471318        2.12371182317755       -0.32898169706227
C           -3.13158554679237        2.03633801413539       -0.33974026507199
N           -5.93256804921411        1.96744664562575       -0.19134613626184
C           -7.21273857034897        1.61872718970147       -0.11976119412410
C           -8.35043616899130        2.46538756625142       -0.26856846502480
C           -8.19823130239285        3.83824726877853       -0.48333556116251
C           -9.30268761103492        4.65314786525171       -0.58834049053894
C          -10.57148738608824        4.09555934057257       -0.47232084415783
C          -10.73201100108207        2.74057130876943       -0.26598738923531
C           -9.63226524985465        1.87795849149783       -0.16658451805189
C           -9.76684585505903        0.43903886446141        0.00400710046590
C          -11.01941306039442       -0.18003535617107        0.00311802670245
C          -11.16543666243166       -1.54734937534008        0.11039650697058
C          -10.03920774832691       -2.36252180071664        0.20239692219157
C           -8.79015091415898       -1.79806779079900        0.21905394419599
C           -8.61390521525925       -0.39943453061910        0.14623961144646
C           -7.35232987363511        0.23104020000867        0.15956089043010
C           -4.79036543840084       -2.16109357273566       -0.41131187090659
H           -4.34202343710129       -5.14010122210515        1.14788317548744
H           -5.84749856588108       -4.05493514324709        2.78447236486909
H           -6.66221852018523       -1.76166929902939        2.38733260758774
H           -3.47487827071413       -0.88653557293260        1.38004760991286
H           -1.08022287123900       -0.74525811132529        1.35155327039444
H            0.74717866899016       -1.00126423339424        0.30762364403939
H            3.16261419930559       -0.93365726423776        0.23160034450129
H            4.96613633492366       -0.63817187114678       -1.00793902631115
H            7.39181473488771       -0.60720717179222       -1.06017886050433
H           12.02829241425206        4.03415643917931       -0.25135505816347
H           14.25835053117153        2.94797486524353       -0.26901891094452
H           14.47704333690094        0.51731854542136       -0.14118166461693
H           12.48766872988571       -0.94342995673560       -0.01345764813693
H            8.37121680831881       -0.71462877599741        1.94236740896084
H            7.81916603923255       -3.08935371758934        2.31879295761026
H            8.67549267456858       -4.81754206712917        0.77751176997669
H           10.08126070010124       -4.16481956442576       -1.14329289236817
H           10.61350283011060       -1.78636917603046       -1.53267057401992
H            7.40476278335752        3.17934050332295        0.92060600939350
H            4.95107228037132        3.15213733541623        0.99278757538791
H            3.04290815831848        3.33849277187405       -0.09762090399203
H            0.62751687868217        3.28341935497013       -0.00678228542889
H           -1.30381102203608        2.97593801265504       -0.79236776428891
H           -3.73628996939935        2.81002110407767       -0.78588205453795
H           -7.19551597816974        4.23047364224635       -0.55514379768550
H           -9.18737529744291        5.71360521362675       -0.75450491985143
H          -11.44408171323667        4.72842610410915       -0.54411100905149
H          -11.73594935321212        2.35766642255969       -0.17945714912182
H          -11.91147766563507        0.41631365690379       -0.09675854469009
H          -12.15193266626110       -1.98581842756116        0.10591123558439
H          -10.14796249490546       -3.43548289755498        0.25482535961416
H           -7.92415583059404       -2.43678905058492        0.26476902441803
H           -4.49328493261157       -1.63091233278176       -1.30326270323889

          :  Hamiltonian                  GFN2-xTB          :
         :: gradient norm              0.000071710675 Eh/a0 ::
         :: HOMO-LUMO gap              0.440836208986 eV    ::
         :: SCC energy              -158.933747070583 Eh    ::
         :: -> dispersion             -0.131298276831 Eh    ::
         :: -> Gsolv                  -0.063766163972 Eh    ::
         :: repulsion energy           2.647998749670 Eh    ::

    * Orbital Energies and Occupations

         #    Occupation            Energy/Eh            Energy/eV
      -------------------------------------------------------------
         1        2.0000           -0.8892955             -24.1990
       ...           ...                  ...                  ...
       132        2.0000           -0.4108871             -11.1808
       133        2.0000           -0.4097980             -11.1512
       134        2.0000           -0.4085349             -11.1168
       135        2.0000           -0.4083024             -11.1105
       136        2.0000           -0.4052008             -11.0261
       137        2.0000           -0.3916691             -10.6579
       138        2.0000           -0.3903124             -10.6209
       139        2.0000           -0.3870380             -10.5318
       140        2.0000           -0.3839005             -10.4465
       141        2.0000           -0.3803186             -10.3490
       142        1.9994           -0.3764039             -10.2425
       143        1.0006           -0.3623346              -9.8596
       144        0.9998           -0.2881475              -7.8409 (HOMO)
       145        0.0002           -0.2719470              -7.4001 (LUMO)
       146        0.0000           -0.2680533              -7.2941
       147                         -0.2608617              -7.0984
       148                         -0.2549426              -6.9373
       149                         -0.2541801              -6.9166
       150                         -0.2401945              -6.5360
       151                         -0.2378706              -6.4728
       152                         -0.2329566              -6.3391
       153                         -0.2253614              -6.1324
       154                         -0.2217760              -6.0348
       155                         -0.2197772              -5.9804
       ...                                ...                  ...
       273                          0.7174919              19.5239
      -------------------------------------------------------------
                  HL-Gap            0.0162005 Eh            0.4408 eV

     #   Z          covCN         q      C6AA      α(0)
     1   9 F        0.791    -0.217    11.411     3.990
     2   6 C        3.337     0.486    17.271     6.579
     3   9 F        0.791    -0.222    11.463     3.999
     4   9 F        0.791    -0.215    11.393     3.987
     5   6 C        2.975    -0.025    28.624     8.776
     6   6 C        2.919    -0.031    28.762     8.795
     7   6 C        2.919    -0.020    28.517     8.757
     8   6 C        2.919    -0.034    28.846     8.807
     9   6 C        2.909     0.070    26.438     8.431
    10   7 N        2.818    -0.056    22.322     7.017
    11   6 C        3.140     0.124    25.053     8.191
    12   6 C        2.968    -0.009    28.240     8.717
    13   6 C        2.911    -0.043    29.058     8.839
    14   6 C        2.916    -0.034    28.837     8.806
    15   6 C        2.970     0.009    27.807     8.650
    16   6 C        2.970     0.011    27.768     8.644
    17   6 C        2.919    -0.035    28.868     8.811
    18   6 C        2.918    -0.034    28.842     8.807
    19   6 C        2.973     0.010    27.790     8.647
    20   6 C        2.973     0.013    27.721     8.636
    21   6 C        2.922    -0.034    28.858     8.809
    22   6 C        2.918    -0.035    28.864     8.810
    23   6 C        2.973    -0.005    28.146     8.702
    24   6 C        3.172     0.143    24.551     8.094
    25   7 N        1.885    -0.321    29.186     8.009
    26   6 C        3.183     0.071    25.991     8.321
    27   6 C        2.910    -0.049    29.209     8.862
    28   6 C        2.922    -0.041    29.028     8.835
    29   6 C        2.926    -0.039    28.970     8.827
    30   6 C        2.907    -0.055    29.362     8.885
    31   6 C        3.084     0.038    27.062     8.528
    32   7 N        2.822    -0.062    22.428     7.034
    33   6 C        2.913     0.065    26.539     8.447
    34   6 C        2.921    -0.039    28.967     8.826
    35   6 C        2.920    -0.026    28.645     8.777
    36   6 C        2.919    -0.030    28.755     8.794
    37   6 C        2.920    -0.027    28.672     8.781
    38   6 C        2.922    -0.041    29.019     8.834
    39   6 C        2.923    -0.029    28.732     8.790
    40   6 C        2.921    -0.033    28.830     8.805
    41   6 C        2.917    -0.034    28.835     8.806
    42   6 C        2.918    -0.034    28.854     8.809
    43   6 C        2.914    -0.034    28.849     8.808
    44   6 C        2.921    -0.032    28.795     8.800
    45   7 N        1.883    -0.305    28.743     7.948
    46   6 C        3.170     0.081    25.851     8.306
    47   6 C        2.984    -0.003    28.104     8.696
    48   6 C        2.922    -0.026    28.663     8.780
    49   6 C        2.916    -0.030    28.738     8.791
    50   6 C        2.917    -0.027    28.676     8.781
    51   6 C        2.922    -0.033    28.830     8.805
    52   6 C        2.977     0.001    27.992     8.679
    53   6 C        2.977     0.002    27.981     8.677
    54   6 C        2.920    -0.032    28.794     8.800
    55   6 C        2.916    -0.030    28.747     8.792
    56   6 C        2.914    -0.030    28.750     8.792
    57   6 C        2.918    -0.039    28.961     8.825
    58   6 C        2.974    -0.007    28.196     8.710
    59   6 C        3.036     0.033    27.230     8.559
    60   6 C        2.922    -0.035    28.876     8.812
    61   1 H        0.926     0.064     2.156     2.296
    62   1 H        0.926     0.070     2.081     2.256
    63   1 H        0.926     0.065     2.145     2.290
    64   1 H        0.926     0.026     2.637     2.540
    65   1 H        0.926     0.039     2.465     2.455
    66   1 H        0.926     0.037     2.493     2.469
    67   1 H        0.926     0.037     2.491     2.468
    68   1 H        0.926     0.041     2.438     2.442
    69   1 H        0.926     0.029     2.598     2.521
    70   1 H        0.926     0.038     2.478     2.462
    71   1 H        0.926     0.034     2.530     2.488
    72   1 H        0.926     0.035     2.516     2.480
    73   1 H        0.926     0.031     2.570     2.507
    74   1 H        0.926     0.036     2.497     2.471
    75   1 H        0.926     0.046     2.375     2.410
    76   1 H        0.926     0.046     2.374     2.410
    77   1 H        0.926     0.046     2.376     2.410
    78   1 H        0.926     0.042     2.422     2.434
    79   1 H        0.926     0.047     2.357     2.401
    80   1 H        0.926     0.044     2.392     2.419
    81   1 H        0.926     0.039     2.462     2.454
    82   1 H        0.926     0.040     2.449     2.447
    83   1 H        0.926     0.043     2.404     2.425
    84   1 H        0.926     0.052     2.293     2.368
    85   1 H        0.926     0.051     2.302     2.373
    86   1 H        0.926     0.041     2.438     2.442
    87   1 H        0.926     0.041     2.432     2.439
    88   1 H        0.926     0.043     2.406     2.425
    89   1 H        0.926     0.044     2.394     2.420
    90   1 H        0.926     0.039     2.456     2.451
    91   1 H        0.926     0.038     2.481     2.463
    92   1 H        0.926     0.034     2.525     2.485
    93   1 H        0.926     0.056     2.248     2.344

molecular dipole:
                 x           y           z       tot (Debye)
 q only:       -2.414      -0.615       1.431
   full:       -2.290      -1.382       1.418       7.695

 projected vibrational frequencies (cm⁻¹)
eigval :       -0.00    -0.00     0.00     0.00     0.00     0.00
eigval :        5.84     9.49    12.29    17.45    18.69    20.96
eigval :       26.40    29.46    41.70    48.17    50.31    60.06
eigval :       62.17    67.83    71.32    77.19    84.82    87.31
eigval :       93.30    98.76   106.04   112.44   113.74   132.71
eigval :      141.49   169.01   187.88   192.66   200.26   207.70
eigval :      208.65   211.34   235.16   242.31   248.84   259.99
eigval :      263.89   267.47   292.69   302.99   315.01   329.29
eigval :      335.22   343.08   351.48   362.52   365.52   373.47
eigval :      379.84   381.58   382.57   393.08   396.09   400.06
eigval :      403.87   411.65   414.92   430.97   434.95   436.62
eigval :      456.19   461.70   470.48   477.41   490.28   499.11
eigval :      501.42   518.90   523.61   526.21   529.77   544.90
eigval :      560.76   579.86   581.01   588.01   590.89   592.01
eigval :      595.32   599.89   602.48   610.89   612.37   628.59
eigval :      638.53   650.19   654.07   657.41   664.52   668.04
eigval :      669.87   674.99   680.76   682.52   692.89   701.46
eigval :      707.71   713.12   725.50   730.02   756.42   763.12
eigval :      766.60   769.93   771.48   775.14   789.52   796.15
eigval :      809.37   813.97   815.08   828.50   834.33   852.58
eigval :      853.69   865.06   866.90   867.95   873.57   876.82
eigval :      883.93   888.43   896.22   901.10   904.23   909.47
eigval :      910.93   912.87   914.16   918.13   918.50   919.02
eigval :      920.50   920.75   924.15   924.65   925.97   929.16
eigval :      932.69   940.13   945.31   948.91   966.63   980.90
eigval :      992.12   992.95  1001.48  1020.52  1035.20  1037.20
eigval :     1054.58  1058.12  1060.87  1079.76  1080.13  1082.43
eigval :     1092.43  1104.10  1115.49  1121.91  1123.09  1131.75
eigval :     1133.31  1135.31  1140.69  1156.07  1157.44  1160.18
eigval :     1171.66  1177.02  1178.46  1178.68  1183.29  1189.24
eigval :     1193.83  1196.74  1202.39  1205.51  1227.53  1243.30
eigval :     1245.53  1250.24  1257.19  1258.55  1261.09  1269.83
eigval :     1271.52  1276.31  1276.58  1282.43  1293.27  1300.33
eigval :     1304.25  1309.20  1314.03  1318.11  1321.95  1330.24
eigval :     1332.03  1334.15  1338.72  1353.46  1358.82  1367.83
eigval :     1383.81  1389.42  1401.61  1406.40  1411.75  1413.61
eigval :     1414.44  1422.16  1433.30  1435.20  1440.45  1442.31
eigval :     1444.17  1460.31  1466.20  1469.59  1476.58  1478.83
eigval :     1484.44  1487.11  1502.63  1510.38  1518.35  1520.45
eigval :     1531.96  1541.30  1554.73  1561.47  1565.61  1579.44
eigval :     1580.95  1582.74  1584.75  1591.43  1594.28  1606.26
eigval :     3074.50  3076.10  3076.77  3078.23  3079.65  3079.85
eigval :     3080.30  3080.99  3081.89  3086.01  3087.04  3087.91
eigval :     3087.99  3089.45  3089.72  3089.89  3091.29  3091.84
eigval :     3092.48  3093.73  3096.33  3100.00  3100.19  3100.43
eigval :     3102.33  3102.38  3104.75  3104.97  3108.64  3110.85
eigval :     3113.56  3114.43  3128.63

   temp. (K)  partition function   enthalpy   heat capacity  entropy
                                   cal/mol     cal/K/mol   cal/K/mol   J/K/mol
 298.15  VIB  0.160E+24            28297.341    176.200    178.380
         ROT  0.260E+09              888.752      2.981     41.486
         INT  0.416E+32            29186.093    179.181    219.866
         TR   0.212E+29             1481.254      4.968     45.831
         TOT                       30667.3471   184.1487   265.6967  1111.6749

       T/K    H(0)-H(T)+PV         H(T)/Eh          T*S/Eh         G(T)/Eh
   ------------------------------------------------------------------------
    298.15    0.488715E-01    0.738407E+00    0.126241E+00    0.612166E+00
   ------------------------------------------------------------------------

         :::::::::::::::::::::::::::::::::::::::::::::::::::::
         ::                  THERMODYNAMIC                  ::
         :::::::::::::::::::::::::::::::::::::::::::::::::::::
         :: total free energy        -155.673582354054 Eh   ::
         ::.................................................::
         :: total energy             -156.285748324386 Eh   ::
         :: zero point energy           0.689535504743 Eh   ::
         :: G(RRHO) w/o ZPVE           -0.077369534411 Eh   ::
         :: G(RRHO) contrib.            0.612165970332 Eh   ::
         :::::::::::::::::::::::::::::::::::::::::::::::::::::

           -------------------------------------------------
          | TOTAL ENERGY             -156.285748324386 Eh   |
          | TOTAL ENTHALPY           -155.547341291210 Eh   |
          | TOTAL FREE ENERGY        -155.673582354054 Eh   |
          | GRADIENT NORM               0.000071750393 Eh/α |
          | HOMO-LUMO GAP               0.440837950293 eV   |
           -------------------------------------------------

 * finished run on 2025/07/18 at 15:50:11.266
