   * xtb version 6.7.1 (edcfbbe) compiled by 'albert@albert-system' on 2024-07-22

   ID    Z sym.   atoms
    1    9 F      1, 3, 4
    2    6 C      2, 5-9, 11-24, 26-31, 33-44, 46-60
    3    7 N      10, 25, 32, 45
    4    1 H      61-93

          program call               : xtb data2507/toluene/m-CF3PIBI/m-CF3PIBI_toluene_T1_crest.xyz --gfn 2 --uhf 2 --gbsa toluene --ohess vtight --parallel 40 --molden --ceasefiles --namespace data2507/toluene/m-CF3PIBI/m-CF3PIBI_toluene_T1_finalOpt
      * Solvation model:               GBSA
        Solvent                        toluene
        Solvent mass                       9.2140E+01 g/mol
          :  Hamiltonian                  GFN2-xTB          :
 * total energy  :  -156.2855376 Eh     change       -0.1101469E-07 Eh
 * total energy  :  -156.2856083 Eh     change       -0.7071351E-04 Eh
 * total energy  :  -156.2856416 Eh     change       -0.3333747E-04 Eh
 * total energy  :  -156.2856548 Eh     change       -0.1314473E-04 Eh
 * total energy  :  -156.2856696 Eh     change       -0.1483103E-04 Eh
 * total energy  :  -156.2856825 Eh     change       -0.1284909E-04 Eh
 * total energy  :  -156.2856948 Eh     change       -0.1231043E-04 Eh
 * total energy  :  -156.2857079 Eh     change       -0.1314471E-04 Eh
 * total energy  :  -156.2857198 Eh     change       -0.1187497E-04 Eh
 * total energy  :  -156.2857290 Eh     change       -0.9199090E-05 Eh
 * total energy  :  -156.2857573 Eh     change       -0.4156322E-05 Eh
 * total energy  :  -156.2857598 Eh     change       -0.2507185E-05 Eh
 * total energy  :  -156.2857613 Eh     change       -0.1434115E-05 Eh
 * total energy  :  -156.2857621 Eh     change       -0.7838610E-06 Eh
 * total energy  :  -156.2857628 Eh     change       -0.7436213E-06 Eh
 * total energy  :  -156.2857633 Eh     change       -0.5424467E-06 Eh
 * total energy  :  -156.2857638 Eh     change       -0.4839158E-06 Eh
 * total energy  :  -156.2857643 Eh     change       -0.5113012E-06 Eh
 * total energy  :  -156.2857644 Eh     change       -0.2110383E-07 Eh
   *** GEOMETRY OPTIMIZATION CONVERGED AFTER 22 ITERATIONS ***

 final structure:
================
93
 xtb: 6.7.1 (edcfbbe)
F           -3.62153135807050       -3.51174212969555       -2.42402342688867
C           -3.47851666069575       -3.97975416644466       -1.17204753550125
F           -2.17698355114301       -3.78584180306022       -0.85628589323343
F           -3.63475124211470       -5.31342478407826       -1.25161432440377
C           -4.40274709675616       -3.33356795958218       -0.18451955815635
C           -4.78681594220536       -4.03256716458186        0.95638640338393
C           -5.61156734691203       -3.40942416782290        1.88225800248041
C           -6.03813937745043       -2.11169104705827        1.68218007114853
C           -5.64729781183585       -1.41224264495786        0.53514053359720
N           -6.04289789269483       -0.08600707632665        0.33443663652306
C           -5.16416132252716        0.99922815338567        0.13601450274659
C           -3.76333426087113        0.99586964147025        0.24307971202467
C           -2.97990356888138       -0.01207837759083        0.87264068532858
C           -1.62048875493165        0.04851650185294        0.86910564383057
C           -0.90871689704078        1.12041678327973        0.26455855369387
C            0.51864341751000        1.13989526851106        0.21710883055335
C            1.27909901568722       -0.05192863924376        0.31057096225853
C            2.64427588375413       -0.04045536089621        0.23719858956922
C            3.36735567236967        1.16213328245208        0.10192908027334
C            4.81282652851491        1.17030311133384        0.04157336139822
C            5.52595808411206        0.07757878029998       -0.48181826967053
C            6.89870811196129        0.07293022574017       -0.53275422707589
C            7.63492161716180        1.16039842803508       -0.04514035386023
C            9.07743185286878        1.21398257613778       -0.07413453348991
N            9.74192424162458        2.34332305015085       -0.17011359029870
C           11.06169878779849        2.00707918440254       -0.22557808552727
C           12.19376664672298        2.81220798811522       -0.32812603802627
C           13.42328237754091        2.18955672171222       -0.34324013681608
C           13.54335892765956        0.80019196195850       -0.25068953274623
C           12.43504075911966       -0.01832554734808       -0.15113381360980
C           11.19428162990183        0.59807114203912       -0.15404538034243
N            9.91098286187194        0.10971321198740       -0.05738198946530
C            9.57928660157182       -1.23766993504365        0.17992818723616
C            8.81895075044387       -1.58503580015004        1.29262873937547
C            8.51472354898772       -2.91321363846404        1.52694143632631
C            8.97446491856696       -3.89806268006727        0.66696385708559
C            9.73833270238141       -3.55180506187462       -0.43527730305259
C           10.04176419090564       -2.22474587116044       -0.68380360124728
C            6.93224871048722        2.26891661532788        0.44933597534407
C            5.56069721437234        2.27344854149059        0.49206815016909
C            2.61726227529478        2.35311423276965        0.02609789589340
C            1.25050239087963        2.34300216942489        0.06386485030661
C           -1.69896858518143        2.17375134659963       -0.27591190013195
C           -3.05607549105728        2.11731106336672       -0.28574035636640
N           -5.85428044499662        2.12001116421159       -0.12351216328262
C           -7.14382356325934        1.80267201079207       -0.05795453853541
C           -8.25914161667897        2.67999735213564       -0.19654234777554
C           -8.07180981458430        4.05180725633713       -0.38943691965775
C           -9.15502506516403        4.89552210414734       -0.48494812585272
C          -10.43792449288297        4.36820924476934       -0.38122521517736
C          -10.63303334029576        3.01484214348287       -0.19646240095407
C           -9.55547267435370        2.12343601831676       -0.10724787660402
C           -9.72614503143307        0.68602714808578        0.04158690721554
C          -10.99376774917152        0.09810971235673        0.02422498488182
C          -11.17403119677910       -1.26617185978568        0.11345929899104
C          -10.06900162518792       -2.10983951172178        0.20409361124611
C           -8.80643811243146       -1.57658633156169        0.23513988399397
C           -8.59551885807700       -0.18243140119545        0.17881098970171
C           -7.31808819125143        0.41651965080099        0.20273127114000
C           -4.82285584321179       -2.03261622668537       -0.40488619944953
H           -4.44673500886709       -5.04398525980286        1.11066637788257
H           -5.91192623296069       -3.94087401746533        2.77131165134162
H           -6.66707530397299       -1.62175368445829        2.41008928615613
H           -3.46556826241004       -0.81066176822197        1.40988876176237
H           -1.06915508329634       -0.71977450388936        1.38927206485079
H            0.76949428906298       -0.99922936004230        0.40079898057897
H            3.18185876040733       -0.97372319525607        0.31608939015770
H            4.98632363083530       -0.76114762338789       -0.89468349797927
H            7.40787486475069       -0.76709227569297       -0.98096658435444
H           12.09672483062276        3.88487876052814       -0.38781465741918
H           14.32052144615406        2.78605434140446       -0.42162428493576
H           14.52808587727691        0.35665175005629       -0.25594867750441
H           12.53347631746323       -1.09054500381480       -0.06959786679577
H            8.46837261118292       -0.81208440357141        1.96068587506593
H            7.92174612728313       -3.17941308381341        2.38902763440421
H            8.73759995635023       -4.93411715748292        0.85597039325826
H           10.09697455452377       -4.31567918127585       -1.10903851611438
H           10.62365029671788       -1.94471533661299       -1.54980001378616
H            7.50095114904666        3.11349802921024        0.80710076392784
H            5.05116353820076        3.12559755736542        0.91512294511850
H            3.13201528579803        3.29408297049122       -0.09809241794511
H            0.72123476189307        3.28169156787750        0.00976296608518
H           -1.20934133424174        3.01708917002576       -0.73704860542212
H           -3.64318390298869        2.90697903788611       -0.72742752337155
H           -7.05926594638287        4.41961001484696       -0.45198918631958
H           -9.01270864978047        5.95531753664236       -0.63366747044063
H          -11.29399642297188        5.02404361121679       -0.44547166263266
H          -11.64645928258277        2.65586316185552       -0.11832372969667
H          -11.87000973371094        0.71768446059188       -0.07441846521581
H          -12.17097517084842       -1.68007751728090        0.09625518063814
H          -10.20455997992896       -3.18029049333149        0.24369397291287
H           -7.95681925562204       -2.23704249318578        0.27990454915100
H           -4.51665088675197       -1.49853444739713       -1.29140911347203

          :  Hamiltonian                  GFN2-xTB          :
         :: gradient norm              0.000075004662 Eh/a0 ::
         :: HOMO-LUMO gap              0.433717596187 eV    ::
         :: SCC energy              -158.933761420306 Eh    ::
         :: -> dispersion             -0.131213938667 Eh    ::
         :: -> Gsolv                  -0.063769134451 Eh    ::
         :: repulsion energy           2.647997052575 Eh    ::

    * Orbital Energies and Occupations

         #    Occupation            Energy/Eh            Energy/eV
      -------------------------------------------------------------
         1        2.0000           -0.8894205             -24.2024
       ...           ...                  ...                  ...
       132        2.0000           -0.4107670             -11.1775
       133        2.0000           -0.4097331             -11.1494
       134        2.0000           -0.4084020             -11.1132
       135        2.0000           -0.4082479             -11.1090
       136        2.0000           -0.4050754             -11.0227
       137        2.0000           -0.3916095             -10.6562
       138        2.0000           -0.3902177             -10.6184
       139        2.0000           -0.3869681             -10.5299
       140        2.0000           -0.3839016             -10.4465
       141        2.0000           -0.3801342             -10.3440
       142        1.9993           -0.3760264             -10.2322
       143        1.0007           -0.3621768              -9.8553
       144        0.9998           -0.2883047              -7.8452 (HOMO)
       145        0.0002           -0.2723656              -7.4114 (LUMO)
       146        0.0000           -0.2683999              -7.3035
       147                         -0.2610015              -7.1022
       148                         -0.2550005              -6.9389
       149                         -0.2542407              -6.9182
       150                         -0.2401610              -6.5351
       151                         -0.2378443              -6.4721
       152                         -0.2329549              -6.3390
       153                         -0.2249289              -6.1206
       154                         -0.2216967              -6.0327
       155                         -0.2194800              -5.9724
       ...                                ...                  ...
       273                          0.7175389              19.5252
      -------------------------------------------------------------
                  HL-Gap            0.0159390 Eh            0.4337 eV

     #   Z          covCN         q      C6AA      α(0)
     1   9 F        0.791    -0.217    11.410     3.990
     2   6 C        3.337     0.486    17.270     6.579
     3   9 F        0.791    -0.222    11.461     3.999
     4   9 F        0.791    -0.215    11.392     3.987
     5   6 C        2.975    -0.025    28.618     8.775
     6   6 C        2.919    -0.030    28.751     8.793
     7   6 C        2.919    -0.020    28.512     8.756
     8   6 C        2.919    -0.034    28.840     8.806
     9   6 C        2.909     0.070    26.428     8.430
    10   7 N        2.818    -0.056    22.317     7.016
    11   6 C        3.142     0.125    25.039     8.188
    12   6 C        2.969    -0.009    28.243     8.717
    13   6 C        2.911    -0.042    29.053     8.838
    14   6 C        2.916    -0.034    28.838     8.806
    15   6 C        2.970     0.009    27.806     8.649
    16   6 C        2.970     0.011    27.770     8.644
    17   6 C        2.918    -0.035    28.869     8.811
    18   6 C        2.917    -0.034    28.845     8.807
    19   6 C        2.973     0.010    27.791     8.647
    20   6 C        2.972     0.013    27.726     8.637
    21   6 C        2.922    -0.035    28.861     8.810
    22   6 C        2.917    -0.035    28.873     8.811
    23   6 C        2.973    -0.005    28.153     8.703
    24   6 C        3.170     0.142    24.565     8.097
    25   7 N        1.886    -0.322    29.189     8.009
    26   6 C        3.182     0.071    25.991     8.321
    27   6 C        2.910    -0.049    29.212     8.863
    28   6 C        2.922    -0.041    29.026     8.835
    29   6 C        2.926    -0.039    28.968     8.826
    30   6 C        2.907    -0.055    29.365     8.886
    31   6 C        3.084     0.038    27.056     8.527
    32   7 N        2.822    -0.062    22.434     7.035
    33   6 C        2.913     0.065    26.537     8.447
    34   6 C        2.921    -0.039    28.965     8.826
    35   6 C        2.920    -0.026    28.645     8.777
    36   6 C        2.919    -0.030    28.756     8.794
    37   6 C        2.920    -0.027    28.672     8.781
    38   6 C        2.922    -0.041    29.018     8.834
    39   6 C        2.923    -0.029    28.737     8.791
    40   6 C        2.921    -0.033    28.834     8.806
    41   6 C        2.917    -0.034    28.838     8.806
    42   6 C        2.918    -0.034    28.858     8.809
    43   6 C        2.914    -0.034    28.853     8.808
    44   6 C        2.921    -0.032    28.795     8.800
    45   7 N        1.883    -0.305    28.748     7.948
    46   6 C        3.172     0.080    25.858     8.306
    47   6 C        2.984    -0.003    28.103     8.696
    48   6 C        2.922    -0.027    28.667     8.780
    49   6 C        2.916    -0.030    28.738     8.791
    50   6 C        2.917    -0.027    28.681     8.782
    51   6 C        2.922    -0.033    28.831     8.805
    52   6 C        2.977     0.001    27.996     8.679
    53   6 C        2.977     0.002    27.979     8.677
    54   6 C        2.920    -0.032    28.795     8.800
    55   6 C        2.916    -0.030    28.747     8.792
    56   6 C        2.914    -0.030    28.751     8.793
    57   6 C        2.918    -0.039    28.963     8.825
    58   6 C        2.974    -0.007    28.191     8.709
    59   6 C        3.037     0.033    27.237     8.560
    60   6 C        2.922    -0.035    28.869     8.811
    61   1 H        0.926     0.064     2.150     2.293
    62   1 H        0.926     0.071     2.076     2.253
    63   1 H        0.926     0.065     2.140     2.288
    64   1 H        0.926     0.026     2.640     2.541
    65   1 H        0.926     0.039     2.465     2.455
    66   1 H        0.926     0.037     2.494     2.470
    67   1 H        0.926     0.037     2.491     2.468
    68   1 H        0.926     0.041     2.439     2.442
    69   1 H        0.926     0.029     2.598     2.520
    70   1 H        0.926     0.038     2.479     2.462
    71   1 H        0.926     0.034     2.530     2.488
    72   1 H        0.926     0.035     2.515     2.480
    73   1 H        0.926     0.031     2.571     2.507
    74   1 H        0.926     0.037     2.494     2.470
    75   1 H        0.926     0.046     2.375     2.410
    76   1 H        0.926     0.046     2.374     2.410
    77   1 H        0.926     0.046     2.376     2.411
    78   1 H        0.926     0.042     2.423     2.434
    79   1 H        0.926     0.048     2.350     2.397
    80   1 H        0.926     0.044     2.394     2.420
    81   1 H        0.926     0.039     2.462     2.454
    82   1 H        0.926     0.040     2.450     2.448
    83   1 H        0.926     0.043     2.404     2.424
    84   1 H        0.926     0.052     2.295     2.369
    85   1 H        0.926     0.051     2.304     2.374
    86   1 H        0.926     0.041     2.440     2.443
    87   1 H        0.926     0.041     2.435     2.440
    88   1 H        0.926     0.043     2.408     2.427
    89   1 H        0.926     0.044     2.395     2.420
    90   1 H        0.926     0.039     2.456     2.451
    91   1 H        0.926     0.038     2.481     2.463
    92   1 H        0.926     0.034     2.527     2.486
    93   1 H        0.926     0.056     2.244     2.342

molecular dipole:
                 x           y           z       tot (Debye)
 q only:       -2.407      -0.614       1.482
   full:       -2.295      -1.380       1.465       7.759

 projected vibrational frequencies (cm⁻¹)
eigval :       -0.00    -0.00    -0.00     0.00     0.00     0.00
eigval :        5.61     8.81     9.45    16.80    18.54    21.37
eigval :       24.97    29.44    34.17    45.31    47.13    57.56
eigval :       59.81    66.55    69.74    76.06    83.10    85.00
eigval :       89.35    96.59   105.92   111.23   113.46   133.19
eigval :      140.73   168.32   187.34   193.41   200.42   207.93
eigval :      209.55   211.60   235.50   242.81   249.06   259.37
eigval :      265.27   267.62   291.29   303.85   315.30   329.03
eigval :      335.58   343.42   351.37   362.09   363.16   372.97
eigval :      378.32   379.71   381.53   392.88   395.68   399.53
eigval :      403.14   411.39   415.51   431.53   435.17   437.37
eigval :      456.16   461.72   470.64   475.15   488.87   497.51
eigval :      504.01   517.53   521.40   527.19   530.50   546.14
eigval :      560.32   579.53   580.97   587.65   591.49   592.54
eigval :      594.86   600.01   602.63   610.88   612.65   628.75
eigval :      638.74   648.66   654.57   657.69   664.39   667.06
eigval :      669.83   675.73   680.11   681.87   692.69   699.33
eigval :      707.77   713.41   725.31   733.89   757.29   761.33
eigval :      766.21   769.57   769.90   776.25   791.33   794.28
eigval :      807.54   813.59   814.87   824.42   831.14   845.71
eigval :      853.26   863.19   866.59   868.24   870.34   874.35
eigval :      883.46   891.63   894.76   901.74   902.40   908.86
eigval :      909.84   913.22   914.02   914.38   916.52   918.88
eigval :      918.92   920.42   920.97   923.76   927.92   928.39
eigval :      931.75   939.99   943.61   948.72   965.93   980.90
eigval :      991.91   992.44  1001.98  1019.28  1034.05  1036.98
eigval :     1055.56  1057.66  1058.58  1077.64  1079.39  1082.21
eigval :     1093.08  1104.03  1111.84  1118.21  1127.05  1131.46
eigval :     1132.49  1135.06  1140.90  1155.41  1158.04  1160.89
eigval :     1171.50  1177.67  1177.77  1178.60  1183.31  1185.32
eigval :     1193.82  1196.76  1203.38  1205.34  1227.31  1244.75
eigval :     1246.76  1250.52  1257.01  1257.89  1261.46  1269.68
eigval :     1270.58  1274.17  1276.71  1283.17  1294.55  1301.47
eigval :     1304.26  1308.31  1313.80  1317.88  1321.73  1330.74
eigval :     1332.34  1334.27  1339.08  1353.01  1359.58  1367.13
eigval :     1382.13  1389.19  1403.15  1406.82  1411.84  1414.93
eigval :     1415.32  1422.08  1433.04  1435.21  1441.09  1442.65
eigval :     1443.93  1460.12  1463.28  1469.07  1475.81  1479.28
eigval :     1484.27  1486.44  1499.11  1511.95  1516.49  1519.98
eigval :     1532.43  1541.76  1555.13  1561.04  1566.55  1579.38
eigval :     1580.98  1583.02  1584.31  1591.09  1594.34  1605.06
eigval :     3074.59  3076.48  3077.02  3078.16  3079.70  3080.42
eigval :     3080.59  3080.80  3082.73  3086.79  3087.37  3087.74
eigval :     3088.05  3089.45  3090.31  3091.07  3091.12  3092.79
eigval :     3094.96  3095.90  3097.53  3099.67  3100.14  3101.04
eigval :     3101.49  3101.74  3103.49  3105.24  3106.86  3109.20
eigval :     3113.55  3114.18  3128.21

   temp. (K)  partition function   enthalpy   heat capacity  entropy
                                   cal/mol     cal/K/mol   cal/K/mol   J/K/mol
 298.15  VIB  0.421E+24            28360.506    175.879    179.231
         ROT  0.261E+09              888.752      2.981     41.498
         INT  0.110E+33            29249.258    178.860    220.729
         TR   0.212E+29             1481.254      4.968     45.831
         TOT                       30730.5123   183.8277   266.5601  1115.2875

       T/K    H(0)-H(T)+PV         H(T)/Eh          T*S/Eh         G(T)/Eh
   ------------------------------------------------------------------------
    298.15    0.489722E-01    0.738270E+00    0.126651E+00    0.611619E+00
   ------------------------------------------------------------------------

         :::::::::::::::::::::::::::::::::::::::::::::::::::::
         ::                  THERMODYNAMIC                  ::
         :::::::::::::::::::::::::::::::::::::::::::::::::::::
         :: total free energy        -155.674145709989 Eh   ::
         ::.................................................::
         :: total energy             -156.285764371262 Eh   ::
         :: zero point energy           0.689297781045 Eh   ::
         :: G(RRHO) w/o ZPVE           -0.077679119772 Eh   ::
         :: G(RRHO) contrib.            0.611618661273 Eh   ::
         :::::::::::::::::::::::::::::::::::::::::::::::::::::

           -------------------------------------------------
          | TOTAL ENERGY             -156.285764371262 Eh   |
          | TOTAL ENTHALPY           -155.547494401617 Eh   |
          | TOTAL FREE ENERGY        -155.674145709989 Eh   |
          | GRADIENT NORM               0.000074948840 Eh/α |
          | HOMO-LUMO GAP               0.433723617582 eV   |
           -------------------------------------------------

 * finished run on 2025/07/18 at 15:56:14.025
