   * xtb version 6.7.1 (edcfbbe) compiled by 'albert@albert-system' on 2024-07-22

   ID    Z sym.   atoms
    1    9 F      1, 3, 4
    2    6 C      2, 5-9, 11-24, 26-31, 33-44, 46-60
    3    7 N      10, 25, 32, 45
    4    1 H      61-93

          program call               : xtb data2507/toluene/m-CF3PIBI/m-CF3PIBI_toluene_S0_crest.xyz --gfn 2 --gbsa toluene --ohess vtight --parallel 40 --molden --ceasefiles --namespace data2507/toluene/m-CF3PIBI/m-CF3PIBI_toluene_S0_finalOpt
      * Solvation model:               GBSA
        Solvent                        toluene
        Solvent mass                       9.2140E+01 g/mol
          :  Hamiltonian                  GFN2-xTB          :
 * total energy  :  -156.3697685 Eh     change       -0.2318870E-08 Eh
 * total energy  :  -156.3698453 Eh     change       -0.7672778E-04 Eh
 * total energy  :  -156.3698850 Eh     change       -0.3969137E-04 Eh
 * total energy  :  -156.3699053 Eh     change       -0.2032826E-04 Eh
 * total energy  :  -156.3699242 Eh     change       -0.1891736E-04 Eh
 * total energy  :  -156.3699495 Eh     change       -0.2533126E-04 Eh
 * total energy  :  -156.3699724 Eh     change       -0.2282549E-04 Eh
 * total energy  :  -156.3699883 Eh     change       -0.1592722E-04 Eh
 * total energy  :  -156.3700193 Eh     change       -0.3104642E-04 Eh
 * total energy  :  -156.3700563 Eh     change       -0.3693913E-04 Eh
 * total energy  :  -156.3702409 Eh     change       -0.4228937E-06 Eh
 * total energy  :  -156.3702412 Eh     change       -0.2900911E-06 Eh
 * total energy  :  -156.3702414 Eh     change       -0.2279862E-06 Eh
 * total energy  :  -156.3702416 Eh     change       -0.2282315E-06 Eh
 * total energy  :  -156.3702419 Eh     change       -0.2540638E-06 Eh
 * total energy  :  -156.3702421 Eh     change       -0.2538700E-06 Eh
 * total energy  :  -156.3702424 Eh     change       -0.2583973E-06 Eh
 * total energy  :  -156.3702427 Eh     change       -0.2743291E-06 Eh
 * total energy  :  -156.3702427 Eh     change       -0.2345814E-08 Eh
   *** GEOMETRY OPTIMIZATION CONVERGED AFTER 68 ITERATIONS ***

 final structure:
================
93
 xtb: 6.7.1 (edcfbbe)
F           -3.18516169212978       -3.27746009239490       -2.41038445288265
C           -3.03790332062256       -3.74109192940099       -1.15872389324299
F           -1.76868320149590       -3.44099976138172       -0.80224545066920
F           -3.08114580698407       -5.08227043916562       -1.24703697360842
C           -4.04145281406770       -3.18236302086335       -0.19309855924294
C           -4.35388942334101       -3.89428741432549        0.95818645358251
C           -5.24943230348356       -3.35285128166157        1.86603559861427
C           -5.81612226818475       -2.11243739389744        1.63619154676051
C           -5.49948672568360       -1.40417123289696        0.47808506103157
N           -6.02794286502073       -0.12236910229125        0.25463873750835
C           -5.26566739350226        1.02251030271381        0.11251237375960
C           -3.81193542670680        1.05086211393034        0.16600434956173
C           -3.07674935688328        0.28466500436353        1.06976828814630
C           -1.69755762075409        0.32996878332910        1.06249250923516
C           -1.01049015723477        1.14783733965410        0.16655522282174
C            0.45794063416862        1.17070503955211        0.14559736524855
C            1.18810634189009       -0.01020810227226        0.27250959463982
C            2.56768344023153        0.00524956081455        0.23710105510583
C            3.26595749492413        1.20274708707249        0.08742688379560
C            4.73453088927120        1.21801866872440        0.05380698153064
C            5.44173934488817        0.22529070338842       -0.62393196753112
C            6.82124985460279        0.23031594539663       -0.65479342713566
C            7.53646613725415        1.23044319218270        0.00254041913733
C            8.99030899322521        1.28236214784782       -0.01786985434649
N            9.66357082958978        2.40064504371794       -0.09218495676000
C           10.98442648115066        2.04658815765459       -0.13829046174155
C           12.12664816887502        2.83703748966894       -0.21662358479770
C           13.34823684128757        2.19759866567229       -0.22863705344647
C           13.44787335089746        0.80626834878069       -0.15473560701405
C           12.32759500254115        0.00253397009803       -0.07895097685468
C           11.09550772167193        0.63688307910508       -0.08657566718503
N            9.80258847650905        0.16719147421608       -0.01059573619505
C            9.42835644022508       -1.17699029373724        0.17343353128211
C            8.60433111459431       -1.53150270730795        1.23692814476678
C            8.24876673494560       -2.85558792138776        1.41638406923452
C            8.71894827484960       -3.82924872047825        0.54961568066119
C            9.54602627092770       -3.47593693172265       -0.50365704260893
C            9.90082065988201       -2.15256880312019       -0.69772379494704
C            6.83385797315857        2.23827566936844        0.66306431299469
C            5.45512451202952        2.22905760560763        0.69020678287401
C            2.53513668188093        2.38424098770633       -0.03130628767608
C            1.15525443104376        2.36776413303375       -0.00948350277894
C           -1.75133775881225        1.94370253469248       -0.70730163260531
C           -3.12956567295302        1.89752131416703       -0.70826008037555
N           -6.00537231566486        2.08462620194589       -0.06897861920595
C           -7.29682768205354        1.65473149943503       -0.04686707682742
C           -8.47695720930633        2.44146975550338       -0.16476018493947
C           -8.41141590561050        3.83082463438085       -0.31920695892517
C           -9.56232892616308        4.57474565566309       -0.39974611824027
C          -10.79786504727490        3.93389061090728       -0.32344006018374
C          -10.87401532637044        2.56831044721586       -0.17719076577019
C           -9.72052311037774        1.77177320718734       -0.09924663615272
C           -9.76692374918431        0.32401589747905        0.01651797308251
C          -10.98329049280330       -0.37474079831968        0.00794329690644
C          -11.03792609722170       -1.74744415912644        0.06437338996194
C           -9.86259666072133       -2.49096183946787        0.11090339909279
C           -8.65089105266764       -1.84517047423106        0.13240701176002
C           -8.57346981511599       -0.44468048186233        0.11204557642846
C           -7.34539705652824        0.27587523743969        0.14176129263782
C           -4.60721198477480       -1.94105979391970       -0.44389864584776
H           -3.90354937937172       -4.85830961837268        1.13511015744214
H           -5.49830152020361       -3.89781332433471        2.76265940525667
H           -6.50433121083278       -1.68234994175643        2.34848067499925
H           -3.58192075431262       -0.33192023475953        1.79809495264753
H           -1.14389761429033       -0.26174482548502        1.77622469769901
H            0.66662535808354       -0.95091505317927        0.37539609986568
H            3.11391535072600       -0.92040109883779        0.34563597938512
H            4.90319760230299       -0.54573453938344       -1.15480455906264
H            7.34385500257320       -0.53467492461053       -1.21000193158653
H           12.04540304066324        3.91182427890805       -0.26079874422705
H           14.25418284650926        2.78291271045801       -0.28897766616018
H           14.42632568530863        0.34890902826795       -0.15570831522431
H           12.41016995728318       -1.07195679400328       -0.01106582708138
H            8.24757678281405       -0.76795430151014        1.91250274581565
H            7.60689038728765       -3.12712281485264        2.24091177859090
H            8.44166383283572       -4.86221711749947        0.69560150247528
H            9.91372431466262       -4.23111115059487       -1.18231442962485
H           10.53169810196104       -1.86697400154525       -1.52672780249107
H            7.39174448314627        3.02003098721615        1.15563983863454
H            4.92783862419132        3.00277894490545        1.22824877821758
H            3.05557799714691        3.32130291185732       -0.16476162497511
H            0.60849769326683        3.29556140095112       -0.09402292765645
H           -1.23868498413081        2.58392554195385       -1.40968829610453
H           -3.70170617205876        2.50670623915253       -1.39132279450271
H           -7.43486029104924        4.28842515615182       -0.36482512639844
H           -9.51589718225708        5.64741733323545       -0.51731070145065
H          -11.70664988400388        4.51573254175500       -0.37972363578359
H          -11.85201136372769        2.11773076291434       -0.12107140802472
H          -11.91200731953991        0.16860756536213       -0.05379159251512
H          -11.99433105819752       -2.24926440731863        0.05618061832116
H           -9.90082299211584       -3.57011658050454        0.12510975124069
H           -7.74309833559230       -2.42661430644804        0.14573892648506
H           -4.35859291659480       -1.39479609539494       -1.34090419778778

          :  Hamiltonian                  GFN2-xTB          :
         :: gradient norm              0.000040291022 Eh/a0 ::
         :: HOMO-LUMO gap              2.481519085391 eV    ::
         :: SCC energy              -159.038365385485 Eh    ::
         :: -> dispersion             -0.131554924941 Eh    ::
         :: -> Gsolv                  -0.064163219241 Eh    ::
         :: repulsion energy           2.668122708607 Eh    ::

    * Orbital Energies and Occupations

         #    Occupation            Energy/Eh            Energy/eV
      -------------------------------------------------------------
         1        2.0000           -0.8919764             -24.2719
       ...           ...                  ...                  ...
       131        2.0000           -0.4142122             -11.2713
       132        2.0000           -0.4128575             -11.2344
       133        2.0000           -0.4107232             -11.1763
       134        2.0000           -0.4093402             -11.1387
       135        2.0000           -0.4071723             -11.0797
       136        2.0000           -0.4040381             -10.9944
       137        2.0000           -0.3914830             -10.6528
       138        2.0000           -0.3871481             -10.5348
       139        2.0000           -0.3855063             -10.4902
       140        2.0000           -0.3840317             -10.4500
       141        2.0000           -0.3811242             -10.3709
       142        2.0000           -0.3779389             -10.2842
       143        2.0000           -0.3689804             -10.0405 (HOMO)
       144                         -0.2777862              -7.5589 (LUMO)
       145                         -0.2728778              -7.4254
       146                         -0.2685385              -7.3073
       147                         -0.2596607              -7.0657
       148                         -0.2520648              -6.8590
       149                         -0.2494091              -6.7868
       150                         -0.2395062              -6.5173
       151                         -0.2382002              -6.4818
       152                         -0.2310429              -6.2870
       153                         -0.2299525              -6.2573
       154                         -0.2280043              -6.2043
       ...                                ...                  ...
       273                          0.7205875              19.6082
      -------------------------------------------------------------
                  HL-Gap            0.0911941 Eh            2.4815 eV

     #   Z          covCN         q      C6AA      α(0)
     1   9 F        0.791    -0.214    11.383     3.985
     2   6 C        3.337     0.487    17.265     6.579
     3   9 F        0.791    -0.219    11.433     3.994
     4   9 F        0.791    -0.213    11.370     3.983
     5   6 C        2.977    -0.021    28.517     8.760
     6   6 C        2.920    -0.022    28.560     8.764
     7   6 C        2.920    -0.017    28.440     8.745
     8   6 C        2.920    -0.028    28.710     8.787
     9   6 C        2.912     0.077    26.270     8.405
    10   7 N        2.840    -0.049    22.190     6.996
    11   6 C        3.183     0.133    24.695     8.110
    12   6 C        2.974    -0.006    28.156     8.704
    13   6 C        2.920    -0.038    28.944     8.823
    14   6 C        2.924    -0.035    28.859     8.810
    15   6 C        2.976     0.014    27.696     8.633
    16   6 C        2.976     0.009    27.814     8.651
    17   6 C        2.923    -0.034    28.853     8.809
    18   6 C        2.923    -0.034    28.847     8.808
    19   6 C        2.976     0.010    27.799     8.649
    20   6 C        2.976     0.014    27.697     8.633
    21   6 C        2.924    -0.034    28.843     8.807
    22   6 C        2.920    -0.033    28.833     8.806
    23   6 C        2.974    -0.003    28.103     8.696
    24   6 C        3.179     0.144    24.485     8.079
    25   7 N        1.886    -0.320    29.159     8.005
    26   6 C        3.189     0.069    26.005     8.319
    27   6 C        2.910    -0.048    29.188     8.859
    28   6 C        2.922    -0.042    29.038     8.837
    29   6 C        2.926    -0.040    28.983     8.829
    30   6 C        2.908    -0.054    29.343     8.882
    31   6 C        3.087     0.036    27.097     8.533
    32   7 N        2.824    -0.060    22.395     7.029
    33   6 C        2.912     0.065    26.548     8.449
    34   6 C        2.921    -0.039    28.976     8.827
    35   6 C        2.920    -0.026    28.644     8.777
    36   6 C        2.919    -0.030    28.752     8.793
    37   6 C        2.920    -0.027    28.670     8.781
    38   6 C        2.922    -0.041    29.016     8.833
    39   6 C        2.924    -0.029    28.716     8.788
    40   6 C        2.923    -0.033    28.810     8.802
    41   6 C        2.923    -0.034    28.842     8.807
    42   6 C        2.922    -0.034    28.840     8.807
    43   6 C        2.923    -0.032    28.806     8.802
    44   6 C        2.925    -0.029    28.720     8.789
    45   7 N        1.893    -0.305    28.752     7.949
    46   6 C        3.204     0.060    26.088     8.320
    47   6 C        2.985    -0.002    28.057     8.689
    48   6 C        2.921    -0.033    28.813     8.803
    49   6 C        2.917    -0.031    28.767     8.795
    50   6 C        2.917    -0.033    28.823     8.804
    51   6 C        2.921    -0.036    28.891     8.814
    52   6 C        2.979    -0.003    28.100     8.695
    53   6 C        2.979     0.001    28.008     8.681
    54   6 C        2.922    -0.034    28.848     8.808
    55   6 C        2.916    -0.033    28.816     8.803
    56   6 C        2.917    -0.032    28.787     8.798
    57   6 C        2.919    -0.042    29.044     8.838
    58   6 C        2.978    -0.004    28.122     8.699
    59   6 C        3.066     0.019    27.524     8.603
    60   6 C        2.923    -0.033    28.829     8.805
    61   1 H        0.926     0.072     2.063     2.246
    62   1 H        0.926     0.078     2.000     2.212
    63   1 H        0.926     0.071     2.071     2.251
    64   1 H        0.926     0.029     2.595     2.519
    65   1 H        0.926     0.042     2.420     2.433
    66   1 H        0.926     0.036     2.498     2.471
    67   1 H        0.926     0.037     2.488     2.466
    68   1 H        0.926     0.041     2.430     2.438
    69   1 H        0.926     0.030     2.590     2.517
    70   1 H        0.926     0.038     2.479     2.462
    71   1 H        0.926     0.034     2.534     2.489
    72   1 H        0.926     0.035     2.519     2.482
    73   1 H        0.926     0.031     2.566     2.505
    74   1 H        0.926     0.036     2.498     2.471
    75   1 H        0.926     0.046     2.374     2.409
    76   1 H        0.926     0.046     2.372     2.408
    77   1 H        0.926     0.046     2.374     2.409
    78   1 H        0.926     0.042     2.419     2.432
    79   1 H        0.926     0.046     2.372     2.409
    80   1 H        0.926     0.045     2.388     2.417
    81   1 H        0.926     0.039     2.466     2.456
    82   1 H        0.926     0.039     2.466     2.456
    83   1 H        0.926     0.045     2.382     2.413
    84   1 H        0.926     0.046     2.364     2.405
    85   1 H        0.926     0.045     2.377     2.411
    86   1 H        0.926     0.034     2.526     2.485
    87   1 H        0.926     0.034     2.533     2.489
    88   1 H        0.926     0.037     2.490     2.468
    89   1 H        0.926     0.040     2.454     2.450
    90   1 H        0.926     0.035     2.516     2.481
    91   1 H        0.926     0.034     2.525     2.485
    92   1 H        0.926     0.029     2.602     2.522
    93   1 H        0.926     0.061     2.184     2.311

molecular dipole:
                 x           y           z       tot (Debye)
 q only:       -1.427      -1.467       1.499
   full:       -1.296      -2.188       1.457       7.449

 projected vibrational frequencies (cm⁻¹)
eigval :       -0.00    -0.00    -0.00    -0.00     0.00     0.00
eigval :        7.76    10.10    11.22    17.30    19.03    22.67
eigval :       26.80    28.33    35.46    43.50    47.34    58.77
eigval :       60.83    68.98    71.55    75.12    83.35    85.33
eigval :       92.05    92.98    99.07   110.82   115.99   127.82
eigval :      134.37   173.39   184.96   190.49   196.25   207.52
eigval :      210.39   221.72   233.77   241.59   252.19   262.34
eigval :      262.82   276.45   301.32   308.70   318.75   334.62
eigval :      339.31   344.22   350.53   366.81   372.73   377.22
eigval :      378.82   380.64   381.10   397.58   401.08   403.61
eigval :      412.28   419.83   434.09   436.57   439.84   444.78
eigval :      458.12   475.29   481.91   488.25   506.23   515.05
eigval :      518.58   523.41   534.03   537.02   548.02   549.50
eigval :      563.49   580.62   583.81   592.33   596.04   597.64
eigval :      598.63   605.54   608.32   613.69   636.34   644.79
eigval :      646.00   659.17   659.90   667.49   669.21   677.65
eigval :      680.41   683.86   688.89   697.82   701.84   709.49
eigval :      714.45   715.71   734.15   736.05   763.01   764.99
eigval :      769.04   773.65   782.82   787.80   800.32   805.28
eigval :      820.17   823.89   838.65   861.82   866.21   866.68
eigval :      868.52   871.46   874.06   876.43   878.29   883.66
eigval :      886.32   897.37   902.52   906.73   909.74   913.24
eigval :      913.88   919.00   920.95   923.44   923.91   924.41
eigval :      927.56   928.22   929.81   932.23   932.47   935.04
eigval :      938.38   949.40   954.59   969.43   986.39   997.58
eigval :     1003.05  1013.54  1025.93  1029.07  1041.41  1059.06
eigval :     1065.60  1076.90  1079.57  1083.30  1083.98  1087.30
eigval :     1107.53  1116.55  1122.83  1131.51  1131.70  1134.91
eigval :     1136.24  1139.40  1147.67  1150.72  1170.67  1172.24
eigval :     1178.27  1178.54  1181.75  1184.47  1188.83  1193.68
eigval :     1199.41  1200.81  1204.85  1206.30  1232.78  1253.82
eigval :     1257.77  1258.90  1260.31  1267.54  1269.87  1273.30
eigval :     1274.84  1278.70  1281.46  1290.86  1297.72  1311.28
eigval :     1313.08  1314.28  1316.53  1316.83  1318.67  1322.87
eigval :     1328.80  1336.93  1344.72  1361.32  1366.12  1371.88
eigval :     1387.26  1397.53  1406.16  1409.92  1411.68  1415.61
eigval :     1425.78  1432.28  1433.68  1437.71  1456.37  1467.08
eigval :     1473.91  1478.27  1485.70  1501.21  1511.55  1515.51
eigval :     1531.59  1542.98  1551.24  1557.63  1562.60  1565.37
eigval :     1569.17  1573.73  1582.39  1585.20  1587.49  1588.69
eigval :     1592.33  1592.80  1594.82  1602.68  1603.42  1614.03
eigval :     3071.10  3072.62  3073.36  3075.21  3076.52  3077.99
eigval :     3078.15  3079.89  3080.82  3081.63  3081.64  3083.22
eigval :     3084.47  3084.82  3085.78  3087.80  3087.90  3088.60
eigval :     3090.14  3091.92  3092.86  3095.71  3097.03  3098.67
eigval :     3098.89  3099.37  3099.74  3100.39  3103.97  3104.99
eigval :     3111.29  3113.51  3114.23

   temp. (K)  partition function   enthalpy   heat capacity  entropy
                                   cal/mol     cal/K/mol   cal/K/mol   J/K/mol
 298.15  VIB  0.150E+24            28052.731    173.784    177.042
         ROT  0.248E+09              888.752      2.981     41.395
         INT  0.373E+32            28941.483    176.765    218.437
         TR   0.212E+29             1481.254      4.968     45.831
         TOT                       30422.7374   181.7331   264.2683  1105.6987

       T/K    H(0)-H(T)+PV         H(T)/Eh          T*S/Eh         G(T)/Eh
   ------------------------------------------------------------------------
    298.15    0.484817E-01    0.742323E+00    0.125562E+00    0.616761E+00
   ------------------------------------------------------------------------

         :::::::::::::::::::::::::::::::::::::::::::::::::::::
         ::                  THERMODYNAMIC                  ::
         :::::::::::::::::::::::::::::::::::::::::::::::::::::
         :: total free energy        -155.753481697365 Eh   ::
         ::.................................................::
         :: total energy             -156.370242679311 Eh   ::
         :: zero point energy           0.693841678873 Eh   ::
         :: G(RRHO) w/o ZPVE           -0.077080696927 Eh   ::
         :: G(RRHO) contrib.            0.616760981946 Eh   ::
         :::::::::::::::::::::::::::::::::::::::::::::::::::::

           -------------------------------------------------
          | TOTAL ENERGY             -156.370242679311 Eh   |
          | TOTAL ENTHALPY           -155.627919282369 Eh   |
          | TOTAL FREE ENERGY        -155.753481697365 Eh   |
          | GRADIENT NORM               0.000040295923 Eh/α |
          | HOMO-LUMO GAP               2.481519022045 eV   |
           -------------------------------------------------

 * finished run on 2025/07/18 at 15:49:58.417
