   * xtb version 6.7.1 (edcfbbe) compiled by 'albert@albert-system' on 2024-07-22

   ID    Z sym.   atoms
    1    8 O      1
    2    6 C      2-8, 10-25, 27-34
    3   16 S      9
    4    7 N      26
    5    1 H      35-53

          program call               : xtb data2507/toluene/TX-CzPh/TX-CzPh_toluene_S0_crest.xyz --gfn 2 --gbsa toluene --ohess vtight --parallel 40 --molden --ceasefiles --namespace data2507/toluene/TX-CzPh/TX-CzPh_toluene_S0_finalOpt
      * Solvation model:               GBSA
        Solvent                        toluene
        Solvent mass                       9.2140E+01 g/mol
          :  Hamiltonian                  GFN2-xTB          :
 * total energy  :   -86.3772803 Eh     change       -0.6873080E-09 Eh
 * total energy  :   -86.3773460 Eh     change       -0.6569996E-04 Eh
 * total energy  :   -86.3773648 Eh     change       -0.1881592E-04 Eh
 * total energy  :   -86.3773677 Eh     change       -0.2941714E-05 Eh
 * total energy  :   -86.3773704 Eh     change       -0.2730470E-05 Eh
 * total energy  :   -86.3773727 Eh     change       -0.2213574E-05 Eh
 * total energy  :   -86.3773740 Eh     change       -0.1320686E-05 Eh
 * total energy  :   -86.3773750 Eh     change       -0.1009847E-05 Eh
 * total energy  :   -86.3773759 Eh     change       -0.8723677E-06 Eh
 * total energy  :   -86.3773765 Eh     change       -0.5943931E-06 Eh
 * total energy  :   -86.3773841 Eh     change       -0.4601851E-06 Eh
 * total energy  :   -86.3773846 Eh     change       -0.5100497E-06 Eh
 * total energy  :   -86.3773853 Eh     change       -0.6751927E-06 Eh
 * total energy  :   -86.3773860 Eh     change       -0.6704620E-06 Eh
 * total energy  :   -86.3773864 Eh     change       -0.4160345E-06 Eh
 * total energy  :   -86.3773866 Eh     change       -0.2239108E-06 Eh
 * total energy  :   -86.3773868 Eh     change       -0.1913375E-06 Eh
 * total energy  :   -86.3773869 Eh     change       -0.1188192E-06 Eh
 * total energy  :   -86.3773869 Eh     change       -0.7344468E-08 Eh
   *** GEOMETRY OPTIMIZATION CONVERGED AFTER 37 ITERATIONS ***

 final structure:
================
53
 xtb: 6.7.1 (edcfbbe)
O            3.84649393534711       -2.16417878681932        0.95653586725878
C            4.32541313503369       -1.13800629184433        0.47403388990688
C            5.78319003248153       -0.94872992937994        0.42608707339459
C            6.58063340432274       -1.96248196348314        0.97805510087779
C            7.95272489998309       -1.88223159524836        0.97936212131027
C            8.57764118148522       -0.77179743783445        0.41761691379143
C            7.82081888950047        0.23863102316612       -0.13108391588054
C            6.42636332071333        0.16046938879891       -0.12967207014731
S            5.58231003926810        1.50944770909864       -0.85109035231231
C            3.89586780173674        1.09976863563730       -0.64979986954811
C            2.97234832890933        2.03391932319770       -1.12329592063856
C            1.62201755703351        1.80178898620043       -1.01631279417467
C            1.14264186305144        0.62097753461281       -0.43331722533091
C           -0.30019778395881        0.36536403020913       -0.32423627831532
C           -0.80371691971214       -0.91862457788941       -0.58027294177701
C           -2.14974429472675       -1.20658093497999       -0.49584949240533
C           -3.01449381409279       -0.18495467323969       -0.12517846636418
C           -2.52782825515356        1.12076401545073        0.12164186399268
C           -1.17217387869920        1.39148511166097        0.01866776559722
C           -3.67267722448097        1.92776113845268        0.44087778077827
C           -3.83565058772988        3.26323736830030        0.78706159458609
C           -5.10774811075911        3.72518160366752        1.06048430712535
C           -6.20794372231388        2.87133205521626        1.00352131304073
C           -6.07129660597690        1.53973796505276        0.66022409768203
C           -4.79783297583508        1.07443818814442        0.36313887936073
N           -4.38426851136356       -0.19775787603295        0.01961120339524
C           -5.21937833555251       -1.31491662692389       -0.15288944025325
C           -4.94665862807642       -2.50208256149235        0.52006908551890
C           -5.76941023454644       -3.59974979353989        0.34275309624325
C           -6.86981959294718       -3.52034348563294       -0.49509012418587
C           -7.14460912958796       -2.33740111611455       -1.16171291725187
C           -6.32185227932623       -1.23763342256278       -0.99865042782833
C            2.06765011534179       -0.29677524194734        0.03193870705181
C            3.44849617071706       -0.08565803068443       -0.06076949822094
H            6.06743360892010       -2.81235139296191        1.40452304373479
H            8.54156312983820       -2.67615787670311        1.41227626182012
H            9.65455789524244       -0.70012541712117        0.41203028619458
H            8.29018643087529        1.10642480881050       -0.56950076711187
H            3.34017684340004        2.94083320614024       -1.57947982593567
H            0.92328428999657        2.52787842864950       -1.40310351218752
H           -0.11658693059547       -1.69763316171167       -0.87624502592726
H           -2.51661228486924       -2.19639738988363       -0.72151056151678
H           -0.79907975436876        2.38289367920939        0.22634945862002
H           -2.98165507152116        3.92138991742197        0.84625143530560
H           -5.25655593749765        4.76021792036395        1.33138896229515
H           -7.18915629432740        3.25850345966686        1.23704354859351
H           -6.92740702277986        0.88259229622780        0.63358231559050
H           -4.09881465235993       -2.55402778333749        1.18706565695676
H           -5.55323983861303       -4.51879981735518        0.86737742961070
H           -7.51192219741470       -4.37812812904228       -0.62779358069674
H           -7.99935029025721       -2.27194772947254       -1.81878164425133
H           -6.52089752207117       -0.31969152080034       -1.53164733887097
H            1.74632491711662       -1.21374393961758        0.50465702179903

          :  Hamiltonian                  GFN2-xTB          :
         :: gradient norm              0.000073214609 Eh/a0 ::
         :: HOMO-LUMO gap              1.809905089670 eV    ::
         :: SCC energy               -87.920885099340 Eh    ::
         :: -> dispersion             -0.072259667069 Eh    ::
         :: -> Gsolv                  -0.040742846254 Eh    ::
         :: repulsion energy           1.543498150126 Eh    ::

    * Orbital Energies and Occupations

         #    Occupation            Energy/Eh            Energy/eV
      -------------------------------------------------------------
         1        2.0000           -0.7405017             -20.1501
       ...           ...                  ...                  ...
        68        2.0000           -0.4279830             -11.6460
        69        2.0000           -0.4241238             -11.5410
        70        2.0000           -0.4232043             -11.5160
        71        2.0000           -0.4223431             -11.4925
        72        2.0000           -0.4199246             -11.4267
        73        2.0000           -0.4184497             -11.3866
        74        2.0000           -0.4126713             -11.2294
        75        2.0000           -0.4107512             -11.1771
        76        2.0000           -0.4050013             -11.0206
        77        2.0000           -0.3953314             -10.7575
        78        2.0000           -0.3833377             -10.4311
        79        2.0000           -0.3787447             -10.3062
        80        2.0000           -0.3620720              -9.8525 (HOMO)
        81                         -0.2955592              -8.0426 (LUMO)
        82                         -0.2591783              -7.0526
        83                         -0.2479201              -6.7463
        84                         -0.2426600              -6.6031
        85                         -0.2411984              -6.5633
        86                         -0.2332204              -6.3463
        87                         -0.2314996              -6.2994
        88                         -0.2190890              -5.9617
        89                         -0.2093808              -5.6975
        90                         -0.1960237              -5.3341
        91                         -0.1889395              -5.1413
       ...                                ...                  ...
       160                          0.7439721              20.2445
      -------------------------------------------------------------
                  HL-Gap            0.0665128 Eh            1.8099 eV

     #   Z          covCN         q      C6AA      α(0)
     1   8 O        0.858    -0.458    22.874     6.412
     2   6 C        2.833     0.219    23.390     7.925
     3   6 C        2.996    -0.025    28.623     8.776
     4   6 C        2.929    -0.018    28.458     8.749
     5   6 C        2.915    -0.030    28.749     8.792
     6   6 C        2.920    -0.019    28.476     8.751
     7   6 C        2.994    -0.037    28.906     8.819
     8   6 C        2.968     0.048    26.917     8.510
     9  16 S        2.160    -0.062   143.613    20.170
    10   6 C        2.968     0.044    27.015     8.526
    11   6 C        2.989    -0.038    28.945     8.825
    12   6 C        2.925    -0.026    28.651     8.778
    13   6 C        2.973     0.013    27.715     8.635
    14   6 C        2.976    -0.003    28.090     8.694
    15   6 C        2.928    -0.037    28.930     8.821
    16   6 C        2.908    -0.051    29.257     8.869
    17   6 C        3.077     0.048    26.849     8.495
    18   6 C        3.065    -0.018    28.388     8.737
    19   6 C        2.917    -0.038    28.951     8.823
    20   6 C        3.067    -0.018    28.390     8.737
    21   6 C        2.912    -0.034    28.854     8.808
    22   6 C        2.920    -0.042    29.044     8.838
    23   6 C        2.924    -0.034    28.855     8.809
    24   6 C        2.909    -0.051    29.265     8.871
    25   6 C        3.078     0.047    26.853     8.496
    26   7 N        2.802    -0.043    22.067     6.977
    27   6 C        2.913     0.064    26.577     8.454
    28   6 C        2.922    -0.042    29.037     8.837
    29   6 C        2.920    -0.028    28.692     8.784
    30   6 C        2.919    -0.032    28.806     8.801
    31   6 C        2.920    -0.028    28.694     8.784
    32   6 C        2.922    -0.042    29.035     8.836
    33   6 C        2.936    -0.026    28.647     8.778
    34   6 C        2.994    -0.027    28.655     8.781
    35   1 H        0.926     0.057     2.229     2.335
    36   1 H        0.926     0.051     2.302     2.373
    37   1 H        0.926     0.057     2.232     2.336
    38   1 H        0.926     0.057     2.231     2.336
    39   1 H        0.926     0.055     2.253     2.347
    40   1 H        0.926     0.056     2.246     2.343
    41   1 H        0.926     0.033     2.545     2.495
    42   1 H        0.926     0.034     2.533     2.489
    43   1 H        0.926     0.037     2.485     2.465
    44   1 H        0.926     0.032     2.559     2.502
    45   1 H        0.926     0.029     2.598     2.521
    46   1 H        0.926     0.031     2.569     2.506
    47   1 H        0.926     0.031     2.569     2.506
    48   1 H        0.926     0.041     2.433     2.439
    49   1 H        0.926     0.040     2.445     2.445
    50   1 H        0.926     0.040     2.451     2.448
    51   1 H        0.926     0.041     2.436     2.440
    52   1 H        0.926     0.042     2.418     2.432
    53   1 H        0.926     0.056     2.242     2.342

molecular dipole:
                 x           y           z       tot (Debye)
 q only:       -0.325       0.768      -0.663
   full:       -0.380       0.565      -0.587       2.286

 projected vibrational frequencies (cm⁻¹)
eigval :       -0.00    -0.00    -0.00    -0.00     0.00     0.00
eigval :       12.47    21.83    26.50    34.29    56.70    65.31
eigval :       68.34    96.10   103.37   120.84   129.15   145.98
eigval :      161.67   184.56   203.62   215.32   236.22   250.14
eigval :      274.13   301.36   316.42   335.80   357.54   371.45
eigval :      380.57   390.44   400.42   404.84   415.57   418.24
eigval :      433.45   442.76   454.27   461.14   476.78   494.53
eigval :      526.46   536.43   548.58   578.59   589.67   591.58
eigval :      600.16   607.54   614.22   642.32   646.15   663.90
eigval :      668.00   672.87   686.35   708.65   716.16   723.33
eigval :      730.71   762.23   764.96   773.43   786.08   818.01
eigval :      834.33   840.61   869.28   874.63   881.98   882.29
eigval :      894.27   897.35   901.03   907.47   916.09   920.90
eigval :      921.82   922.09   926.31   929.20   931.73   934.71
eigval :      956.68   997.28  1022.80  1042.72  1064.41  1069.02
eigval :     1079.24  1084.04  1089.64  1117.45  1122.08  1142.46
eigval :     1152.61  1158.35  1170.67  1174.73  1176.75  1177.51
eigval :     1183.70  1199.35  1218.82  1227.59  1237.85  1243.85
eigval :     1252.08  1263.33  1274.16  1291.90  1311.72  1315.17
eigval :     1340.07  1345.07  1349.85  1359.81  1365.81  1378.82
eigval :     1400.41  1418.95  1427.79  1433.25  1437.39  1449.39
eigval :     1478.31  1480.62  1487.21  1538.08  1555.17  1563.67
eigval :     1576.40  1580.65  1581.85  1582.66  1593.07  1595.60
eigval :     1606.72  1612.70  3071.42  3076.32  3077.36  3078.43
eigval :     3079.35  3083.65  3084.82  3085.40  3086.65  3087.07
eigval :     3087.79  3088.53  3090.75  3091.41  3093.03  3093.96
eigval :     3097.00  3097.59  3102.23

   temp. (K)  partition function   enthalpy   heat capacity  entropy
                                   cal/mol     cal/K/mol   cal/K/mol   J/K/mol
 298.15  VIB  0.501E+11            14703.813     96.480     89.507
         ROT  0.398E+08              888.752      2.981     37.755
         INT  0.199E+19            15592.565     99.461    127.262
         TR   0.935E+28             1481.254      4.968     44.205
         TOT                       17073.8192   104.4292   171.4670   717.4178

       T/K    H(0)-H(T)+PV         H(T)/Eh          T*S/Eh         G(T)/Eh
   ------------------------------------------------------------------------
    298.15    0.272089E-01    0.422276E+00    0.814695E-01    0.340807E+00
   ------------------------------------------------------------------------

         :::::::::::::::::::::::::::::::::::::::::::::::::::::
         ::                  THERMODYNAMIC                  ::
         :::::::::::::::::::::::::::::::::::::::::::::::::::::
         :: total free energy         -86.036579963997 Eh   ::
         ::.................................................::
         :: total energy              -86.377386950369 Eh   ::
         :: zero point energy           0.395067615488 Eh   ::
         :: G(RRHO) w/o ZPVE           -0.054260629116 Eh   ::
         :: G(RRHO) contrib.            0.340806986373 Eh   ::
         :::::::::::::::::::::::::::::::::::::::::::::::::::::

           -------------------------------------------------
          | TOTAL ENERGY              -86.377386950369 Eh   |
          | TOTAL ENTHALPY            -85.955110472144 Eh   |
          | TOTAL FREE ENERGY         -86.036579963997 Eh   |
          | GRADIENT NORM               0.000073201775 Eh/α |
          | HOMO-LUMO GAP               1.809904750856 eV   |
           -------------------------------------------------

 * finished run on 2025/09/08 at 07:42:28.732
