   * xtb version 6.7.1 (edcfbbe) compiled by 'albert@albert-system' on 2024-07-22

   ID    Z sym.   atoms
    1    8 O      1
    2    6 C      2-8, 10-25, 27-34
    3   16 S      9
    4    7 N      26
    5    1 H      35-53

          program call               : xtb data2507/toluene/TX-CzPh/TX-CzPh.xyz --gfn 2 --gbsa toluene --ohess vtight --parallel 40 --molden --ceasefiles --namespace data2507/toluene/TX-CzPh/TX-CzPh_toluene_S0_preOpt
      * Solvation model:               GBSA
        Solvent                        toluene
        Solvent mass                       9.2140E+01 g/mol
          :  Hamiltonian                  GFN2-xTB          :
 * total energy  :   -86.3642010 Eh     change       -0.8021175E-09 Eh
 * total energy  :   -86.3733329 Eh     change       -0.9131874E-02 Eh
 * total energy  :   -86.3756907 Eh     change       -0.2357802E-02 Eh
 * total energy  :   -86.3762825 Eh     change       -0.5918081E-03 Eh
 * total energy  :   -86.3765669 Eh     change       -0.2844688E-03 Eh
 * total energy  :   -86.3766608 Eh     change       -0.9388640E-04 Eh
 * total energy  :   -86.3767537 Eh     change       -0.9283874E-04 Eh
 * total energy  :   -86.3768486 Eh     change       -0.9493991E-04 Eh
 * total energy  :   -86.3769411 Eh     change       -0.9247338E-04 Eh
 * total energy  :   -86.3770228 Eh     change       -0.8171019E-04 Eh
 * total energy  :   -86.3773880 Eh     change       -0.4496862E-06 Eh
 * total energy  :   -86.3773884 Eh     change       -0.4113317E-06 Eh
 * total energy  :   -86.3773888 Eh     change       -0.4170947E-06 Eh
 * total energy  :   -86.3773893 Eh     change       -0.5009351E-06 Eh
 * total energy  :   -86.3773898 Eh     change       -0.5006536E-06 Eh
 * total energy  :   -86.3773903 Eh     change       -0.4722996E-06 Eh
 * total energy  :   -86.3773907 Eh     change       -0.4170836E-06 Eh
 * total energy  :   -86.3773911 Eh     change       -0.3815396E-06 Eh
 * total energy  :   -86.3773911 Eh     change       -0.3831445E-08 Eh
   *** GEOMETRY OPTIMIZATION CONVERGED AFTER 68 ITERATIONS ***

 final structure:
================
53
 xtb: 6.7.1 (edcfbbe)
O            4.37870851379660       -2.01409034590607        0.92559234123731
C            4.84661554935857       -1.00454204202257        0.39918584722971
C            6.30286285642234       -0.81271160418959        0.32248001661889
C            7.11222752915321       -1.80885661915239        0.88902253446310
C            8.48389734769177       -1.72443140452849        0.86693983928704
C            9.09620253274009       -0.62698526739862        0.26706426181676
C            8.32755358201924        0.36607634598275       -0.29668887650877
C            6.93358184858820        0.28301688825739       -0.27287374606697
S            6.07390203866186        1.60885579805104       -1.01835453777359
C            4.39219825465555        1.19336878095529       -0.79135457925758
C            3.45830555845378        2.10627969057646       -1.28559340918419
C            2.11061025819776        1.87042361413079       -1.15641546357044
C            1.64433681126246        0.70627165106590       -0.53082171646483
C            0.20416240129941        0.44885086162781       -0.39366452706002
C           -0.29906503996710       -0.84358634161206       -0.60302162102169
C           -1.64240078015780       -1.13316639761475       -0.48598366446534
C           -2.50402367290708       -0.10419119742825       -0.12843319601309
C           -2.01788586335534        1.20997934193559        0.06961161328040
C           -0.66548182985542        1.48201482738541       -0.06648936655507
C           -3.15932474374085        2.02225681751206        0.38736920737909
C           -3.32022381197988        3.36684651210874        0.69725699739573
C           -4.58823112334930        3.83270895581208        0.98266593981107
C           -5.68602643360090        2.97397709488230        0.97365270175156
C           -5.55123706905264        1.63311925687247        0.66753861679323
C           -4.28238684813338        1.16319571055473        0.35808336556456
N           -3.87065381677995       -0.11740859505758        0.04436532543651
C           -4.70398049733834       -1.24309956230113       -0.07134286609569
C           -4.40706863524801       -2.40768781686671        0.63029803740411
C           -5.22819050637109       -3.51414262416157        0.50911217099463
C           -6.35094242177190       -3.46589412260267       -0.30099806071392
C           -6.65011253546958       -2.30528170519400       -0.99573352714689
C           -5.82914952478048       -1.19728252362856       -0.88911348628370
C            2.57938548191207       -0.19174677476366       -0.04767906631600
C            3.95796926802894        0.02452659113297       -0.16083116878850
H            6.60853507865365       -2.64855103318991        1.34590137983458
H            9.08208637742346       -2.50493146010678        1.31130187059049
H           10.17264403980469       -0.55181183913637        0.24357768962322
H            8.78713570829393        1.22351822244107       -0.76483042457805
H            3.81602883108083        3.00000633401876       -1.77463998046506
H            1.40342501542893        2.57980848858341       -1.55858261136750
H            0.38560767933526       -1.62873516619052       -0.88834993564223
H           -2.00948186515570       -2.13037129478453       -0.67590165967811
H           -0.29245704005524        2.48043398365310        0.10447430578272
H           -2.46768589057945        4.02914708701431        0.71965089355218
H           -4.73543578178372        4.87493592541828        1.22540113904587
H           -6.66372945285085        3.36482350499082        1.21562907607440
H           -6.40522205270062        0.97284047920994        0.67888722547720
H           -3.54167689193463       -2.43515823262054        1.27584344150867
H           -4.99306819250607       -4.41536271613664        1.05604788384925
H           -6.99162087450153       -4.33038876477529       -0.38978471916001
H           -7.52254057108410       -2.26418910938434       -1.63119229782224
H           -6.04710548894148       -0.29738510161800       -1.44501684664789
H            2.26842669369429       -1.09529410180228        0.45673863284407

          :  Hamiltonian                  GFN2-xTB          :
         :: gradient norm              0.000047763073 Eh/a0 ::
         :: HOMO-LUMO gap              1.809711866556 eV    ::
         :: SCC energy               -87.920878596466 Eh    ::
         :: -> dispersion             -0.072259607596 Eh    ::
         :: -> Gsolv                  -0.040742645237 Eh    ::
         :: repulsion energy           1.543487472419 Eh    ::

    * Orbital Energies and Occupations

         #    Occupation            Energy/Eh            Energy/eV
      -------------------------------------------------------------
         1        2.0000           -0.7405153             -20.1504
       ...           ...                  ...                  ...
        68        2.0000           -0.4279836             -11.6460
        69        2.0000           -0.4241240             -11.5410
        70        2.0000           -0.4232208             -11.5164
        71        2.0000           -0.4223604             -11.4930
        72        2.0000           -0.4199067             -11.4262
        73        2.0000           -0.4184634             -11.3870
        74        2.0000           -0.4126217             -11.2280
        75        2.0000           -0.4107329             -11.1766
        76        2.0000           -0.4050092             -11.0209
        77        2.0000           -0.3953301             -10.7575
        78        2.0000           -0.3833345             -10.4311
        79        2.0000           -0.3787627             -10.3067
        80        2.0000           -0.3620713              -9.8525 (HOMO)
        81                         -0.2955656              -8.0427 (LUMO)
        82                         -0.2591649              -7.0522
        83                         -0.2479411              -6.7468
        84                         -0.2426475              -6.6028
        85                         -0.2412049              -6.5635
        86                         -0.2331804              -6.3452
        87                         -0.2314535              -6.2982
        88                         -0.2191220              -5.9626
        89                         -0.2094019              -5.6981
        90                         -0.1959952              -5.3333
        91                         -0.1889447              -5.1414
       ...                                ...                  ...
       160                          0.7440145              20.2457
      -------------------------------------------------------------
                  HL-Gap            0.0665057 Eh            1.8097 eV

     #   Z          covCN         q      C6AA      α(0)
     1   8 O        0.858    -0.458    22.875     6.412
     2   6 C        2.833     0.219    23.390     7.925
     3   6 C        2.996    -0.025    28.623     8.776
     4   6 C        2.929    -0.018    28.459     8.749
     5   6 C        2.915    -0.030    28.749     8.792
     6   6 C        2.920    -0.019    28.476     8.751
     7   6 C        2.994    -0.037    28.906     8.819
     8   6 C        2.968     0.048    26.918     8.510
     9  16 S        2.160    -0.062   143.610    20.169
    10   6 C        2.968     0.044    27.015     8.526
    11   6 C        2.989    -0.038    28.945     8.825
    12   6 C        2.925    -0.026    28.650     8.778
    13   6 C        2.973     0.013    27.715     8.635
    14   6 C        2.976    -0.003    28.090     8.694
    15   6 C        2.928    -0.037    28.929     8.821
    16   6 C        2.908    -0.051    29.257     8.869
    17   6 C        3.077     0.048    26.850     8.495
    18   6 C        3.066    -0.018    28.387     8.737
    19   6 C        2.917    -0.038    28.951     8.823
    20   6 C        3.067    -0.018    28.389     8.737
    21   6 C        2.912    -0.034    28.854     8.808
    22   6 C        2.920    -0.042    29.044     8.838
    23   6 C        2.924    -0.034    28.855     8.809
    24   6 C        2.909    -0.051    29.266     8.871
    25   6 C        3.077     0.047    26.853     8.496
    26   7 N        2.802    -0.043    22.066     6.977
    27   6 C        2.913     0.064    26.577     8.454
    28   6 C        2.922    -0.042    29.039     8.837
    29   6 C        2.920    -0.028    28.693     8.784
    30   6 C        2.919    -0.032    28.807     8.801
    31   6 C        2.920    -0.028    28.694     8.784
    32   6 C        2.922    -0.042    29.037     8.837
    33   6 C        2.936    -0.026    28.647     8.778
    34   6 C        2.994    -0.027    28.655     8.781
    35   1 H        0.926     0.057     2.229     2.335
    36   1 H        0.926     0.051     2.302     2.373
    37   1 H        0.926     0.057     2.232     2.336
    38   1 H        0.926     0.057     2.231     2.336
    39   1 H        0.926     0.055     2.252     2.347
    40   1 H        0.926     0.056     2.246     2.343
    41   1 H        0.926     0.033     2.545     2.495
    42   1 H        0.926     0.034     2.532     2.489
    43   1 H        0.926     0.037     2.486     2.465
    44   1 H        0.926     0.032     2.559     2.502
    45   1 H        0.926     0.029     2.598     2.521
    46   1 H        0.926     0.031     2.569     2.506
    47   1 H        0.926     0.031     2.567     2.506
    48   1 H        0.926     0.041     2.434     2.440
    49   1 H        0.926     0.040     2.445     2.445
    50   1 H        0.926     0.040     2.452     2.449
    51   1 H        0.926     0.041     2.436     2.441
    52   1 H        0.926     0.042     2.418     2.432
    53   1 H        0.926     0.056     2.242     2.342

molecular dipole:
                 x           y           z       tot (Debye)
 q only:       -0.335       0.743      -0.687
   full:       -0.387       0.541      -0.604       2.285

 projected vibrational frequencies (cm⁻¹)
eigval :       -0.00    -0.00    -0.00     0.00     0.00     0.00
eigval :       13.40    24.17    27.41    35.32    56.29    65.33
eigval :       65.98    97.14   103.27   122.80   129.18   147.71
eigval :      162.20   183.43   203.65   215.26   235.82   249.40
eigval :      272.68   300.45   315.99   335.64   355.39   371.65
eigval :      381.41   389.34   397.11   404.29   415.63   417.07
eigval :      431.41   442.67   454.55   460.95   476.68   494.36
eigval :      526.47   535.98   548.47   578.34   589.93   591.00
eigval :      599.87   607.43   614.17   642.21   646.11   663.72
eigval :      667.53   672.93   684.86   706.44   715.75   723.69
eigval :      730.62   764.07   765.00   775.77   785.83   817.57
eigval :      834.45   840.89   868.35   873.55   882.54   882.87
eigval :      893.66   897.52   902.61   907.84   915.29   921.83
eigval :      922.42   923.36   925.82   928.28   934.63   935.65
eigval :      956.62   997.21  1022.71  1042.70  1064.39  1068.39
eigval :     1079.10  1083.88  1088.66  1117.14  1121.83  1142.39
eigval :     1152.40  1157.82  1170.45  1173.74  1176.83  1179.90
eigval :     1182.97  1199.20  1218.57  1226.33  1237.12  1243.62
eigval :     1251.55  1263.09  1273.56  1291.93  1311.18  1315.37
eigval :     1340.00  1344.90  1349.83  1359.49  1365.82  1378.68
eigval :     1399.94  1418.36  1427.50  1433.95  1436.78  1449.15
eigval :     1478.13  1480.50  1486.93  1538.13  1555.13  1563.33
eigval :     1576.32  1580.42  1581.77  1582.66  1593.27  1595.24
eigval :     1606.64  1612.43  3071.49  3076.84  3077.35  3078.46
eigval :     3079.45  3083.11  3084.93  3085.85  3086.57  3087.47
eigval :     3088.01  3088.34  3090.57  3091.38  3093.03  3093.59
eigval :     3097.56  3097.76  3101.95

   temp. (K)  partition function   enthalpy   heat capacity  entropy
                                   cal/mol     cal/K/mol   cal/K/mol   J/K/mol
 298.15  VIB  0.410E+11            14705.435     96.530     89.385
         ROT  0.398E+08              888.752      2.981     37.755
         INT  0.163E+19            15594.188     99.510    127.139
         TR   0.935E+28             1481.254      4.968     44.205
         TOT                       17075.4418   104.4786   171.3439   716.9027

       T/K    H(0)-H(T)+PV         H(T)/Eh          T*S/Eh         G(T)/Eh
   ------------------------------------------------------------------------
    298.15    0.272114E-01    0.422246E+00    0.814110E-01    0.340835E+00
   ------------------------------------------------------------------------

         :::::::::::::::::::::::::::::::::::::::::::::::::::::
         ::                  THERMODYNAMIC                  ::
         :::::::::::::::::::::::::::::::::::::::::::::::::::::
         :: total free energy         -86.036556347465 Eh   ::
         ::.................................................::
         :: total energy              -86.377391126262 Eh   ::
         :: zero point energy           0.395034328736 Eh   ::
         :: G(RRHO) w/o ZPVE           -0.054199549939 Eh   ::
         :: G(RRHO) contrib.            0.340834778797 Eh   ::
         :::::::::::::::::::::::::::::::::::::::::::::::::::::

           -------------------------------------------------
          | TOTAL ENERGY              -86.377391126262 Eh   |
          | TOTAL ENTHALPY            -85.955145349001 Eh   |
          | TOTAL FREE ENERGY         -86.036556347465 Eh   |
          | GRADIENT NORM               0.000047750864 Eh/α |
          | HOMO-LUMO GAP               1.809711943239 eV   |
           -------------------------------------------------

 * finished run on 2025/09/08 at 07:40:21.457
