   * xtb version 6.7.1 (edcfbbe) compiled by 'albert@albert-system' on 2024-07-22

   ID    Z sym.   atoms
    1    8 O      1
    2    6 C      2-8, 10-25, 27-34
    3   16 S      9
    4    7 N      26
    5    1 H      35-53

          program call               : xtb data2507/toluene/TX-CzPh/TX-CzPh_toluene_T1_crest.xyz --gfn 2 --uhf 2 --gbsa toluene --ohess vtight --parallel 40 --molden --ceasefiles --namespace data2507/toluene/TX-CzPh/TX-CzPh_toluene_T1_finalOpt
      * Solvation model:               GBSA
        Solvent                        toluene
        Solvent mass                       9.2140E+01 g/mol
          :  Hamiltonian                  GFN2-xTB          :
 * total energy  :   -86.2950929 Eh     change       -0.9560779E-08 Eh
 * total energy  :   -86.2951935 Eh     change       -0.1005566E-03 Eh
 * total energy  :   -86.2952178 Eh     change       -0.2435468E-04 Eh
 * total energy  :   -86.2952211 Eh     change       -0.3313522E-05 Eh
 * total energy  :   -86.2952228 Eh     change       -0.1636704E-05 Eh
 * total energy  :   -86.2952250 Eh     change       -0.2213728E-05 Eh
 * total energy  :   -86.2952271 Eh     change       -0.2123475E-05 Eh
 * total energy  :   -86.2952287 Eh     change       -0.1641388E-05 Eh
 * total energy  :   -86.2952302 Eh     change       -0.1467904E-05 Eh
 * total energy  :   -86.2952316 Eh     change       -0.1440049E-05 Eh
 * total energy  :   -86.2952357 Eh     change       -0.8451981E-06 Eh
 * total energy  :   -86.2952364 Eh     change       -0.6498664E-06 Eh
 * total energy  :   -86.2952368 Eh     change       -0.3754900E-06 Eh
 * total energy  :   -86.2952370 Eh     change       -0.2300187E-06 Eh
 * total energy  :   -86.2952371 Eh     change       -0.1643030E-06 Eh
 * total energy  :   -86.2952373 Eh     change       -0.1312423E-06 Eh
 * total energy  :   -86.2952374 Eh     change       -0.1230054E-06 Eh
 * total energy  :   -86.2952375 Eh     change       -0.1314223E-06 Eh
 * total energy  :   -86.2952375 Eh     change       -0.2287237E-08 Eh
   *** GEOMETRY OPTIMIZATION CONVERGED AFTER 22 ITERATIONS ***

 final structure:
================
53
 xtb: 6.7.1 (edcfbbe)
O            3.71157583826740        2.01466860808742        0.81877396329288
C            4.24027683708052        0.91970885117000        0.42954885995214
C            5.67922747594903        0.77351365441979        0.43360905969937
C            6.46049187121673        1.84249290555848        0.91721337391711
C            7.83509261654188        1.77695631488741        0.96448036749821
C            8.50022507301312        0.63368641529709        0.53697142223482
C            7.76047405491979       -0.43732912004650        0.05580778257504
C            6.37793045551145       -0.37004229637078        0.00346343163021
S            5.56332118718845       -1.79744141157180       -0.63642845297637
C            3.86401415881825       -1.42139442876269       -0.47230851462624
C            2.97133447344811       -2.41813067172774       -0.84742715741149
C            1.60681299071779       -2.22173066630664       -0.76768272911948
C            1.10304651567648       -0.98815387150771       -0.31216819445665
C           -0.33142727087811       -0.75607781812716       -0.20881820271202
C           -1.19959366956927       -1.81404011683943        0.12684987808239
C           -2.55993544611009       -1.64146309680200        0.23407760404558
C           -3.08274909491531       -0.37478531716632       -0.02123376621814
C           -2.22504467470379        0.71086853119811       -0.34111311164185
C           -0.86176587234262        0.52082199815633       -0.43041727024547
C           -3.07563971709991        1.86505111778593       -0.49304517403751
C           -2.83502277258842        3.19265320204165       -0.80986308215047
C           -3.91362726534062        4.05840550364215       -0.88724729038338
C           -5.21206877664645        3.60941408085767       -0.66595728896236
C           -5.47527636382028        2.28766440375825       -0.34882594640569
C           -4.39583241342379        1.42222396028199       -0.24804181485248
N           -4.37701060501388        0.06626041853443        0.03222047888404
C           -5.50359393184473       -0.72513841068646        0.31356093236619
C           -6.40308415692178       -0.33123143922046        1.30047954343373
C           -7.51271855542192       -1.11175905254146        1.56913853269307
C           -7.72954324951928       -2.28485439004135        0.86383695058715
C           -6.83153798185312       -2.67863158379053       -0.11541784304482
C           -5.72103710408415       -1.90344708007804       -0.39549849039121
C            2.00578938913124        0.00559677149869        0.05059167827486
C            3.39839710076064       -0.17099050699266        0.00189851135684
H            5.92850434335235        2.72278279621687        1.24794099956714
H            8.39644511290602        2.62215872368397        1.33545742727511
H            9.57640212496810        0.57459402416664        0.57351756171589
H            8.25312530521974       -1.33708937950596       -0.28247436640057
H            3.36737174345950       -3.35309148956902       -1.21531561038830
H            0.93611438928326       -2.99939102729043       -1.09362220400524
H           -0.77659956624564       -2.78251025998989        0.34303889421712
H           -3.20001076913173       -2.46033911533593        0.52374897037654
H           -0.21235564786198        1.34112158145457       -0.69302777196629
H           -1.82996511077342        3.53970068280468       -0.99492994408539
H           -3.74701464506972        5.09691957822226       -1.13100591379169
H           -6.03314044639903        4.30580743173202       -0.74663484696728
H           -6.48660909712414        1.94514485347588       -0.19443701767594
H           -6.21693312164856        0.57119035402031        1.86321973021567
H           -8.20658940749611       -0.80559793074083        2.33763553022434
H           -8.59643115167094       -2.89148505792990        1.07765757597079
H           -6.99939728814931       -3.58997236976306       -0.66949867786386
H           -5.03041645923441       -2.19348694450455       -1.17311777006612
H            1.66443544337280        0.95412599545667        0.43820843886080

          :  Hamiltonian                  GFN2-xTB          :
         :: gradient norm              0.000038881990 Eh/a0 ::
         :: HOMO-LUMO gap              0.565129868174 eV    ::
         :: SCC energy               -87.823556100226 Eh    ::
         :: -> dispersion             -0.072202795533 Eh    ::
         :: -> Gsolv                  -0.050293801777 Eh    ::
         :: repulsion energy           1.528318565241 Eh    ::

    * Orbital Energies and Occupations

         #    Occupation            Energy/Eh            Energy/eV
      -------------------------------------------------------------
         1        2.0000           -0.7365550             -20.0427
       ...           ...                  ...                  ...
        69        2.0000           -0.4282791             -11.6541
        70        2.0000           -0.4250461             -11.5661
        71        2.0000           -0.4217507             -11.4764
        72        2.0000           -0.4210077             -11.4562
        73        2.0000           -0.4197463             -11.4219
        74        2.0000           -0.4104298             -11.1684
        75        2.0000           -0.4084544             -11.1146
        76        2.0000           -0.4041195             -10.9967
        77        2.0000           -0.3953912             -10.7591
        78        2.0000           -0.3817869             -10.3889
        79        1.8397           -0.3723631             -10.1325
        80        1.1603           -0.3692165             -10.0469
        81        1.0000           -0.2820720              -7.6756 (HOMO)
        82        0.0000           -0.2613038              -7.1104 (LUMO)
        83        0.0000           -0.2602497              -7.0818
        84                         -0.2436881              -6.6311
        85                         -0.2400507              -6.5321
        86                         -0.2350353              -6.3956
        87                         -0.2286229              -6.2211
        88                         -0.2252696              -6.1299
        89                         -0.2047339              -5.5711
        90                         -0.2035679              -5.5394
        91                         -0.1996543              -5.4329
        92                         -0.1643500              -4.4722
       ...                                ...                  ...
       160                          0.7305417              19.8791
      -------------------------------------------------------------
                  HL-Gap            0.0207682 Eh            0.5651 eV

     #   Z          covCN         q      C6AA      α(0)
     1   8 O        0.858    -0.538    24.638     6.655
     2   6 C        2.835     0.159    24.547     8.119
     3   6 C        2.991    -0.020    28.503     8.758
     4   6 C        2.928    -0.034    28.839     8.807
     5   6 C        2.914    -0.029    28.723     8.788
     6   6 C        2.918    -0.043    29.056     8.839
     7   6 C        2.991    -0.039    28.961     8.828
     8   6 C        2.968     0.029    27.352     8.579
     9  16 S        2.155    -0.034   142.443    20.087
    10   6 C        2.966     0.032    27.286     8.568
    11   6 C        2.987    -0.038    28.946     8.825
    12   6 C        2.920    -0.050    29.239     8.867
    13   6 C        2.971     0.018    27.614     8.620
    14   6 C        2.976     0.016    27.655     8.626
    15   6 C        2.926    -0.032    28.807     8.802
    16   6 C        2.906    -0.042    29.045     8.837
    17   6 C        3.074     0.051    26.771     8.483
    18   6 C        3.062    -0.008    28.155     8.701
    19   6 C        2.916    -0.027    28.685     8.783
    20   6 C        3.064    -0.011    28.220     8.711
    21   6 C        2.912    -0.027    28.664     8.779
    22   6 C        2.920    -0.032    28.801     8.801
    23   6 C        2.923    -0.029    28.723     8.789
    24   6 C        2.909    -0.042    29.036     8.836
    25   6 C        3.076     0.046    26.884     8.501
    26   7 N        2.803    -0.007    21.394     6.870
    27   6 C        2.914     0.061    26.642     8.464
    28   6 C        2.921    -0.038    28.938     8.822
    29   6 C        2.920    -0.024    28.610     8.771
    30   6 C        2.919    -0.027    28.670     8.780
    31   6 C        2.920    -0.024    28.610     8.771
    32   6 C        2.921    -0.038    28.947     8.823
    33   6 C        2.933    -0.034    28.858     8.810
    34   6 C        2.990    -0.021    28.528     8.761
    35   1 H        0.926     0.039     2.469     2.457
    36   1 H        0.926     0.037     2.487     2.466
    37   1 H        0.926     0.040     2.455     2.450
    38   1 H        0.926     0.045     2.389     2.417
    39   1 H        0.926     0.049     2.334     2.389
    40   1 H        0.926     0.048     2.345     2.395
    41   1 H        0.926     0.053     2.283     2.363
    42   1 H        0.926     0.052     2.291     2.367
    43   1 H        0.926     0.048     2.350     2.397
    44   1 H        0.926     0.042     2.427     2.436
    45   1 H        0.926     0.042     2.425     2.435
    46   1 H        0.926     0.045     2.384     2.414
    47   1 H        0.926     0.047     2.353     2.399
    48   1 H        0.926     0.050     2.322     2.383
    49   1 H        0.926     0.048     2.341     2.393
    50   1 H        0.926     0.047     2.357     2.401
    51   1 H        0.926     0.049     2.337     2.390
    52   1 H        0.926     0.050     2.320     2.382
    53   1 H        0.926     0.047     2.354     2.400

molecular dipole:
                 x           y           z       tot (Debye)
 q only:       -5.198      -2.031      -0.626
   full:       -5.133      -1.822      -0.523      13.907

 projected vibrational frequencies (cm⁻¹)
eigval :       -0.00    -0.00    -0.00    -0.00     0.00     0.00
eigval :       15.55    23.14    27.55    35.51    58.98    63.21
eigval :       64.65    83.52   104.92   124.70   128.13   147.73
eigval :      163.37   182.09   203.10   219.67   232.06   260.57
eigval :      267.10   282.76   306.45   325.67   339.17   348.28
eigval :      379.21   383.30   395.88   399.82   406.74   412.83
eigval :      424.60   439.45   441.19   450.79   474.02   492.78
eigval :      508.39   542.48   550.45   571.19   578.29   587.80
eigval :      590.32   591.91   609.37   614.26   638.91   647.07
eigval :      655.63   660.25   669.83   688.90   707.10   712.46
eigval :      724.11   748.04   762.21   764.47   775.76   782.78
eigval :      829.55   832.73   842.11   849.72   869.35   872.58
eigval :      875.72   879.80   880.22   896.30   902.94   905.70
eigval :      909.68   918.13   921.25   924.38   931.92   935.01
eigval :      948.11   996.02  1017.54  1024.38  1035.75  1067.50
eigval :     1069.08  1078.62  1082.64  1117.34  1118.01  1132.96
eigval :     1144.94  1157.09  1168.29  1175.54  1178.24  1179.68
eigval :     1181.54  1197.35  1207.58  1219.67  1232.27  1232.68
eigval :     1242.80  1254.76  1270.97  1280.15  1294.02  1314.72
eigval :     1327.15  1335.51  1350.09  1351.65  1360.75  1366.54
eigval :     1391.54  1392.99  1405.60  1414.90  1423.41  1431.65
eigval :     1440.71  1458.39  1467.26  1471.54  1477.12  1502.17
eigval :     1512.44  1542.29  1564.33  1573.09  1576.72  1581.81
eigval :     1586.00  1599.73  3073.84  3081.29  3082.00  3082.96
eigval :     3083.50  3083.55  3086.31  3088.47  3088.96  3090.95
eigval :     3093.61  3094.69  3095.65  3100.22  3100.75  3100.77
eigval :     3101.89  3105.07  3110.02

   temp. (K)  partition function   enthalpy   heat capacity  entropy
                                   cal/mol     cal/K/mol   cal/K/mol   J/K/mol
 298.15  VIB  0.501E+11            14928.407     97.929     90.613
         ROT  0.382E+08              888.752      2.981     37.674
         INT  0.191E+19            15817.159    100.910    128.287
         TR   0.935E+28             1481.254      4.968     44.205
         TOT                       17298.4129   105.8777   172.4917   721.7053

       T/K    H(0)-H(T)+PV         H(T)/Eh          T*S/Eh         G(T)/Eh
   ------------------------------------------------------------------------
    298.15    0.275668E-01    0.419497E+00    0.819564E-01    0.337541E+00
   ------------------------------------------------------------------------

         :::::::::::::::::::::::::::::::::::::::::::::::::::::
         ::                  THERMODYNAMIC                  ::
         :::::::::::::::::::::::::::::::::::::::::::::::::::::
         :: total free energy         -85.957696428172 Eh   ::
         ::.................................................::
         :: total energy              -86.295237535411 Eh   ::
         :: zero point energy           0.391930706269 Eh   ::
         :: G(RRHO) w/o ZPVE           -0.054389599030 Eh   ::
         :: G(RRHO) contrib.            0.337541107239 Eh   ::
         :::::::::::::::::::::::::::::::::::::::::::::::::::::

           -------------------------------------------------
          | TOTAL ENERGY              -86.295237535411 Eh   |
          | TOTAL ENTHALPY            -85.875740053464 Eh   |
          | TOTAL FREE ENERGY         -85.957696428172 Eh   |
          | GRADIENT NORM               0.000039177459 Eh/α |
          | HOMO-LUMO GAP               0.565131795585 eV   |
           -------------------------------------------------

 * finished run on 2025/09/08 at 07:45:26.013
