   * xtb version 6.7.1 (edcfbbe) compiled by 'albert@albert-system' on 2024-07-22

   ID    Z sym.   atoms
    1    8 O      1
    2    6 C      2-8, 10-25, 27-34
    3   16 S      9
    4    7 N      26
    5    1 H      35-53

          program call               : xtb data2507/toluene/TX-CzPh/TX-CzPh_toluene_S0_finalOpt.xtbopt.xyz --gfn 2 --uhf 2 --gbsa toluene --ohess vtight --parallel 40 --molden --ceasefiles --namespace data2507/toluene/TX-CzPh/TX-CzPh_toluene_T1_preOpt
      * Solvation model:               GBSA
        Solvent                        toluene
        Solvent mass                       9.2140E+01 g/mol
          :  Hamiltonian                  GFN2-xTB          :
 * total energy  :   -86.2911635 Eh     change       -0.4608722E-08 Eh
 * total energy  :   -86.2942188 Eh     change       -0.3055283E-02 Eh
 * total energy  :   -86.2950154 Eh     change       -0.7966306E-03 Eh
 * total energy  :   -86.2950737 Eh     change       -0.5828399E-04 Eh
 * total energy  :   -86.2950966 Eh     change       -0.2290697E-04 Eh
 * total energy  :   -86.2951142 Eh     change       -0.1757262E-04 Eh
 * total energy  :   -86.2951279 Eh     change       -0.1375900E-04 Eh
 * total energy  :   -86.2951409 Eh     change       -0.1294079E-04 Eh
 * total energy  :   -86.2951487 Eh     change       -0.7827841E-05 Eh
 * total energy  :   -86.2951568 Eh     change       -0.8090208E-05 Eh
 * total energy  :   -86.2952288 Eh     change       -0.2934110E-06 Eh
 * total energy  :   -86.2952290 Eh     change       -0.2192440E-06 Eh
 * total energy  :   -86.2952292 Eh     change       -0.1520039E-06 Eh
 * total energy  :   -86.2952294 Eh     change       -0.1571738E-06 Eh
 * total energy  :   -86.2952296 Eh     change       -0.2080926E-06 Eh
 * total energy  :   -86.2952299 Eh     change       -0.3050403E-06 Eh
 * total energy  :   -86.2952301 Eh     change       -0.2652155E-06 Eh
 * total energy  :   -86.2952303 Eh     change       -0.1429108E-06 Eh
 * total energy  :   -86.2952304 Eh     change       -0.8299645E-07 Eh
   *** GEOMETRY OPTIMIZATION CONVERGED AFTER 40 ITERATIONS ***

 final structure:
================
53
 xtb: 6.7.1 (edcfbbe)
O            3.80462966920001       -2.28386227259340        0.72141202411288
C            4.31181824985538       -1.17691675882064        0.33757274601169
C            5.74728176477822       -0.99968169820637        0.35187764452986
C            6.54825091780474       -2.05483892995349        0.83345522791450
C            7.92096946895314       -1.96101110011445        0.88796645597260
C            8.56417981295417       -0.80178416159243        0.47012349367903
C            7.80455481797597        0.25661728928144       -0.00799475831375
C            6.42395326815162        0.16100700851052       -0.06733676014259
S            5.58261287459617        1.57649023616342       -0.69906342621745
C            3.89089344587519        1.15934254078022       -0.55709225514071
C            2.97935711866568        2.13771725822271       -0.93526244201860
C            1.61910263252327        1.90881685953083       -0.87242900484642
C            1.13960026207514        0.65943887696643       -0.43398687191346
C           -0.29006806592556        0.39424572516699       -0.34597171278024
C           -0.79221320668986       -0.89783402842021       -0.59863126900053
C           -2.13342891575569       -1.19165069312638       -0.51952401802211
C           -3.00898213762911       -0.17054321286672       -0.15265854185003
C           -2.52807753820605        1.14423085488805        0.08455565885877
C           -1.18070007453155        1.42271552412857       -0.01480156367622
C           -3.68412954810667        1.94618973340975        0.39871847809449
C           -3.85936056528021        3.28045127573328        0.73066836165281
C           -5.14122291526069        3.73096519352422        0.99997796511679
C           -6.23066461201441        2.86660753810890        0.95279444929187
C           -6.07871520440099        1.53039238510759        0.62320500075963
C           -4.79984410368726        1.08064995235302        0.32958608588072
N           -4.36912638277520       -0.19218463075446       -0.00558260117203
C           -5.19376275689122       -1.32129509034079       -0.14516325586473
C           -4.89382091539014       -2.49223232433796        0.54574289564812
C           -5.70964773874166       -3.60013331759457        0.40593128335486
C           -6.82452402468413       -3.54778879347680       -0.41549432283675
C           -7.12309908277547       -2.38165363535871       -1.10214349683393
C           -6.31173747246388       -1.26918187514980       -0.97323936666475
C            2.06100627140761       -0.31541833504285       -0.06730627884914
C            3.44944647917330       -0.10477409332720       -0.09594304680254
H            6.03310600364767       -2.94794709057453        1.15638848290559
H            8.49797815043163       -2.79640138254955        1.25711332289306
H            9.63873450467714       -0.72062003949368        0.51207759432365
H            8.28004399533972        1.16865699552245       -0.33788374016055
H            3.35747410915555        3.08444069920005       -1.29169783126022
H            0.93390051104953        2.67285875207166       -1.20045420450517
H           -0.10158209097553       -1.67264385509115       -0.89385767153714
H           -2.49560936296866       -2.18234558044941       -0.74682106067421
H           -0.81340890342938        2.41494089080586        0.19350210866863
H           -3.01416790428531        3.94917415159535        0.78381132633609
H           -5.29921002813456        4.76689322398472        1.25981570134587
H           -7.21582566167952        3.24402820793685        1.18229862671108
H           -6.92657795472963        0.86350180058213        0.60499767682589
H           -4.03646558222937       -2.52107740477115        1.20153228191855
H           -5.47627770849496       -4.50527855406032        0.94628358000435
H           -7.45971529959363       -4.41426297552539       -0.51963456892261
H           -7.98771726291566       -2.33954873722226       -1.74740800559760
H           -6.52650427962703       -0.36614161371031       -1.52456432523094
H            1.73683176969758       -1.27504602914129        0.30758376897410

          :  Hamiltonian                  GFN2-xTB          :
         :: gradient norm              0.000040409083 Eh/a0 ::
         :: HOMO-LUMO gap              0.565350265561 eV    ::
         :: SCC energy               -87.823696745357 Eh    ::
         :: -> dispersion             -0.072180255243 Eh    ::
         :: -> Gsolv                  -0.050211004099 Eh    ::
         :: repulsion energy           1.528466388304 Eh    ::

    * Orbital Energies and Occupations

         #    Occupation            Energy/Eh            Energy/eV
      -------------------------------------------------------------
         1        2.0000           -0.7366287             -20.0447
       ...           ...                  ...                  ...
        69        2.0000           -0.4284020             -11.6574
        70        2.0000           -0.4252134             -11.5706
        71        2.0000           -0.4217735             -11.4770
        72        2.0000           -0.4209715             -11.4552
        73        2.0000           -0.4196048             -11.4180
        74        2.0000           -0.4106362             -11.1740
        75        2.0000           -0.4085292             -11.1166
        76        2.0000           -0.4042088             -10.9991
        77        2.0000           -0.3954285             -10.7602
        78        2.0000           -0.3818490             -10.3906
        79        1.8388           -0.3724417             -10.1347
        80        1.1612           -0.3693078             -10.0494
        81        1.0000           -0.2821476              -7.6776 (HOMO)
        82        0.0000           -0.2613709              -7.1123 (LUMO)
        83        0.0000           -0.2602851              -7.0827
        84                         -0.2436678              -6.6305
        85                         -0.2399858              -6.5303
        86                         -0.2349889              -6.3944
        87                         -0.2288050              -6.2261
        88                         -0.2254436              -6.1346
        89                         -0.2049425              -5.5768
        90                         -0.2034952              -5.5374
        91                         -0.1996118              -5.4317
        92                         -0.1644484              -4.4749
       ...                                ...                  ...
       160                          0.7307015              19.8834
      -------------------------------------------------------------
                  HL-Gap            0.0207766 Eh            0.5654 eV

     #   Z          covCN         q      C6AA      α(0)
     1   8 O        0.858    -0.538    24.633     6.654
     2   6 C        2.835     0.159    24.547     8.119
     3   6 C        2.991    -0.020    28.501     8.757
     4   6 C        2.928    -0.034    28.838     8.807
     5   6 C        2.914    -0.029    28.722     8.788
     6   6 C        2.918    -0.042    29.054     8.839
     7   6 C        2.991    -0.039    28.961     8.828
     8   6 C        2.968     0.029    27.352     8.579
     9  16 S        2.155    -0.033   142.420    20.086
    10   6 C        2.966     0.032    27.288     8.568
    11   6 C        2.987    -0.038    28.946     8.825
    12   6 C        2.920    -0.050    29.237     8.867
    13   6 C        2.971     0.018    27.612     8.619
    14   6 C        2.976     0.016    27.653     8.626
    15   6 C        2.926    -0.031    28.765     8.795
    16   6 C        2.906    -0.041    29.028     8.834
    17   6 C        3.074     0.052    26.764     8.482
    18   6 C        3.062    -0.008    28.157     8.702
    19   6 C        2.916    -0.029    28.732     8.790
    20   6 C        3.064    -0.011    28.217     8.711
    21   6 C        2.912    -0.027    28.675     8.781
    22   6 C        2.920    -0.032    28.808     8.802
    23   6 C        2.923    -0.029    28.722     8.789
    24   6 C        2.909    -0.042    29.031     8.835
    25   6 C        3.076     0.046    26.886     8.501
    26   7 N        2.803    -0.008    21.402     6.871
    27   6 C        2.914     0.061    26.641     8.464
    28   6 C        2.921    -0.038    28.942     8.822
    29   6 C        2.920    -0.024    28.609     8.771
    30   6 C        2.919    -0.027    28.670     8.780
    31   6 C        2.920    -0.024    28.614     8.772
    32   6 C        2.921    -0.038    28.942     8.822
    33   6 C        2.933    -0.034    28.858     8.810
    34   6 C        2.990    -0.021    28.526     8.761
    35   1 H        0.926     0.039     2.468     2.457
    36   1 H        0.926     0.037     2.486     2.466
    37   1 H        0.926     0.040     2.454     2.450
    38   1 H        0.926     0.045     2.387     2.416
    39   1 H        0.926     0.049     2.333     2.389
    40   1 H        0.926     0.048     2.347     2.396
    41   1 H        0.926     0.046     2.370     2.407
    42   1 H        0.926     0.049     2.330     2.387
    43   1 H        0.926     0.055     2.263     2.352
    44   1 H        0.926     0.045     2.381     2.413
    45   1 H        0.926     0.043     2.410     2.428
    46   1 H        0.926     0.045     2.389     2.417
    47   1 H        0.926     0.046     2.367     2.406
    48   1 H        0.926     0.048     2.345     2.395
    49   1 H        0.926     0.047     2.354     2.399
    50   1 H        0.926     0.047     2.360     2.402
    51   1 H        0.926     0.049     2.333     2.389
    52   1 H        0.926     0.051     2.306     2.375
    53   1 H        0.926     0.047     2.352     2.398

molecular dipole:
                 x           y           z       tot (Debye)
 q only:       -5.160       1.726      -0.679
   full:       -5.091       1.439      -0.589      13.529

 projected vibrational frequencies (cm⁻¹)
eigval :       -0.00    -0.00    -0.00     0.00     0.00     0.00
eigval :       16.95    20.09    29.47    35.20    56.15    66.53
eigval :       67.46    91.26   100.73   119.70   128.45   150.94
eigval :      163.76   179.05   200.17   215.67   233.17   247.82
eigval :      269.31   291.26   307.47   322.81   344.46   348.69
eigval :      379.20   387.60   395.06   396.58   406.34   412.58
eigval :      427.45   437.55   442.93   452.11   473.56   492.96
eigval :      512.12   541.80   544.52   570.46   578.51   587.07
eigval :      589.14   594.33   607.99   613.81   639.76   646.66
eigval :      654.28   660.80   670.30   688.60   707.39   712.60
eigval :      723.39   751.53   760.36   764.28   773.39   776.84
eigval :      825.18   834.46   849.20   853.40   867.66   869.18
eigval :      876.97   878.12   881.28   896.12   904.42   908.99
eigval :      909.98   919.80   921.29   922.79   934.41   935.49
eigval :      949.44   996.01  1016.92  1023.97  1034.86  1066.65
eigval :     1068.50  1077.77  1082.83  1116.98  1117.12  1130.64
eigval :     1146.80  1154.00  1163.57  1171.85  1174.94  1178.28
eigval :     1180.88  1196.60  1206.87  1218.42  1230.30  1234.21
eigval :     1237.51  1253.91  1269.96  1284.95  1295.41  1314.70
eigval :     1325.51  1335.07  1350.67  1352.83  1355.68  1367.21
eigval :     1389.99  1393.91  1405.91  1412.36  1422.39  1431.40
eigval :     1443.46  1459.15  1467.01  1470.75  1475.43  1502.18
eigval :     1512.99  1541.81  1564.37  1572.56  1576.77  1581.91
eigval :     1586.31  1599.27  3073.77  3079.61  3082.44  3083.02
eigval :     3083.34  3084.58  3086.42  3088.21  3088.86  3091.19
eigval :     3092.32  3095.63  3096.46  3100.17  3101.16  3101.93
eigval :     3102.05  3103.62  3109.63

   temp. (K)  partition function   enthalpy   heat capacity  entropy
                                   cal/mol     cal/K/mol   cal/K/mol   J/K/mol
 298.15  VIB  0.482E+11            14930.635     98.000     90.598
         ROT  0.397E+08              888.752      2.981     37.753
         INT  0.192E+19            15819.387    100.981    128.351
         TR   0.935E+28             1481.254      4.968     44.205
         TOT                       17300.6413   105.9490   172.5557   721.9732

       T/K    H(0)-H(T)+PV         H(T)/Eh          T*S/Eh         G(T)/Eh
   ------------------------------------------------------------------------
    298.15    0.275703E-01    0.419427E+00    0.819868E-01    0.337441E+00
   ------------------------------------------------------------------------

         :::::::::::::::::::::::::::::::::::::::::::::::::::::
         ::                  THERMODYNAMIC                  ::
         :::::::::::::::::::::::::::::::::::::::::::::::::::::
         :: total free energy         -85.957789686968 Eh   ::
         ::.................................................::
         :: total energy              -86.295230351321 Eh   ::
         :: zero point energy           0.391857141176 Eh   ::
         :: G(RRHO) w/o ZPVE           -0.054416476822 Eh   ::
         :: G(RRHO) contrib.            0.337440664353 Eh   ::
         :::::::::::::::::::::::::::::::::::::::::::::::::::::

           -------------------------------------------------
          | TOTAL ENERGY              -86.295230351321 Eh   |
          | TOTAL ENTHALPY            -85.875802883237 Eh   |
          | TOTAL FREE ENERGY         -85.957789686968 Eh   |
          | GRADIENT NORM               0.000038353338 Eh/α |
          | HOMO-LUMO GAP               0.565361268891 eV   |
           -------------------------------------------------

 * finished run on 2025/09/08 at 07:42:32.319
