   * xtb version 6.7.1 (edcfbbe) compiled by 'albert@albert-system' on 2024-07-22

   ID    Z sym.   atoms
    1    6 C      1-4, 6, 8-13, 15-24
    2    7 N      5, 7
    3    8 O      14, 25, 26
    4    1 H      27-40

          program call               : xtb data2507/gas/PXZ-PPO/PXZ-PPO_gas_T1_crest.xyz --gfn 2 --spinpol --tblite --uhf 2 --ohess vtight --parallel 40 --molden --ceasefiles --namespace data2507/gas/PXZ-PPO/PXZ-PPO_gas_T1_finalOpt
 * total energy  :   -70.1139948 Eh     change       -0.9127803E-08 Eh
 * total energy  :   -70.1140410 Eh     change       -0.4625989E-04 Eh
 * total energy  :   -70.1141034 Eh     change       -0.6241063E-04 Eh
 * total energy  :   -70.1141128 Eh     change       -0.9418480E-05 Eh
 * total energy  :   -70.1141256 Eh     change       -0.1280381E-04 Eh
 * total energy  :   -70.1141295 Eh     change       -0.3829421E-05 Eh
 * total energy  :   -70.1141329 Eh     change       -0.3425471E-05 Eh
 * total energy  :   -70.1141341 Eh     change       -0.1217356E-05 Eh
 * total energy  :   -70.1141352 Eh     change       -0.1072675E-05 Eh
 * total energy  :   -70.1141361 Eh     change       -0.9107580E-06 Eh
 * total energy  :   -70.1141384 Eh     change       -0.5755423E-06 Eh
 * total energy  :   -70.1141390 Eh     change       -0.5814179E-06 Eh
 * total energy  :   -70.1141396 Eh     change       -0.6732245E-06 Eh
 * total energy  :   -70.1141404 Eh     change       -0.7437178E-06 Eh
 * total energy  :   -70.1141411 Eh     change       -0.6974690E-06 Eh
 * total energy  :   -70.1141416 Eh     change       -0.5582226E-06 Eh
 * total energy  :   -70.1141420 Eh     change       -0.4081471E-06 Eh
 * total energy  :   -70.1141423 Eh     change       -0.2846099E-06 Eh
 * total energy  :   -70.1141423 Eh     change       -0.8209369E-08 Eh
   *** GEOMETRY OPTIMIZATION CONVERGED AFTER 22 ITERATIONS ***

 final structure:
================
40
 xtb: 6.7.1 (edcfbbe)
C            5.65635653016136        1.42784274491659        1.67887022550568
C            4.57035810061079        0.73711611504838        0.91900062505733
C            3.25455907010925        0.96568522776840        1.10942261935304
C            2.28878161796152        0.24746751981824        0.32963462921961
N            1.00897467474467        0.43089761530363        0.53925831098188
C            0.09250258527349       -0.28031059535011       -0.16885579903660
N           -1.26830025882855       -0.02944572080427        0.04190214683127
C           -1.79592158688213        1.24550987877086       -0.11658112951184
C           -0.98763988377620        2.37520586888655       -0.24479783333231
C           -1.55240839020264        3.62584019267731       -0.40727393326639
C           -2.93130112835514        3.77440681246617       -0.47091270245099
C           -3.75048912543612        2.66631028726472       -0.36525202754461
C           -3.19439917376805        1.40561958192711       -0.18272727053664
O           -4.05157979615827        0.35484175320524       -0.09259562344849
C           -3.52988396058538       -0.87525005294907        0.16875527824751
C           -4.41334184721893       -1.92747251341933        0.33908578211172
C           -3.93756436083909       -3.19047632005124        0.64838662505616
C           -2.56810237036471       -3.39311424203999        0.81238631081422
C           -1.67894000664630       -2.35955596776030        0.63041646719950
C           -2.13384339597738       -1.07979002197633        0.27811792773560
C            0.49005817584240       -1.22478461099751       -1.13627859332471
C            1.81896917430007       -1.43572776263220       -1.36808086326674
C            2.78751893545635       -0.69490178755486       -0.61610160405680
C            4.18345362893119       -0.90372228909136       -0.78344355880808
O            4.71333317959750       -1.66233832746163       -1.57776695289981
O            5.04189042235214       -0.13793870143345        0.02332334852866
H            6.31247124425377        1.95088408261699        0.98522275751999
H            5.23968451683998        2.13326082024814        2.39034478988440
H            6.25943641974869        0.69017331750471        2.20561570763207
H            2.90884903598391        1.66608246696191        1.84951485728980
H            0.08209275035447        2.26063046568308       -0.19686730022944
H           -0.91141379497528        4.48867530203002       -0.49573423452056
H           -3.36776187357744        4.75053685714159       -0.61195974466169
H           -4.82374415640778        2.74720104846075       -0.42548643240927
H           -5.46851047883733       -1.73290095884114        0.23360565706529
H           -4.62796041097657       -4.00786511736679        0.77811229120316
H           -2.19889408948352       -4.36899695786633        1.08580372680413
H           -0.62134983248622       -2.51622915056916        0.76951328430166
H           -0.27327896048598       -1.72300614807276       -1.71598233994450
H            2.16822857954734       -2.13998628066273       -2.10388511779299

 projected vibrational frequencies (cm⁻¹)
eigval :       -0.00     0.00     0.00     0.00     0.00     0.00
eigval :       24.18    30.78    33.71    64.51    66.92    93.87
eigval :      113.68   124.33   142.59   148.22   175.07   235.70
eigval :      241.09   260.49   270.39   274.65   286.37   310.33
eigval :      381.04   391.72   394.72   418.30   419.32   434.16
eigval :      460.07   479.81   485.16   489.87   527.33   532.07
eigval :      537.87   545.77   556.47   575.10   595.53   611.64
eigval :      642.71   654.69   666.42   673.00   677.43   725.14
eigval :      745.61   765.79   770.60   774.43   815.71   832.29
eigval :      852.28   855.24   857.42   865.11   891.88   895.35
eigval :      899.51   910.02   913.39   914.27   948.55   992.46
eigval :     1018.27  1022.45  1038.61  1071.83  1082.40  1103.02
eigval :     1114.64  1120.97  1139.17  1168.56  1171.11  1181.35
eigval :     1184.21  1209.51  1234.92  1238.71  1241.95  1248.44
eigval :     1269.84  1286.98  1297.53  1330.45  1336.07  1352.92
eigval :     1365.69  1384.65  1389.46  1407.13  1419.49  1433.40
eigval :     1448.56  1452.78  1462.98  1480.78  1497.50  1513.06
eigval :     1523.90  1544.23  1614.26  1641.21  3016.37  3031.08
eigval :     3066.30  3071.35  3097.93  3098.95  3106.66  3106.90
eigval :     3112.74  3115.62  3116.52  3117.63  3124.35  3128.80

   temp. (K)  partition function   enthalpy   heat capacity  entropy
                                   cal/mol     cal/K/mol   cal/K/mol   J/K/mol
 298.15  VIB  0.715E+08            11439.575     75.210     68.922
         ROT  0.124E+08              888.752      2.981     35.435
         INT  0.885E+15            12328.327     78.191    104.357
         TR   0.613E+28             1481.254      4.968     43.367
         TOT                       13809.5811    83.1589   147.7237   618.0759

       T/K    H(0)-H(T)+PV         H(T)/Eh          T*S/Eh         G(T)/Eh
   ------------------------------------------------------------------------
    298.15    0.220070E-01    0.310483E+00    0.701883E-01    0.240295E+00
   ------------------------------------------------------------------------

         :::::::::::::::::::::::::::::::::::::::::::::::::::::
         ::                  THERMODYNAMIC                  ::
         :::::::::::::::::::::::::::::::::::::::::::::::::::::
         :: total free energy         -69.873847675772 Eh   ::
         ::.................................................::
         :: total energy              -70.114142337149 Eh   ::
         :: zero point energy           0.288475983630 Eh   ::
         :: G(RRHO) w/o ZPVE           -0.048181322253 Eh   ::
         :: G(RRHO) contrib.            0.240294661377 Eh   ::
         :::::::::::::::::::::::::::::::::::::::::::::::::::::

           -------------------------------------------------
          | TOTAL ENERGY              -70.114142337149 Eh   |
          | TOTAL ENTHALPY            -69.803659385287 Eh   |
          | TOTAL FREE ENERGY         -69.873847675772 Eh   |
          | GRADIENT NORM               0.000043663270 Eh/α |
           -------------------------------------------------

 * finished run on 2025/09/04 at 09:09:39.757
