   * xtb version 6.7.1 (edcfbbe) compiled by 'albert@albert-system' on 2024-07-22

   ID    Z sym.   atoms
    1    6 C      1-4, 6, 8-13, 15-24
    2    7 N      5, 7
    3    8 O      14, 25, 26
    4    1 H      27-40

          program call               : xtb data2507/gas/PXZ-PPO/PXZ-PPO_gas_S0_finalOpt.xtbopt.xyz --gfn 2 --spinpol --tblite --uhf 2 --ohess vtight --parallel 40 --molden --ceasefiles --namespace data2507/gas/PXZ-PPO/PXZ-PPO_gas_T1_preOpt
 * total energy  :   -70.1029394 Eh     change       -0.1824218E-07 Eh
 * total energy  :   -70.1068486 Eh     change       -0.3909171E-02 Eh
 * total energy  :   -70.1086016 Eh     change       -0.1752990E-02 Eh
 * total energy  :   -70.1089237 Eh     change       -0.3221137E-03 Eh
 * total energy  :   -70.1094861 Eh     change       -0.5624289E-03 Eh
 * total energy  :   -70.1097819 Eh     change       -0.2957969E-03 Eh
 * total energy  :   -70.1101410 Eh     change       -0.3590888E-03 Eh
 * total energy  :   -70.1105540 Eh     change       -0.4129648E-03 Eh
 * total energy  :   -70.1109167 Eh     change       -0.3627696E-03 Eh
 * total energy  :   -70.1112587 Eh     change       -0.3419708E-03 Eh
 * total energy  :   -70.1141192 Eh     change       -0.4339057E-05 Eh
 * total energy  :   -70.1141228 Eh     change       -0.3622016E-05 Eh
 * total energy  :   -70.1141257 Eh     change       -0.2838830E-05 Eh
 * total energy  :   -70.1141280 Eh     change       -0.2342934E-05 Eh
 * total energy  :   -70.1141300 Eh     change       -0.2052113E-05 Eh
 * total energy  :   -70.1141320 Eh     change       -0.1911175E-05 Eh
 * total energy  :   -70.1141338 Eh     change       -0.1822195E-05 Eh
 * total energy  :   -70.1141354 Eh     change       -0.1661657E-05 Eh
 * total energy  :   -70.1141355 Eh     change       -0.1659257E-07 Eh
   *** GEOMETRY OPTIMIZATION CONVERGED AFTER 44 ITERATIONS ***

 final structure:
================
40
 xtb: 6.7.1 (edcfbbe)
C            5.68106632609251       -1.53633212067673        1.41738357468835
C            4.57191646392054       -0.79221128930860        0.74660184354930
C            3.26287128887043       -1.04392582971656        0.95360554837124
C            2.27300435604325       -0.27507365803624        0.25683112853193
N            1.00043097665349       -0.48499613770129        0.48337417210836
C            0.06052637861327        0.26636646274062       -0.14890442446305
N           -1.29167460847969       -0.01832959294328        0.07151812374023
C           -2.16836452025481        1.00074281667160        0.39091848382955
C           -1.72641541625215        2.26458940756888        0.81098377651997
C           -2.62778302691601        3.27010707224337        1.07339681253830
C           -3.99686194274270        3.05440937921766        0.92628961090860
C           -4.45914151649164        1.80364343399352        0.55283066297858
C           -3.56292232103217        0.77900901287902        0.30097459427979
O           -4.07132057817139       -0.44266348341586       -0.01945349730015
C           -3.19980879052172       -1.47159828621485       -0.18974904681901
C           -3.74059852160314       -2.72945090369494       -0.42800280332553
C           -2.90723245151289       -3.81578373735012       -0.61772798584902
C           -1.52991919393857       -3.64649402879993       -0.58376626545242
C           -0.98094929776506       -2.39732434495320       -0.36562888813800
C           -1.80297149686201       -1.29078969930613       -0.15014370369283
C            0.42731736499322        1.28357425256832       -1.05314540631640
C            1.74845323180965        1.52625024539925       -1.29749448116270
C            2.74131248314940        0.74113288761372       -0.62617896191629
C            4.13100108598770        0.97488168112225       -0.81044228368623
O            4.63579965008762        1.79823668305397       -1.55512768552610
O            5.01480058242024        0.15477957556871       -0.08844299711854
H            6.30707132825186       -2.01466333404469        0.66589622088797
H            6.30848677684208       -0.83830194955929        1.96890680860107
H            5.28658727699003       -2.28663378336120        2.09479596228055
H            2.94059567956092       -1.80304647606238        1.64476900159220
H           -0.66884975735037        2.43093457933441        0.93825437138858
H           -2.26803914164179        4.23391601643484        1.39759441440879
H           -4.69725698677787        3.85057946213249        1.11908054033179
H           -5.51313855004504        1.59707223833670        0.45923368011037
H           -4.81367677753752       -2.82541646555178       -0.46416923251071
H           -3.33188099468746       -4.79001639255886       -0.80139531716142
H           -0.87762023264320       -4.49127908323047       -0.73890599546980
H            0.08775791351220       -2.26750603133849       -0.34022116604576
H           -0.35340431806195        1.81343457689597       -1.57916337923057
H            2.07397353928308        2.28685002385649       -1.98664442346230

 projected vibrational frequencies (cm⁻¹)
eigval :       -0.00    -0.00    -0.00    -0.00     0.00     0.00
eigval :       24.94    31.13    33.92    63.53    66.49    93.91
eigval :      114.64   124.81   142.53   148.93   175.13   235.50
eigval :      241.31   260.96   270.64   275.09   286.27   310.41
eigval :      380.72   391.38   395.45   419.10   419.58   434.30
eigval :      460.57   479.74   485.65   490.15   527.68   531.91
eigval :      537.96   545.72   556.26   575.67   595.53   611.56
eigval :      642.79   654.72   666.89   673.11   677.10   724.85
eigval :      747.12   766.03   770.99   774.91   815.72   833.03
eigval :      851.84   855.21   856.58   865.91   891.40   894.77
eigval :      899.43   910.09   912.80   913.95   948.41   992.81
eigval :     1017.93  1022.25  1041.34  1072.11  1082.55  1104.06
eigval :     1114.31  1121.41  1139.79  1168.42  1170.98  1181.40
eigval :     1184.36  1209.62  1234.64  1238.28  1242.68  1248.31
eigval :     1270.76  1286.14  1297.29  1330.22  1335.89  1353.23
eigval :     1365.66  1384.60  1388.85  1407.15  1419.58  1433.41
eigval :     1447.99  1452.95  1462.26  1481.57  1498.37  1512.42
eigval :     1523.89  1545.23  1614.27  1641.33  3016.22  3030.58
eigval :     3065.88  3071.29  3097.92  3098.91  3106.69  3107.04
eigval :     3112.95  3115.67  3116.80  3117.72  3124.61  3128.73

   temp. (K)  partition function   enthalpy   heat capacity  entropy
                                   cal/mol     cal/K/mol   cal/K/mol   J/K/mol
 298.15  VIB  0.684E+08            11433.892     75.194     68.866
         ROT  0.124E+08              888.752      2.981     35.434
         INT  0.847E+15            12322.645     78.174    104.300
         TR   0.613E+28             1481.254      4.968     43.367
         TOT                       13803.8986    83.1426   147.6671   617.8390

       T/K    H(0)-H(T)+PV         H(T)/Eh          T*S/Eh         G(T)/Eh
   ------------------------------------------------------------------------
    298.15    0.219979E-01    0.310501E+00    0.701614E-01    0.240339E+00
   ------------------------------------------------------------------------

         :::::::::::::::::::::::::::::::::::::::::::::::::::::
         ::                  THERMODYNAMIC                  ::
         :::::::::::::::::::::::::::::::::::::::::::::::::::::
         :: total free energy         -69.873796124178 Eh   ::
         ::.................................................::
         :: total energy              -70.114135458226 Eh   ::
         :: zero point energy           0.288502813470 Eh   ::
         :: G(RRHO) w/o ZPVE           -0.048163479421 Eh   ::
         :: G(RRHO) contrib.            0.240339334048 Eh   ::
         :::::::::::::::::::::::::::::::::::::::::::::::::::::

           -------------------------------------------------
          | TOTAL ENERGY              -70.114135458226 Eh   |
          | TOTAL ENTHALPY            -69.803634732054 Eh   |
          | TOTAL FREE ENERGY         -69.873796124178 Eh   |
          | GRADIENT NORM               0.000077920197 Eh/α |
           -------------------------------------------------

 * finished run on 2025/09/04 at 09:08:01.608
