   * xtb version 6.7.1 (edcfbbe) compiled by 'albert@albert-system' on 2024-07-22

   ID    Z sym.   atoms
    1    6 C      1-4, 6, 8-13, 15-24
    2    7 N      5, 7
    3    8 O      14, 25, 26
    4    1 H      27-40

          program call               : xtb data2507/gas/PXZ-PPO/PXZ-PPO_gas_S0_crest.xyz --gfn 2 --ohess vtight --parallel 40 --molden --ceasefiles --namespace data2507/gas/PXZ-PPO/PXZ-PPO_gas_S0_finalOpt
          :  Hamiltonian                  GFN2-xTB          :
 * total energy  :   -70.2012396 Eh     change       -0.1523262E-08 Eh
 * total energy  :   -70.2012401 Eh     change       -0.5235838E-06 Eh
 * total energy  :   -70.2012405 Eh     change       -0.4044847E-06 Eh
 * total energy  :   -70.2012412 Eh     change       -0.6615455E-06 Eh
 * total energy  :   -70.2012415 Eh     change       -0.3231969E-06 Eh
 * total energy  :   -70.2012415 Eh     change        0.5766381E-08 Eh
 * total energy  :   -70.2012417 Eh     change       -0.2615814E-06 Eh
 * total energy  :   -70.2012417 Eh     change        0.1682609E-07 Eh
 * total energy  :   -70.2012420 Eh     change       -0.3058919E-06 Eh
 * total energy  :   -70.2012424 Eh     change       -0.4065673E-06 Eh
 * total energy  :   -70.2012436 Eh     change       -0.6096011E-06 Eh
 * total energy  :   -70.2012443 Eh     change       -0.6077118E-06 Eh
 * total energy  :   -70.2012446 Eh     change       -0.3704841E-06 Eh
 * total energy  :   -70.2012449 Eh     change       -0.2340493E-06 Eh
 * total energy  :   -70.2012450 Eh     change       -0.1807858E-06 Eh
 * total energy  :   -70.2012452 Eh     change       -0.1681063E-06 Eh
 * total energy  :   -70.2012453 Eh     change       -0.1457036E-06 Eh
 * total energy  :   -70.2012455 Eh     change       -0.1147059E-06 Eh
 * total energy  :   -70.2012455 Eh     change       -0.7775223E-07 Eh
   *** GEOMETRY OPTIMIZATION CONVERGED AFTER 20 ITERATIONS ***

 final structure:
================
40
 xtb: 6.7.1 (edcfbbe)
C            5.71173693924088       -1.91266589364957        0.68913285636602
C            4.59287167913516       -0.97938450232108        0.36436915124301
C            3.28511081535594       -1.26298052305869        0.52080841773588
C            2.30780220688172       -0.27551825920286        0.17119789688765
N            1.01635860592399       -0.55015330909410        0.33987837801323
C            0.10931882236063        0.36275566051037        0.02225266407148
N           -1.21619424459622        0.03943293286343        0.19441240097918
C           -2.20205135277933        1.04034981184241        0.30716902654192
C           -1.98427189816079        2.21531943199018        1.01670309787742
C           -2.96835140788107        3.18609779276537        1.08137350717552
C           -4.18698211610187        2.98609324066279        0.45626136396964
C           -4.44104350490232        1.79361043071532       -0.19821384759462
C           -3.45850255735393        0.81760883248619       -0.26193626142796
O           -3.75653933579650       -0.36844743575364       -0.87479609094343
C           -2.98713005362914       -1.43983002888032       -0.48723318132482
C           -3.51732715320629       -2.70463562458567       -0.68034288846689
C           -2.79843035380383       -3.82243438581649       -0.29387056834161
C           -1.56519887422917       -3.66779702851192        0.31083090341938
C           -1.03171626224222       -2.40485962630617        0.51179171422291
C           -1.72194059559384       -1.27742156944313        0.09034236833503
C            0.47111707110331        1.61838942445137       -0.52667348964886
C            1.79731153328870        1.90740597338235       -0.69848589833117
C            2.76114322653369        0.95673916456963       -0.32982311574922
C            4.18038494866641        1.22108328653176       -0.48136937963300
O            4.66838552102986        2.24299781528586       -0.89631528885313
O            5.03066377630781        0.20459029758497       -0.11274832184481
H            6.29745083837157       -2.11001819217931       -0.20720184373963
H            6.37541391604030       -1.45106660868071        1.41827450258157
H            5.32771747765745       -2.84668730556299        1.08541008640879
H            2.95735137612809       -2.21329314461521        0.90284716127087
H           -1.03579109545125        2.36698924696850        1.50919515650956
H           -2.77794450811901        4.09989793867430        1.62226132130219
H           -4.94906721075559        3.74855036896123        0.49332729014106
H           -5.39155250729585        1.59936592101063       -0.66850767727880
H           -4.48846995216059       -2.78859223068836       -1.14146543099957
H           -3.21039575067951       -4.80611516240727       -0.45722114298459
H           -1.00644170199924       -4.53354377693736        0.63137542559376
H           -0.06633350956471       -2.28131345129499        0.96900483587207
H           -0.29027084050639        2.31503308347553       -0.83803046599021
H            2.12496693968320        2.84310218995749       -1.12547105746599

          :  Hamiltonian                  GFN2-xTB          :
         :: gradient norm              0.000025894090 Eh/a0 ::
         :: HOMO-LUMO gap              2.403483081575 eV    ::
         :: SCC energy               -71.287285571568 Eh    ::
         :: -> dispersion             -0.050085924003 Eh    ::
         :: repulsion energy           1.086040029417 Eh    ::

    * Orbital Energies and Occupations

         #    Occupation            Energy/Eh            Energy/eV
      -------------------------------------------------------------
         1        2.0000           -0.7503934             -20.4192
       ...           ...                  ...                  ...
        51        2.0000           -0.4600519             -12.5186
        52        2.0000           -0.4509482             -12.2709
        53        2.0000           -0.4457858             -12.1304
        54        2.0000           -0.4451347             -12.1127
        55        2.0000           -0.4381174             -11.9218
        56        2.0000           -0.4317319             -11.7480
        57        2.0000           -0.4233541             -11.5201
        58        2.0000           -0.4202746             -11.4363
        59        2.0000           -0.4099617             -11.1556
        60        2.0000           -0.4030452             -10.9674
        61        2.0000           -0.3953979             -10.7593
        62        2.0000           -0.3787552             -10.3065
        63        2.0000           -0.3622170              -9.8564 (HOMO)
        64                         -0.2738908              -7.4529 (LUMO)
        65                         -0.2698747              -7.3437
        66                         -0.2451018              -6.6696
        67                         -0.2397577              -6.5241
        68                         -0.2287666              -6.2251
        69                         -0.2169715              -5.9041
        70                         -0.2047591              -5.5718
        71                         -0.1774971              -4.8299
        72                         -0.1116482              -3.0381
        73                         -0.0961999              -2.6177
        74                         -0.0829320              -2.2567
       ...                                ...                  ...
       118                          0.7056644              19.2021
      -------------------------------------------------------------
                  HL-Gap            0.0883263 Eh            2.4035 eV

     #   Z          covCN         q      C6AA      α(0)
     1   6 C        3.756    -0.125    22.954     6.831
     2   6 C        2.847     0.153    24.681     8.142
     3   6 C        2.908    -0.088    30.210     9.013
     4   6 C        2.966     0.109    25.584     8.297
     5   7 N        1.850    -0.270    27.864     7.823
     6   6 C        2.894     0.156    24.631     8.137
     7   7 N        2.756    -0.056    22.330     7.018
     8   6 C        2.933     0.039    27.131     8.542
     9   6 C        2.922    -0.048    29.198     8.861
    10   6 C        2.919    -0.037    28.926     8.820
    11   6 C        2.920    -0.034    28.846     8.808
    12   6 C        2.918    -0.053    29.325     8.880
    13   6 C        2.897     0.130    25.149     8.222
    14   8 O        1.708    -0.250    18.137     5.750
    15   6 C        2.898     0.127    25.221     8.234
    16   6 C        2.919    -0.054    29.330     8.881
    17   6 C        2.919    -0.035    28.864     8.810
    18   6 C        2.920    -0.037    28.908     8.817
    19   6 C        2.921    -0.052    29.290     8.875
    20   6 C        2.927     0.044    27.022     8.525
    21   6 C        2.916    -0.062    29.542     8.913
    22   6 C        2.923    -0.008    28.211     8.710
    23   6 C        2.976    -0.058    29.439     8.900
    24   6 C        2.715     0.337    21.265     7.549
    25   8 O        0.857    -0.400    21.676     6.242
    26   8 O        1.709    -0.225    17.734     5.686
    27   1 H        0.925     0.078     1.999     2.211
    28   1 H        0.925     0.078     1.998     2.211
    29   1 H        0.925     0.064     2.158     2.297
    30   1 H        0.926     0.064     2.152     2.294
    31   1 H        0.926     0.044     2.394     2.420
    32   1 H        0.926     0.045     2.389     2.417
    33   1 H        0.926     0.046     2.370     2.407
    34   1 H        0.926     0.057     2.238     2.340
    35   1 H        0.926     0.054     2.268     2.355
    36   1 H        0.926     0.043     2.405     2.425
    37   1 H        0.926     0.043     2.414     2.429
    38   1 H        0.926     0.078     1.997     2.210
    39   1 H        0.926     0.043     2.413     2.429
    40   1 H        0.926     0.061     2.190     2.314

molecular dipole:
                 x           y           z       tot (Debye)
 q only:       -1.133      -1.367       0.825
   full:       -1.072      -1.116       0.708       4.325

 projected vibrational frequencies (cm⁻¹)
eigval :       -0.00    -0.00    -0.00    -0.00     0.00     0.00
eigval :       14.24    36.04    62.17    62.97    70.11    92.45
eigval :      103.83   139.91   154.82   165.26   202.55   207.13
eigval :      249.42   261.21   279.03   289.48   302.50   325.63
eigval :      390.28   395.79   411.02   414.54   438.52   444.36
eigval :      456.12   497.83   506.90   521.27   535.33   542.26
eigval :      551.62   571.36   587.59   619.31   621.54   654.94
eigval :      665.59   673.55   680.03   692.35   739.85   765.20
eigval :      782.17   786.43   807.07   826.42   841.26   856.09
eigval :      864.45   868.56   879.35   902.37   909.73   915.17
eigval :      919.59   921.18   934.02   979.58   984.71  1012.87
eigval :     1021.93  1042.01  1083.51  1085.24  1104.24  1118.59
eigval :     1133.52  1152.33  1170.23  1174.58  1182.86  1198.23
eigval :     1215.51  1233.27  1239.26  1243.75  1250.64  1292.62
eigval :     1305.64  1314.21  1326.13  1333.43  1374.20  1390.71
eigval :     1423.48  1424.31  1438.73  1445.48  1446.90  1460.97
eigval :     1468.01  1493.04  1519.15  1567.35  1574.63  1576.84
eigval :     1590.62  1596.31  1634.04  1738.51  3016.87  3031.53
eigval :     3071.19  3089.99  3090.41  3093.28  3096.73  3099.78
eigval :     3105.60  3107.36  3111.65  3114.69  3138.39  3146.87

   temp. (K)  partition function   enthalpy   heat capacity  entropy
                                   cal/mol     cal/K/mol   cal/K/mol   J/K/mol
 298.15  VIB  0.365E+08            11032.365     73.332     66.956
         ROT  0.123E+08              888.752      2.981     35.420
         INT  0.448E+15            11921.117     76.313    102.376
         TR   0.613E+28             1481.254      4.968     43.367
         TOT                       13402.3708    81.2811   145.7426   609.7871

       T/K    H(0)-H(T)+PV         H(T)/Eh          T*S/Eh         G(T)/Eh
   ------------------------------------------------------------------------
    298.15    0.213580E-01    0.315438E+00    0.692470E-01    0.246191E+00
   ------------------------------------------------------------------------

         :::::::::::::::::::::::::::::::::::::::::::::::::::::
         ::                  THERMODYNAMIC                  ::
         :::::::::::::::::::::::::::::::::::::::::::::::::::::
         :: total free energy         -69.955054412014 Eh   ::
         ::.................................................::
         :: total energy              -70.201245542153 Eh   ::
         :: zero point energy           0.294080106981 Eh   ::
         :: G(RRHO) w/o ZPVE           -0.047888976841 Eh   ::
         :: G(RRHO) contrib.            0.246191130140 Eh   ::
         :::::::::::::::::::::::::::::::::::::::::::::::::::::

           -------------------------------------------------
          | TOTAL ENERGY              -70.201245542153 Eh   |
          | TOTAL ENTHALPY            -69.885807397779 Eh   |
          | TOTAL FREE ENERGY         -69.955054412014 Eh   |
          | GRADIENT NORM               0.000025867680 Eh/α |
          | HOMO-LUMO GAP               2.403479966120 eV   |
           -------------------------------------------------

 * finished run on 2025/09/04 at 09:07:57.968
