   * xtb version 6.7.1 (edcfbbe) compiled by 'albert@albert-system' on 2024-07-22

   ID    Z sym.   atoms
    1    6 C      1-4, 6, 8-13, 15-24
    2    7 N      5, 7
    3    8 O      14, 25, 26
    4    1 H      27-40

          program call               : xtb data2507/gas/PXZ-PPO/PXZ-PPO.xyz --gfn 2 --ohess vtight --parallel 40 --molden --ceasefiles --namespace data2507/gas/PXZ-PPO/PXZ-PPO_gas_S0_preOpt
          :  Hamiltonian                  GFN2-xTB          :
 * total energy  :   -70.1816456 Eh     change       -0.1360490E-08 Eh
 * total energy  :   -70.1922649 Eh     change       -0.1061937E-01 Eh
 * total energy  :   -70.1960749 Eh     change       -0.3809968E-02 Eh
 * total energy  :   -70.1968385 Eh     change       -0.7635738E-03 Eh
 * total energy  :   -70.1972298 Eh     change       -0.3913297E-03 Eh
 * total energy  :   -70.1973773 Eh     change       -0.1474827E-03 Eh
 * total energy  :   -70.1975306 Eh     change       -0.1533207E-03 Eh
 * total energy  :   -70.1976936 Eh     change       -0.1629523E-03 Eh
 * total energy  :   -70.1978773 Eh     change       -0.1837092E-03 Eh
 * total energy  :   -70.1980758 Eh     change       -0.1985673E-03 Eh
 * total energy  :   -70.2012091 Eh     change       -0.9634409E-06 Eh
 * total energy  :   -70.2012100 Eh     change       -0.8385618E-06 Eh
 * total energy  :   -70.2012107 Eh     change       -0.7442356E-06 Eh
 * total energy  :   -70.2012114 Eh     change       -0.6704996E-06 Eh
 * total energy  :   -70.2012120 Eh     change       -0.5912050E-06 Eh
 * total energy  :   -70.2012125 Eh     change       -0.5677132E-06 Eh
 * total energy  :   -70.2012130 Eh     change       -0.5059981E-06 Eh
 * total energy  :   -70.2012135 Eh     change       -0.4935383E-06 Eh
 * total energy  :   -70.2012135 Eh     change       -0.4601688E-08 Eh
   *** GEOMETRY OPTIMIZATION CONVERGED AFTER 94 ITERATIONS ***

 final structure:
================
40
 xtb: 6.7.1 (edcfbbe)
C            5.90033884704094       -1.19988614082367        0.65307818562467
C            4.70125218572754       -0.42621583991730        0.21519682441181
C            3.42483438739995       -0.78633601010220        0.45271381566724
C            2.36194734511224        0.05139180657167       -0.01708973739840
N            1.10099032583613       -0.29485032582790        0.23394616273660
C            0.11607930727888        0.48419851575522       -0.18922749209933
N           -1.17775519264930        0.09612787695548        0.07616689983262
C           -2.21654337973989        1.04604261765551        0.13752898270292
C           -2.02657333076330        2.31172663178094        0.67954158864288
C           -3.06377793540172        3.22752682930646        0.70118612882215
C           -4.30779143738089        2.88355048237949        0.20167923386176
C           -4.52897708973182        1.60587622210803       -0.28178306483043
C           -3.49258248918603        0.68542186671862       -0.30270113511294
O           -3.75704363502820       -0.58132782018074       -0.74556209243850
C           -2.88747027933840       -1.55312189859667       -0.31065125090447
C           -3.34077511481136       -2.86155458366623       -0.33230049899120
C           -2.51873929659543       -3.88688342039053        0.10209750339669
C           -1.25599847216526       -3.59404680010028        0.58142392675615
C           -0.79924989268470       -2.28619828421328        0.61238202709318
C           -1.59753318839654       -1.25222601341534        0.14424884124066
C            0.36118859172772        1.66418160638388       -0.93479253636315
C            1.65483180828156        2.02511019308077       -1.19570244566679
C            2.70094180803751        1.22142225152986       -0.71772952050206
C            4.09028248923328        1.57019943960000       -0.95440221789795
O            4.48286224420465        2.54823273836443       -1.54072261210209
O            5.02926621342410        0.69718391072014       -0.45663292014118
H            6.49760726173399       -1.47473009209531       -0.21466717986411
H            6.52317642199380       -0.57937249088840        1.29529209418752
H            5.60314873210685       -2.09504064727472        1.18905447988085
H            3.18523925465652       -1.68613784676845        0.99071151754535
H           -1.05808222175242        2.57691949372794        1.07561280755796
H           -2.89468181465752        4.21119178863613        1.11063550354644
H           -5.11312624428393        3.60109386887830        0.20494124035240
H           -5.49534973462854        1.30150066040726       -0.65036037835447
H           -4.33573835618760       -3.05260879267859       -0.70157137235952
H           -2.87265034863887       -4.90562335232710        0.07225266205763
H           -0.61368608174051       -4.38534991049457        0.93604952986253
H            0.18773662787992       -2.05571457205822        0.97218216168101
H           -0.46291755401814        2.24321174765366       -1.31932392387345
H            1.89531923810512        2.90511529359538       -1.77270173856276

          :  Hamiltonian                  GFN2-xTB          :
         :: gradient norm              0.000055386306 Eh/a0 ::
         :: HOMO-LUMO gap              2.355393911037 eV    ::
         :: SCC energy               -71.287143518643 Eh    ::
         :: -> dispersion             -0.050082670458 Eh    ::
         :: repulsion energy           1.085929987624 Eh    ::

    * Orbital Energies and Occupations

         #    Occupation            Energy/Eh            Energy/eV
      -------------------------------------------------------------
         1        2.0000           -0.7511016             -20.4385
       ...           ...                  ...                  ...
        51        2.0000           -0.4599789             -12.5167
        52        2.0000           -0.4514759             -12.2853
        53        2.0000           -0.4454149             -12.1204
        54        2.0000           -0.4450330             -12.1100
        55        2.0000           -0.4380651             -11.9204
        56        2.0000           -0.4320417             -11.7565
        57        2.0000           -0.4230866             -11.5128
        58        2.0000           -0.4201688             -11.4334
        59        2.0000           -0.4106818             -11.1752
        60        2.0000           -0.4029455             -10.9647
        61        2.0000           -0.3956843             -10.7671
        62        2.0000           -0.3795166             -10.3272
        63        2.0000           -0.3614306              -9.8350 (HOMO)
        64                         -0.2748714              -7.4796 (LUMO)
        65                         -0.2706676              -7.3652
        66                         -0.2449793              -6.6662
        67                         -0.2393697              -6.5136
        68                         -0.2280864              -6.2065
        69                         -0.2161030              -5.8805
        70                         -0.2053690              -5.5884
        71                         -0.1785613              -4.8589
        72                         -0.1112949              -3.0285
        73                         -0.0950937              -2.5876
        74                         -0.0835624              -2.2738
       ...                                ...                  ...
       118                          0.7047911              19.1783
      -------------------------------------------------------------
                  HL-Gap            0.0865591 Eh            2.3554 eV

     #   Z          covCN         q      C6AA      α(0)
     1   6 C        3.756    -0.125    22.956     6.831
     2   6 C        2.847     0.153    24.679     8.142
     3   6 C        2.908    -0.088    30.208     9.012
     4   6 C        2.966     0.109    25.585     8.297
     5   7 N        1.849    -0.269    27.832     7.819
     6   6 C        2.895     0.156    24.630     8.137
     7   7 N        2.756    -0.057    22.337     7.019
     8   6 C        2.932     0.039    27.127     8.542
     9   6 C        2.922    -0.049    29.208     8.863
    10   6 C        2.919    -0.037    28.925     8.820
    11   6 C        2.920    -0.034    28.852     8.808
    12   6 C        2.918    -0.054    29.329     8.881
    13   6 C        2.896     0.130    25.152     8.223
    14   8 O        1.708    -0.250    18.136     5.750
    15   6 C        2.897     0.127    25.225     8.235
    16   6 C        2.919    -0.054    29.333     8.881
    17   6 C        2.919    -0.035    28.871     8.811
    18   6 C        2.920    -0.037    28.909     8.817
    19   6 C        2.921    -0.054    29.331     8.881
    20   6 C        2.926     0.044    27.024     8.525
    21   6 C        2.916    -0.061    29.517     8.909
    22   6 C        2.923    -0.008    28.212     8.710
    23   6 C        2.976    -0.058    29.426     8.898
    24   6 C        2.715     0.338    21.264     7.548
    25   8 O        0.857    -0.399    21.665     6.241
    26   8 O        1.709    -0.225    17.729     5.685
    27   1 H        0.925     0.078     1.997     2.210
    28   1 H        0.925     0.078     1.997     2.210
    29   1 H        0.925     0.064     2.156     2.296
    30   1 H        0.926     0.064     2.150     2.293
    31   1 H        0.926     0.043     2.405     2.425
    32   1 H        0.926     0.044     2.392     2.418
    33   1 H        0.926     0.046     2.373     2.409
    34   1 H        0.926     0.056     2.240     2.341
    35   1 H        0.926     0.054     2.270     2.356
    36   1 H        0.926     0.043     2.409     2.427
    37   1 H        0.926     0.042     2.418     2.432
    38   1 H        0.926     0.079     1.993     2.208
    39   1 H        0.926     0.043     2.410     2.427
    40   1 H        0.926     0.061     2.186     2.312

molecular dipole:
                 x           y           z       tot (Debye)
 q only:       -0.933      -1.299       1.045
   full:       -0.896      -1.064       0.893       4.202

 projected vibrational frequencies (cm⁻¹)
eigval :       -0.00    -0.00    -0.00    -0.00     0.00     0.00
eigval :       14.90    36.11    60.00    63.03    70.58    93.89
eigval :      104.03   139.64   154.71   163.74   202.45   209.08
eigval :      248.98   262.48   279.71   289.09   301.63   322.99
eigval :      390.49   396.13   411.98   414.16   438.35   443.22
eigval :      455.78   497.84   506.82   520.88   534.76   542.27
eigval :      551.20   571.18   586.91   619.65   622.30   655.13
eigval :      665.80   673.32   679.43   691.23   740.25   765.10
eigval :      782.82   786.22   806.76   826.64   841.86   856.37
eigval :      864.64   869.79   878.66   903.12   909.31   915.16
eigval :      919.61   921.09   933.13   979.71   984.82  1013.04
eigval :     1021.91  1042.21  1084.10  1085.73  1103.97  1118.92
eigval :     1132.91  1152.42  1170.10  1174.62  1182.85  1198.61
eigval :     1215.04  1232.59  1239.16  1243.52  1250.87  1292.63
eigval :     1305.90  1313.17  1326.01  1333.68  1373.49  1390.67
eigval :     1422.57  1423.92  1438.24  1445.27  1446.63  1460.80
eigval :     1468.97  1493.32  1518.89  1566.62  1574.27  1576.99
eigval :     1590.74  1596.56  1633.68  1738.68  3016.88  3031.46
eigval :     3071.22  3090.00  3090.30  3093.09  3096.76  3099.81
eigval :     3105.52  3106.35  3111.72  3114.77  3138.32  3144.32

   temp. (K)  partition function   enthalpy   heat capacity  entropy
                                   cal/mol     cal/K/mol   cal/K/mol   J/K/mol
 298.15  VIB  0.354E+08            11034.280     73.323     66.923
         ROT  0.123E+08              888.752      2.981     35.424
         INT  0.436E+15            11923.032     76.303    102.347
         TR   0.613E+28             1481.254      4.968     43.367
         TOT                       13404.2859    81.2716   145.7132   609.6640

       T/K    H(0)-H(T)+PV         H(T)/Eh          T*S/Eh         G(T)/Eh
   ------------------------------------------------------------------------
    298.15    0.213611E-01    0.315417E+00    0.692330E-01    0.246184E+00
   ------------------------------------------------------------------------

         :::::::::::::::::::::::::::::::::::::::::::::::::::::
         ::                  THERMODYNAMIC                  ::
         :::::::::::::::::::::::::::::::::::::::::::::::::::::
         :: total free energy         -69.955029280228 Eh   ::
         ::.................................................::
         :: total energy              -70.201213531018 Eh   ::
         :: zero point energy           0.294056198739 Eh   ::
         :: G(RRHO) w/o ZPVE           -0.047871947949 Eh   ::
         :: G(RRHO) contrib.            0.246184250790 Eh   ::
         :::::::::::::::::::::::::::::::::::::::::::::::::::::

           -------------------------------------------------
          | TOTAL ENERGY              -70.201213531018 Eh   |
          | TOTAL ENTHALPY            -69.885796242959 Eh   |
          | TOTAL FREE ENERGY         -69.955029280228 Eh   |
          | GRADIENT NORM               0.000055386238 Eh/α |
          | HOMO-LUMO GAP               2.355394054176 eV   |
           -------------------------------------------------

 * finished run on 2025/09/04 at 09:06:44.921
