   * xtb version 6.7.1 (edcfbbe) compiled by 'albert@albert-system' on 2024-07-22

   ID    Z sym.   atoms
    1    6 C      1-9, 11-23, 25-28, 30, 31, 33, 34, 36-42
    2    7 N      10, 24, 29, 32, 35
    3    1 H      43-65

          program call               : xtb data2507/toluene/3-AcBPdCN/3-AcBPdCN_toluene_S0_crest.xyz --gfn 2 --gbsa toluene --ohess vtight --parallel 40 --molden --ceasefiles --namespace data2507/toluene/3-AcBPdCN/3-AcBPdCN_toluene_S0_finalOpt
      * Solvation model:               GBSA
        Solvent                        toluene
        Solvent mass                       9.2140E+01 g/mol
          :  Hamiltonian                  GFN2-xTB          :
 * total energy  :  -105.6125632 Eh     change       -0.3358267E-08 Eh
 * total energy  :  -105.6126185 Eh     change       -0.5532956E-04 Eh
 * total energy  :  -105.6125987 Eh     change        0.1980166E-04 Eh
 * total energy  :  -105.6126413 Eh     change       -0.4262647E-04 Eh
 * total energy  :  -105.6125413 Eh     change        0.9999347E-04 Eh
 * total energy  :  -105.6126386 Eh     change       -0.9727031E-04 Eh
 * total energy  :  -105.6126526 Eh     change       -0.1396870E-04 Eh
 * total energy  :  -105.6126540 Eh     change       -0.1413764E-05 Eh
 * total energy  :  -105.6126573 Eh     change       -0.3301921E-05 Eh
 * total energy  :  -105.6126587 Eh     change       -0.1390608E-05 Eh
 * total energy  :  -105.6126639 Eh     change       -0.5173988E-06 Eh
 * total energy  :  -105.6126646 Eh     change       -0.7609747E-06 Eh
 * total energy  :  -105.6126657 Eh     change       -0.1024860E-05 Eh
 * total energy  :  -105.6126665 Eh     change       -0.8373785E-06 Eh
 * total energy  :  -105.6126670 Eh     change       -0.5105598E-06 Eh
 * total energy  :  -105.6126673 Eh     change       -0.2827274E-06 Eh
 * total energy  :  -105.6126675 Eh     change       -0.2388276E-06 Eh
 * total energy  :  -105.6126675 Eh     change        0.4469953E-08 Eh
 * total energy  :  -105.6126676 Eh     change       -0.3375609E-07 Eh
   *** GEOMETRY OPTIMIZATION CONVERGED AFTER 23 ITERATIONS ***

 final structure:
================
65
 xtb: 6.7.1 (edcfbbe)
C           -6.77457596699922        0.91073667589312        2.04540457927125
C           -5.42392149877497        0.75360425129003        1.34644355120075
C           -4.33321676499663        0.65440490347324        2.43310570461797
C           -5.10685404065887        1.92166925493218        0.42707555156736
C           -5.79324703639697        3.12651772602313        0.42275727827675
C           -5.45418170941308        4.13544870185058       -0.46386234540445
C           -4.43907780111906        3.94351550645336       -1.38443850729775
C           -3.74677010773936        2.74663463449813       -1.40314990934218
C           -4.05696832820312        1.75447269468473       -0.48157013604264
N           -3.39787373389427        0.50429265375210       -0.50392707568419
C           -2.03934684601177        0.36053831809637       -0.39491325279523
C           -1.19134522283491        1.48388201129695       -0.31453997978658
C            0.16218107458812        1.32015806034275       -0.21557156847099
C            0.74989045771803        0.04673224404555       -0.17498769755013
C           -0.08421265863976       -1.09446215485054       -0.18129182445860
C           -1.45688897752384       -0.90725038386060       -0.27818566350877
C            0.51029538505474       -2.42384497669972       -0.08603669074550
C           -0.25477705176966       -3.59530876817627       -0.07498216037691
C            0.33347866500867       -4.83980891334733        0.01086759192350
C            1.71591925008084       -4.96371054829824        0.08836764592160
C            2.49516065529223       -3.82990380239148        0.07912453378530
C            1.91139404926276       -2.56136473397390       -0.00636390822128
C            2.76208445106543       -1.39283818567606       -0.01176841529914
N            4.06665167929420       -1.55234202451346        0.06205314903439
C            4.84056395102303       -0.45165915118013        0.06152806518780
C            6.23740122323711       -0.58714063846714        0.14127766384123
C            7.03853477520444        0.53350700289289        0.14444693124809
C            8.44250782240850        0.40636500156195        0.22599675202011
N            9.58218641139501        0.29177351328426        0.29260368360787
C            6.45626958350989        1.83427708897814        0.06702088635537
C            7.29821835921291        2.96954929347503        0.07342061614094
N            7.97167848242742        3.89802934110401        0.07684624524078
C            5.09121081745947        1.98451240682661       -0.01209065700561
C            4.25616341894736        0.84877390164458       -0.01653751868812
N            2.92767857792417        1.00494122749584       -0.09434810393966
C            2.17166750265582       -0.08386451059758       -0.09376532004359
C           -4.30952367866192       -0.57405209844276       -0.44396627390313
C           -4.22310954437364       -1.63873571312330       -1.33273265712742
C           -5.15135938825573       -2.66208952612829       -1.27312532225024
C           -6.17768669976813       -2.60503066617020       -0.34663610703786
C           -6.29124842105954       -1.51745756986639        0.50377618734797
C           -5.36588964478018       -0.48516134580458        0.46810620087077
H           -6.95829704684683        0.06215282728322        2.69938484016971
H           -7.58356671757995        0.98464508540991        1.32206495578175
H           -6.77169140077370        1.80180565236436        2.66779854782134
H           -3.34125781187156        0.53904557336376        2.00503689474400
H           -4.33852073087183        1.55557972459713        3.04266250294046
H           -4.52997996144290       -0.20198546612840        3.07469814663564
H           -6.60386155557642        3.29394373183516        1.11268833674903
H           -5.99740218186429        5.06841883625846       -0.44461513713937
H           -4.19280553535633        4.71731500152568       -2.09603624532487
H           -2.97811078995131        2.57217953967308       -2.14116237671537
H           -1.60780508930964        2.47763422998966       -0.30548896596401
H            0.81551079220151        2.17668209768194       -0.15977773180717
H           -2.10901743516831       -1.76156787761644       -0.24111455999748
H           -1.32964269036055       -3.54299096308694       -0.13234018145676
H           -0.28723189237983       -5.72353686811459        0.01785391104685
H            2.17322494337132       -5.93916928563751        0.15502585876267
H            3.57083141517702       -3.88723891185692        0.13746663824262
H            6.66486558343309       -1.57668067662327        0.20012263061715
H            4.64063763355849        2.96367517390979       -0.07114454659595
H           -3.44181033494571       -1.65253953375893       -2.07822932756129
H           -5.07904734394118       -3.49286570548751       -1.95896257923224
H           -6.90433642940409       -3.40199705323515       -0.29476314049516
H           -7.11489209639038       -1.48575604597398        1.19771666539765

          :  Hamiltonian                  GFN2-xTB          :
         :: gradient norm              0.000094440646 Eh/a0 ::
         :: HOMO-LUMO gap              1.113721672146 eV    ::
         :: SCC energy              -107.583510628033 Eh    ::
         :: -> dispersion             -0.094281805074 Eh    ::
         :: -> Gsolv                  -0.051163518931 Eh    ::
         :: repulsion energy           1.970843058417 Eh    ::

    * Orbital Energies and Occupations

         #    Occupation            Energy/Eh            Energy/eV
      -------------------------------------------------------------
         1        2.0000           -0.6953878             -18.9225
       ...           ...                  ...                  ...
        86        2.0000           -0.4331977             -11.7879
        87        2.0000           -0.4307076             -11.7201
        88        2.0000           -0.4252969             -11.5729
        89        2.0000           -0.4233735             -11.5206
        90        2.0000           -0.4215159             -11.4700
        91        2.0000           -0.4163627             -11.3298
        92        2.0000           -0.4093098             -11.1379
        93        2.0000           -0.4085823             -11.1181
        94        2.0000           -0.4053712             -11.0307
        95        2.0000           -0.4047219             -11.0130
        96        2.0000           -0.4004132             -10.8958
        97        2.0000           -0.3677665             -10.0074
        98        2.0000           -0.3655728              -9.9477 (HOMO)
        99                         -0.3246442              -8.8340 (LUMO)
       100                         -0.3029671              -8.2442
       101                         -0.2653174              -7.2197
       102                         -0.2636888              -7.1753
       103                         -0.2534119              -6.8957
       104                         -0.2350395              -6.3958
       105                         -0.2329357              -6.3385
       106                         -0.2302036              -6.2642
       107                         -0.2295351              -6.2460
       108                         -0.2265887              -6.1658
       109                         -0.2249821              -6.1221
       ...                                ...                  ...
       191                          1.1641389              31.6778
      -------------------------------------------------------------
                  HL-Gap            0.0409286 Eh            1.1137 eV

     #   Z          covCN         q      C6AA      α(0)
     1   6 C        3.759    -0.110    22.647     6.785
     2   6 C        3.910     0.023    20.125     6.376
     3   6 C        3.761    -0.100    22.456     6.755
     4   6 C        2.987    -0.004    28.118     8.698
     5   6 C        2.923    -0.037    28.923     8.819
     6   6 C        2.919    -0.035    28.871     8.811
     7   6 C        2.920    -0.033    28.814     8.803
     8   6 C        2.920    -0.045    29.117     8.849
     9   6 C        2.951     0.053    26.813     8.493
    10   7 N        2.754    -0.053    22.260     7.007
    11   6 C        2.909     0.075    26.319     8.412
    12   6 C        2.919    -0.055    29.358     8.885
    13   6 C        2.921    -0.026    28.646     8.777
    14   6 C        2.986    -0.021    28.528     8.761
    15   6 C        2.974     0.008    27.835     8.654
    16   6 C        2.927    -0.064    29.592     8.921
    17   6 C        2.976     0.009    27.823     8.652
    18   6 C        2.922    -0.032    28.803     8.801
    19   6 C        2.918    -0.022    28.566     8.764
    20   6 C        2.916    -0.026    28.656     8.778
    21   6 C        2.924    -0.025    28.633     8.775
    22   6 C        2.988    -0.006    28.168     8.706
    23   6 C        2.959     0.092    25.950     8.355
    24   7 N        1.848    -0.257    27.531     7.776
    25   6 C        2.964     0.082    26.160     8.389
    26   6 C        2.926    -0.031    28.767     8.796
    27   6 C        2.974     0.017    27.615     8.620
    28   6 C        1.911     0.119    28.164     8.571
    29   7 N        0.911    -0.250    26.501     7.445
    30   6 C        2.973     0.020    27.552     8.610
    31   6 C        1.912     0.120    28.145     8.568
    32   7 N        0.911    -0.247    26.422     7.434
    33   6 C        2.927    -0.032    28.800     8.801
    34   6 C        2.962     0.087    26.068     8.375
    35   7 N        1.848    -0.265    27.738     7.806
    36   6 C        2.958     0.090    26.000     8.363
    37   6 C        2.951     0.052    26.821     8.494
    38   6 C        2.920    -0.046    29.134     8.851
    39   6 C        2.919    -0.033    28.822     8.804
    40   6 C        2.919    -0.035    28.870     8.811
    41   6 C        2.923    -0.037    28.917     8.819
    42   6 C        2.987    -0.004    28.110     8.697
    43   1 H        0.925     0.046     2.369     2.407
    44   1 H        0.925     0.042     2.426     2.436
    45   1 H        0.925     0.046     2.373     2.409
    46   1 H        0.925     0.034     2.534     2.489
    47   1 H        0.925     0.043     2.411     2.428
    48   1 H        0.925     0.043     2.404     2.425
    49   1 H        0.926     0.049     2.337     2.390
    50   1 H        0.926     0.038     2.473     2.459
    51   1 H        0.926     0.038     2.473     2.459
    52   1 H        0.926     0.041     2.432     2.438
    53   1 H        0.926     0.049     2.335     2.390
    54   1 H        0.926     0.055     2.256     2.349
    55   1 H        0.926     0.053     2.288     2.366
    56   1 H        0.926     0.051     2.307     2.375
    57   1 H        0.926     0.050     2.324     2.384
    58   1 H        0.926     0.047     2.353     2.399
    59   1 H        0.926     0.057     2.239     2.340
    60   1 H        0.926     0.066     2.135     2.285
    61   1 H        0.926     0.066     2.133     2.284
    62   1 H        0.926     0.042     2.427     2.436
    63   1 H        0.926     0.039     2.462     2.454
    64   1 H        0.926     0.039     2.466     2.456
    65   1 H        0.926     0.049     2.335     2.390

molecular dipole:
                 x           y           z       tot (Debye)
 q only:       -6.347      -1.516       0.128
   full:       -6.777      -1.753       0.059      17.793

 projected vibrational frequencies (cm⁻¹)
eigval :       -0.00    -0.00    -0.00    -0.00     0.00     0.00
eigval :       15.33    23.00    29.83    38.84    44.18    63.05
eigval :       69.91    78.42    87.95    97.62   103.74   111.72
eigval :      129.96   135.03   142.13   151.99   169.59   178.27
eigval :      185.87   189.05   217.64   225.53   236.26   276.10
eigval :      284.69   290.84   304.55   309.58   321.98   330.62
eigval :      346.03   351.67   361.93   373.83   380.93   394.92
eigval :      400.64   404.73   410.59   422.62   431.51   436.84
eigval :      451.89   457.27   459.72   476.86   498.83   502.36
eigval :      510.06   535.81   541.95   553.97   562.37   567.53
eigval :      575.20   588.13   589.37   593.85   605.48   615.13
eigval :      645.97   647.36   668.70   672.85   683.19   693.60
eigval :      701.91   710.86   726.17   729.70   739.71   748.60
eigval :      765.69   779.09   779.76   784.06   794.38   809.76
eigval :      822.37   845.49   851.86   867.21   867.90   876.34
eigval :      889.11   895.00   908.00   916.97   920.46   922.67
eigval :      924.96   925.89   928.80   938.98   941.71   946.65
eigval :      966.51   979.56  1009.77  1040.50  1060.90  1072.66
eigval :     1080.44  1094.24  1099.17  1107.05  1120.64  1136.20
eigval :     1140.60  1152.18  1161.06  1173.15  1175.67  1179.29
eigval :     1181.17  1187.98  1190.30  1193.35  1228.30  1230.17
eigval :     1241.84  1255.79  1265.74  1270.16  1272.60  1278.44
eigval :     1281.92  1290.02  1293.17  1315.84  1324.14  1325.40
eigval :     1338.36  1348.47  1358.37  1379.90  1398.40  1406.30
eigval :     1415.29  1421.39  1424.23  1432.76  1436.50  1439.42
eigval :     1445.85  1451.74  1466.15  1471.24  1475.73  1489.32
eigval :     1489.88  1491.43  1503.80  1512.72  1520.19  1528.96
eigval :     1558.17  1568.50  1574.08  1577.20  1582.92  1586.97
eigval :     1591.39  1597.73  2361.02  2365.44  3027.16  3029.49
eigval :     3033.05  3034.13  3048.02  3052.68  3078.51  3078.87
eigval :     3081.04  3084.01  3085.36  3090.56  3094.13  3094.71
eigval :     3097.90  3098.13  3104.16  3107.75  3110.40  3115.24
eigval :     3116.45  3117.42  3140.72

   temp. (K)  partition function   enthalpy   heat capacity  entropy
                                   cal/mol     cal/K/mol   cal/K/mol   J/K/mol
 298.15  VIB  0.162E+14            19046.812    123.603    115.601
         ROT  0.591E+08              888.752      2.981     38.542
         INT  0.957E+21            19935.564    126.584    154.142
         TR   0.121E+29             1481.254      4.968     44.711
         TOT                       21416.8180   131.5525   198.8536   832.0036

       T/K    H(0)-H(T)+PV         H(T)/Eh          T*S/Eh         G(T)/Eh
   ------------------------------------------------------------------------
    298.15    0.341299E-01    0.521254E+00    0.944818E-01    0.426772E+00
   ------------------------------------------------------------------------

         :::::::::::::::::::::::::::::::::::::::::::::::::::::
         ::                  THERMODYNAMIC                  ::
         :::::::::::::::::::::::::::::::::::::::::::::::::::::
         :: total free energy        -105.185895557837 Eh   ::
         ::.................................................::
         :: total energy             -105.612667563216 Eh   ::
         :: zero point energy           0.487123912790 Eh   ::
         :: G(RRHO) w/o ZPVE           -0.060351907412 Eh   ::
         :: G(RRHO) contrib.            0.426772005379 Eh   ::
         :::::::::::::::::::::::::::::::::::::::::::::::::::::

           -------------------------------------------------
          | TOTAL ENERGY             -105.612667563216 Eh   |
          | TOTAL ENTHALPY           -105.091413778440 Eh   |
          | TOTAL FREE ENERGY        -105.185895557837 Eh   |
          | GRADIENT NORM               0.000094425954 Eh/α |
          | HOMO-LUMO GAP               1.113723833779 eV   |
           -------------------------------------------------

 * finished run on 2025/07/19 at 23:54:06.980
