   * xtb version 6.7.1 (edcfbbe) compiled by 'albert@albert-system' on 2024-07-22

   ID    Z sym.   atoms
    1    6 C      1-9, 11-23, 25-28, 30, 31, 33, 34, 36-42
    2    7 N      10, 24, 29, 32, 35
    3    1 H      43-65

          program call               : xtb data2507/toluene/3-AcBPdCN/3-AcBPdCN_toluene_S0_finalOpt.xtbopt.xyz --gfn 2 --uhf 2 --gbsa toluene --ohess vtight --parallel 40 --molden --ceasefiles --namespace data2507/toluene/3-AcBPdCN/3-AcBPdCN_toluene_T1_preOpt
      * Solvation model:               GBSA
        Solvent                        toluene
        Solvent mass                       9.2140E+01 g/mol
          :  Hamiltonian                  GFN2-xTB          :
 * total energy  :  -105.5645368 Eh     change       -0.1066567E-08 Eh
 * total energy  :  -105.5669821 Eh     change       -0.2445310E-02 Eh
 * total energy  :  -105.5677818 Eh     change       -0.7996882E-03 Eh
 * total energy  :  -105.5673984 Eh     change        0.3833650E-03 Eh
 * total energy  :  -105.5679241 Eh     change       -0.5256871E-03 Eh
 * total energy  :  -105.5679338 Eh     change       -0.9691017E-05 Eh
 * total energy  :  -105.5679397 Eh     change       -0.5917628E-05 Eh
 * total energy  :  -105.5679491 Eh     change       -0.9393643E-05 Eh
 * total energy  :  -105.5679520 Eh     change       -0.2888701E-05 Eh
 * total energy  :  -105.5679577 Eh     change       -0.5643395E-05 Eh
 * total energy  :  -105.5679735 Eh     change        0.4659875E-06 Eh
 * total energy  :  -105.5679758 Eh     change       -0.2332127E-05 Eh
 * total energy  :  -105.5679762 Eh     change       -0.4142397E-06 Eh
 * total energy  :  -105.5679764 Eh     change       -0.1767796E-06 Eh
 * total energy  :  -105.5679764 Eh     change        0.3865608E-08 Eh
 * total energy  :  -105.5679763 Eh     change        0.4457230E-07 Eh
 * total energy  :  -105.5679762 Eh     change        0.1408868E-06 Eh
 * total energy  :  -105.5679765 Eh     change       -0.3387666E-06 Eh
 * total energy  :  -105.5679766 Eh     change       -0.6871502E-07 Eh
   *** GEOMETRY OPTIMIZATION CONVERGED AFTER 39 ITERATIONS ***

 final structure:
================
65
 xtb: 6.7.1 (edcfbbe)
C           -6.82543853882208        0.93783930384414        2.01537836189343
C           -5.46193934845400        0.76599036346544        1.34500678286698
C           -4.39402582804136        0.66286557900263        2.45441897850121
C           -5.11612185622636        1.92670772368430        0.42849070392974
C           -5.78214352118515        3.14221332359934        0.41409134222202
C           -5.41327588718625        4.14625833197705       -0.46686929987997
C           -4.38493391284551        3.93987560337826       -1.37048477267651
C           -3.70731767595356        2.73531747852524       -1.37582706492879
C           -4.04872447286250        1.74552752809968       -0.45986463123027
N           -3.40622141403136        0.49182792132210       -0.46698536851613
C           -2.04098996289809        0.33547414525415       -0.37286219937458
C           -1.18893378268703        1.46004853376692       -0.28720097759863
C            0.16263107966105        1.29441864309740       -0.19604685683146
C            0.74807153582676        0.01542947788412       -0.16496283939534
C           -0.08917402163967       -1.12583391546679       -0.17615537851618
C           -1.46766959483762       -0.93140985906044       -0.26471350015491
C            0.50673471931835       -2.44332173698625       -0.09609422984797
C           -0.24730977855809       -3.62563960903599       -0.09374239398966
C            0.35244107718496       -4.86143171526420       -0.02143766304273
C            1.74101553193575       -4.96964549136623        0.05122108311473
C            2.50968751088505       -3.83402032694435        0.04944022172769
C            1.91436854818060       -2.56324963605972       -0.02343874622310
C            2.75139609149196       -1.40401550517787       -0.02144744305639
N            4.07595793332359       -1.51587522217317        0.04685715860233
C            4.86828521795485       -0.45303999261976        0.05135129184283
C            6.25899512048904       -0.56462307050457        0.12541314109914
C            7.06534417271186        0.57001400127507        0.12928520280403
C            8.46479761972438        0.44036503253325        0.20392947795045
N            9.60620864532496        0.32177173481710        0.26547018979955
C            6.48318235912445        1.85428502713847        0.05909846148014
C            7.30618455188489        2.99560673763550        0.06389186759337
N            7.96760135079613        3.93565711955350        0.06676309210736
C            5.09907362456607        1.99017650795520       -0.01452646013304
C            4.26958158806641        0.86648733336388       -0.01904814698556
N            2.94851757330987        0.96655982360926       -0.08118569126423
C            2.16483722537638       -0.11049351166358       -0.08827262263191
C           -4.32184528820061       -0.57819008502104       -0.41769929825936
C           -4.22599755129906       -1.65108467577208       -1.29820150411076
C           -5.16023742043561       -2.66848398187631       -1.24679268430398
C           -6.19969687817445       -2.60200163144984       -0.33477289703546
C           -6.32231319590951       -1.50785918287768        0.50650743701800
C           -5.39576189097801       -0.47720704887513        0.47533003943406
H           -7.02980204140676        0.09386661674886        2.66884758533262
H           -7.61846671363119        1.01589071137992        1.27517819941547
H           -6.82719748804055        1.83099924814010        2.63444533437817
H           -3.39475186012634        0.53610705355482        2.04684860410239
H           -4.40378495873410        1.56700561737690        3.05917515903775
H           -4.61174673768385       -0.18819123124955        3.09596267298723
H           -6.60096474041349        3.32163994097346        1.09084193342139
H           -5.94425705363796        5.08612015879434       -0.45792758325352
H           -4.11763426625540        4.70872775243185       -2.07943774054398
H           -2.93241640999003        2.54786372320251       -2.10383476197501
H           -1.60221175679595        2.45467653335052       -0.26260285572961
H            0.81849719364258        2.14909312762174       -0.13370168072519
H           -2.11686963376282       -1.78766550638845       -0.22524531849968
H           -1.32291903153601       -3.58153368672896       -0.14737427185162
H           -0.25561296946640       -5.75376256924944       -0.02049781915462
H            2.20747611974691       -5.94171281043501        0.10791571926168
H            3.58661106493246       -3.88370103144999        0.10397832387406
H            6.70159598469464       -1.54719866255802        0.17887327170139
H            4.65107512517883        2.97021989382099       -0.06948964056758
H           -3.43839187024101       -1.66980014680373       -2.03647798369207
H           -5.08287583985434       -3.50226573601411       -1.92800547628524
H           -6.93018684633087       -3.39550093189247       -0.28893466083093
H           -7.15515203430105       -1.46877572284170        1.18869020579709

          :  Hamiltonian                  GFN2-xTB          :
         :: gradient norm              0.000073651139 Eh/a0 ::
         :: HOMO-LUMO gap              0.710781275781 eV    ::
         :: SCC energy              -107.540070765947 Eh    ::
         :: -> dispersion             -0.094034127546 Eh    ::
         :: -> Gsolv                  -0.056328619498 Eh    ::
         :: repulsion energy           1.972094153645 Eh    ::

    * Orbital Energies and Occupations

         #    Occupation            Energy/Eh            Energy/eV
      -------------------------------------------------------------
         1        2.0000           -0.6923494             -18.8398
       ...           ...                  ...                  ...
        87        2.0000           -0.4312582             -11.7351
        88        2.0000           -0.4284573             -11.6589
        89        2.0000           -0.4264134             -11.6033
        90        2.0000           -0.4243685             -11.5477
        91        2.0000           -0.4151913             -11.2979
        92        2.0000           -0.4138642             -11.2618
        93        2.0000           -0.4111034             -11.1867
        94        2.0000           -0.4106308             -11.1738
        95        2.0000           -0.4061849             -11.0529
        96        2.0000           -0.3990893             -10.8598
        97        1.7052           -0.3716845             -10.1141
        98        1.2948           -0.3700270             -10.0689
        99        1.0000           -0.3218266              -8.7573 (HOMO)
       100        0.0000           -0.2957058              -8.0466 (LUMO)
       101                         -0.2636351              -7.1739
       102                         -0.2623257              -7.1382
       103                         -0.2464944              -6.7075
       104                         -0.2402591              -6.5378
       105                         -0.2362242              -6.4280
       106                         -0.2358701              -6.4184
       107                         -0.2322847              -6.3208
       108                         -0.2199019              -5.9838
       109                         -0.2143335              -5.8323
       110                         -0.2106553              -5.7322
       ...                                ...                  ...
       191                          1.1723780              31.9020
      -------------------------------------------------------------
                  HL-Gap            0.0261208 Eh            0.7108 eV

     #   Z          covCN         q      C6AA      α(0)
     1   6 C        3.759    -0.111    22.682     6.790
     2   6 C        3.910     0.024    20.113     6.374
     3   6 C        3.761    -0.101    22.483     6.759
     4   6 C        2.987    -0.001    28.037     8.686
     5   6 C        2.922    -0.035    28.865     8.811
     6   6 C        2.919    -0.031    28.774     8.796
     7   6 C        2.919    -0.030    28.758     8.794
     8   6 C        2.919    -0.042    29.049     8.838
     9   6 C        2.952     0.053    26.818     8.494
    10   7 N        2.755    -0.030    21.822     6.938
    11   6 C        2.908     0.069    26.451     8.433
    12   6 C        2.918    -0.050    29.244     8.868
    13   6 C        2.920    -0.026    28.653     8.778
    14   6 C        2.986    -0.009    28.238     8.717
    15   6 C        2.974     0.006    27.876     8.661
    16   6 C        2.925    -0.059    29.473     8.903
    17   6 C        2.977     0.002    27.974     8.676
    18   6 C        2.920    -0.033    28.818     8.803
    19   6 C        2.917    -0.028    28.700     8.785
    20   6 C        2.916    -0.028    28.703     8.785
    21   6 C        2.924    -0.027    28.687     8.783
    22   6 C        2.987    -0.004    28.122     8.699
    23   6 C        2.943     0.080    26.218     8.398
    24   7 N        1.850    -0.230    26.886     7.685
    25   6 C        2.939     0.092    25.953     8.355
    26   6 C        2.925    -0.055    29.359     8.886
    27   6 C        2.974     0.011    27.764     8.643
    28   6 C        1.912     0.117    28.226     8.580
    29   7 N        0.911    -0.274    27.074     7.525
    30   6 C        2.973     0.010    27.786     8.647
    31   6 C        1.912     0.116    28.236     8.582
    32   7 N        0.911    -0.275    27.106     7.530
    33   6 C        2.925    -0.055    29.363     8.886
    34   6 C        2.939     0.092    25.956     8.356
    35   7 N        1.850    -0.231    26.914     7.689
    36   6 C        2.943     0.081    26.190     8.393
    37   6 C        2.951     0.052    26.832     8.496
    38   6 C        2.919    -0.043    29.064     8.841
    39   6 C        2.919    -0.031    28.764     8.795
    40   6 C        2.919    -0.031    28.773     8.796
    41   6 C        2.922    -0.035    28.862     8.810
    42   6 C        2.987    -0.000    28.031     8.685
    43   1 H        0.925     0.049     2.332     2.388
    44   1 H        0.925     0.044     2.391     2.418
    45   1 H        0.925     0.049     2.337     2.390
    46   1 H        0.925     0.035     2.515     2.480
    47   1 H        0.925     0.046     2.370     2.408
    48   1 H        0.925     0.047     2.362     2.404
    49   1 H        0.926     0.054     2.266     2.354
    50   1 H        0.926     0.043     2.403     2.424
    51   1 H        0.926     0.043     2.406     2.425
    52   1 H        0.926     0.047     2.362     2.403
    53   1 H        0.926     0.056     2.252     2.347
    54   1 H        0.926     0.053     2.281     2.362
    55   1 H        0.926     0.058     2.224     2.332
    56   1 H        0.926     0.049     2.336     2.390
    57   1 H        0.926     0.045     2.380     2.412
    58   1 H        0.926     0.043     2.403     2.424
    59   1 H        0.926     0.046     2.365     2.405
    60   1 H        0.926     0.051     2.306     2.375
    61   1 H        0.926     0.052     2.295     2.369
    62   1 H        0.926     0.047     2.354     2.399
    63   1 H        0.926     0.044     2.395     2.420
    64   1 H        0.926     0.044     2.398     2.421
    65   1 H        0.926     0.054     2.265     2.354

molecular dipole:
                 x           y           z       tot (Debye)
 q only:       -9.045      -1.465       0.054
   full:       -9.391      -1.699      -0.027      24.256

 projected vibrational frequencies (cm⁻¹)
eigval :       -0.00    -0.00    -0.00     0.00     0.00     0.00
eigval :       14.26    22.06    32.36    38.22    43.27    61.52
eigval :       70.70    77.20    88.74    98.25   102.33   115.87
eigval :      125.94   135.14   138.01   151.66   160.24   178.67
eigval :      184.72   189.39   204.36   219.31   236.03   274.15
eigval :      278.48   283.38   294.23   305.49   315.18   328.83
eigval :      344.87   350.05   360.80   372.25   378.92   389.95
eigval :      394.51   401.00   411.53   416.50   426.19   429.65
eigval :      447.88   457.06   459.17   477.29   496.87   500.99
eigval :      515.67   528.45   534.13   550.52   559.48   565.28
eigval :      573.27   580.97   581.59   587.86   602.32   612.94
eigval :      616.33   639.47   645.63   665.13   674.23   684.21
eigval :      692.53   696.48   708.36   723.57   725.29   726.53
eigval :      728.64   770.58   775.47   781.26   793.05   793.18
eigval :      800.30   810.05   817.84   841.92   866.17   870.19
eigval :      886.05   889.25   906.41   911.26   911.94   913.29
eigval :      918.81   921.87   923.64   937.87   939.36   942.48
eigval :      963.13   970.82  1008.93  1032.50  1061.77  1072.39
eigval :     1078.51  1090.55  1098.37  1105.27  1118.34  1134.47
eigval :     1144.21  1149.42  1161.48  1170.33  1177.50  1179.89
eigval :     1185.29  1187.38  1189.14  1189.64  1217.47  1228.13
eigval :     1233.23  1250.65  1252.29  1264.33  1267.82  1269.28
eigval :     1273.38  1281.94  1284.85  1292.72  1301.30  1314.75
eigval :     1322.93  1324.25  1336.89  1353.11  1373.91  1383.90
eigval :     1395.87  1405.26  1412.85  1415.11  1420.16  1428.47
eigval :     1432.74  1445.35  1458.55  1464.02  1470.04  1477.39
eigval :     1487.24  1487.30  1489.36  1495.27  1501.65  1502.79
eigval :     1517.56  1544.72  1565.19  1567.00  1575.32  1579.89
eigval :     1585.10  1590.84  2335.01  2345.81  3030.67  3032.26
eigval :     3035.56  3035.72  3050.12  3051.76  3078.98  3082.78
eigval :     3083.01  3086.98  3087.65  3089.31  3097.47  3097.72
eigval :     3097.96  3098.23  3098.46  3098.66  3106.52  3117.07
eigval :     3118.09  3118.79  3141.64

   temp. (K)  partition function   enthalpy   heat capacity  entropy
                                   cal/mol     cal/K/mol   cal/K/mol   J/K/mol
 298.15  VIB  0.234E+14            19261.057    124.877    116.956
         ROT  0.594E+08              888.752      2.981     38.553
         INT  0.139E+22            20149.809    127.858    155.509
         TR   0.121E+29             1481.254      4.968     44.711
         TOT                       21631.0628   132.8264   200.2202   837.7215

       T/K    H(0)-H(T)+PV         H(T)/Eh          T*S/Eh         G(T)/Eh
   ------------------------------------------------------------------------
    298.15    0.344713E-01    0.518701E+00    0.951311E-01    0.423570E+00
   ------------------------------------------------------------------------

         :::::::::::::::::::::::::::::::::::::::::::::::::::::
         ::                  THERMODYNAMIC                  ::
         :::::::::::::::::::::::::::::::::::::::::::::::::::::
         :: total free energy        -105.144406639896 Eh   ::
         ::.................................................::
         :: total energy             -105.567976605745 Eh   ::
         :: zero point energy           0.484229774418 Eh   ::
         :: G(RRHO) w/o ZPVE           -0.060659808569 Eh   ::
         :: G(RRHO) contrib.            0.423569965849 Eh   ::
         :::::::::::::::::::::::::::::::::::::::::::::::::::::

           -------------------------------------------------
          | TOTAL ENERGY             -105.567976605745 Eh   |
          | TOTAL ENTHALPY           -105.049275538542 Eh   |
          | TOTAL FREE ENERGY        -105.144406639896 Eh   |
          | GRADIENT NORM               0.000074540729 Eh/α |
          | HOMO-LUMO GAP               0.710783004468 eV   |
           -------------------------------------------------

 * finished run on 2025/07/19 at 23:54:12.252
