   * xtb version 6.7.1 (edcfbbe) compiled by 'albert@albert-system' on 2024-07-22

   ID    Z sym.   atoms
    1    6 C      1-9, 11-23, 25-28, 30, 31, 33, 34, 36-42
    2    7 N      10, 24, 29, 32, 35
    3    1 H      43-65

          program call               : xtb data2507/toluene/3-AcBPdCN/3-AcBPdCN.xyz --gfn 2 --gbsa toluene --ohess vtight --parallel 40 --molden --ceasefiles --namespace data2507/toluene/3-AcBPdCN/3-AcBPdCN_toluene_S0_preOpt
      * Solvation model:               GBSA
        Solvent                        toluene
        Solvent mass                       9.2140E+01 g/mol
          :  Hamiltonian                  GFN2-xTB          :
 * total energy  :  -105.5852925 Eh     change       -0.1675460E-08 Eh
 * total energy  :  -105.6039085 Eh     change       -0.1861600E-01 Eh
 * total energy  :  -105.6091268 Eh     change       -0.5218295E-02 Eh
 * total energy  :  -105.6099013 Eh     change       -0.7745713E-03 Eh
 * total energy  :  -105.6103186 Eh     change       -0.4172636E-03 Eh
 * total energy  :  -105.6104006 Eh     change       -0.8195659E-04 Eh
 * total energy  :  -105.6104234 Eh     change       -0.2284515E-04 Eh
 * total energy  :  -105.6103107 Eh     change        0.1126904E-03 Eh
 * total energy  :  -105.6104237 Eh     change       -0.1129700E-03 Eh
 * total energy  :  -105.6104396 Eh     change       -0.1590114E-04 Eh
 * total energy  :  -105.6104161 Eh     change        0.2352301E-04 Eh
 * total energy  :  -105.6104389 Eh     change       -0.2288495E-04 Eh
 * total energy  :  -105.6104417 Eh     change       -0.2725870E-05 Eh
 * total energy  :  -105.6104426 Eh     change       -0.9799105E-06 Eh
 * total energy  :  -105.6104428 Eh     change       -0.1682532E-06 Eh
 * total energy  :  -105.6104429 Eh     change       -0.1226654E-06 Eh
 * total energy  :  -105.6104429 Eh     change       -0.5967664E-08 Eh
   *** GEOMETRY OPTIMIZATION CONVERGED AFTER 17 ITERATIONS ***

 final structure:
================
65
 xtb: 6.7.1 (edcfbbe)
C           -6.24684888241737       -0.77205262380598       -0.00013535488129
C           -5.33348238848003        0.46854205227756        0.00005901509848
C           -6.18282899251301        1.75336734664448        0.00025342989175
C           -4.48383001553832        0.44572454136407       -1.25741930806371
C           -5.10035859049548        0.47178068379942       -2.50111506201979
C           -4.37864904368939        0.44917107245666       -3.68084389499424
C           -2.99732321797024        0.39800547305430       -3.62794661960759
C           -2.35832108677223        0.37124603623778       -2.40569346813585
C           -3.08658239687845        0.39490733538596       -1.21272284620848
N           -2.41482866680576        0.36324021009992        0.00004319781559
C           -0.99324480126548        0.32951979902178        0.00002780459832
C           -0.26785603085329        1.52236197053868        0.00011863337125
C            1.10540079249415        1.47206951366257        0.00010905351815
C            1.77863428668341        0.24502378778798       -0.00003052533183
C            1.05754514976243       -0.96737033092275       -0.00013159427748
C           -0.33835154754680       -0.88931901071637       -0.00007730042277
C            1.76683023517258       -2.24048467384950       -0.00025960223159
C            1.10139220202594       -3.47128817028606       -0.00035416706697
C            1.79520070977265       -4.66341485368029       -0.00048830542613
C            3.18566223428608       -4.67192387798797       -0.00045479745204
C            3.86840822687566       -3.47723282429928       -0.00031915897364
C            3.17743894033444       -2.26057437599911       -0.00026090323752
C            3.92188916432996       -1.02331206839298       -0.00014914754241
N            5.24008652343610       -1.06597191667379       -0.00013750635329
C            5.91257016656552        0.09471433140016       -0.00002230195054
C            7.32192057075113        0.08297546524087        0.00000293228677
C            8.01661281821996        1.26958903271855        0.00012121590881
C            9.43122898881468        1.26734427155358        0.00012082803112
N           10.57769447716063        1.25435900234403        0.00010678906060
C            7.31972116894012        2.51678439744021        0.00021707336224
C            8.05821765471688        3.72321324930950        0.00021026205354
N            8.64683859911494        4.70718180255253        0.00066255830530
C            5.94505437817966        2.54730491855379        0.00025008620551
C            5.21640602215586        1.34097528598943        0.00010219877220
N            3.87526201504782        1.37614237899146        0.00008790434673
C            3.22225779807769        0.23045046539197       -0.00003828350414
C           -3.08658102966272        0.39454700503464        1.21281938405916
C           -2.35831816096043        0.37055587295793        2.40578253869660
C           -2.99732089775132        0.39693791413386        3.62804371220143
C           -4.37864861285659        0.44805208657023        3.68095582119717
C           -5.10035874423536        0.47100721520900        2.50123347316446
C           -4.48382945649557        0.44533752361919        1.25753055508349
H           -5.64349276313561       -1.67845879341148       -0.00027638139041
H           -6.88331036393794       -0.78399659833562       -0.88061526792833
H           -6.88331167879975       -0.78427135271857        0.88033982308367
H           -6.81836871641604        1.79841181311251       -0.87971490398187
H           -6.81833786840613        1.79816853095109        0.88025577066841
H           -5.53429044924210        2.62795426437910        0.00036333114030
H           -6.17765327948136        0.51040784188885       -2.55793342255455
H           -4.89160934786654        0.47065909504939       -4.63070866870653
H           -2.41352882277984        0.37929151952695       -4.53668048139730
H           -1.28009477009595        0.33284005273176       -2.37166905076884
H           -0.79161393675610        2.46598872394430        0.00020960136818
H            1.69631258605480        2.37422613567052        0.00021151193731
H           -0.94334594825761       -1.78129914477086       -0.00011144483957
H            0.02456798533786       -3.50584513805246       -0.00030106277438
H            1.25133270983575       -5.59622046708596       -0.00059782025480
H            3.72425861295903       -5.60711859577596       -0.00051565390158
H            4.94661508671150       -3.44670947565653       -0.00024782832501
H            7.83653077644659       -0.86580495717609       -0.00008444539580
H            5.40750795938964        3.48328807177505        0.00041286435684
H           -1.28009052191310        0.33219779165500        2.37174490698547
H           -2.41352508514516        0.37796812480614        4.53677158795042
H           -4.89161020534485        0.46924013140436        4.63082666384722
H           -6.17765451888782        0.50959511136037        2.55806005153383

          :  Hamiltonian                  GFN2-xTB          :
         :: gradient norm              0.000165140445 Eh/a0 ::
         :: HOMO-LUMO gap              0.367115451263 eV    ::
         :: SCC energy              -107.581787076599 Eh    ::
         :: -> dispersion             -0.093184990905 Eh    ::
         :: -> Gsolv                  -0.048639019878 Eh    ::
         :: repulsion energy           1.971344131993 Eh    ::

    * Orbital Energies and Occupations

         #    Occupation            Energy/Eh            Energy/eV
      -------------------------------------------------------------
         1        2.0000           -0.7058024             -19.2059
       ...           ...                  ...                  ...
        86        2.0000           -0.4392294             -11.9520
        87        2.0000           -0.4331694             -11.7871
        88        2.0000           -0.4293254             -11.6825
        89        2.0000           -0.4247836             -11.5589
        90        2.0000           -0.4155787             -11.3085
        91        2.0000           -0.4107458             -11.1770
        92        2.0000           -0.4088102             -11.1243
        93        2.0000           -0.4086219             -11.1192
        94        2.0000           -0.4051775             -11.0254
        95        2.0000           -0.3996844             -10.8760
        96        2.0000           -0.3943354             -10.7304
        97        2.0000           -0.3781901             -10.2911
        98        1.9984           -0.3490742              -9.4988 (HOMO)
        99        0.0016           -0.3355830              -9.1317 (LUMO)
       100                         -0.3115212              -8.4769
       101                         -0.2755908              -7.4992
       102                         -0.2743619              -7.4658
       103                         -0.2630060              -7.1568
       104                         -0.2355177              -6.4088
       105                         -0.2303942              -6.2693
       106                         -0.2286934              -6.2231
       107                         -0.2260691              -6.1517
       108                         -0.2209809              -6.0132
       109                         -0.2203347              -5.9956
       ...                                ...                  ...
       191                          1.1592541              31.5449
      -------------------------------------------------------------
                  HL-Gap            0.0134913 Eh            0.3671 eV

     #   Z          covCN         q      C6AA      α(0)
     1   6 C        3.761    -0.104    22.524     6.766
     2   6 C        3.908     0.021    20.162     6.382
     3   6 C        3.761    -0.104    22.525     6.766
     4   6 C        2.978    -0.014    28.345     8.733
     5   6 C        2.928    -0.037    28.920     8.819
     6   6 C        2.917    -0.046    29.141     8.852
     7   6 C        2.919    -0.034    28.858     8.809
     8   6 C        2.924    -0.060    29.500     8.907
     9   6 C        2.928     0.058    26.703     8.474
    10   7 N        2.755    -0.074    22.669     7.071
    11   6 C        2.925     0.079    26.244     8.401
    12   6 C        2.918    -0.035    28.861     8.810
    13   6 C        2.923    -0.024    28.593     8.769
    14   6 C        2.987    -0.006    28.158     8.704
    15   6 C        2.975     0.013    27.723     8.637
    16   6 C        2.925    -0.042    29.034     8.836
    17   6 C        2.976     0.011    27.762     8.643
    18   6 C        2.922    -0.029    28.737     8.791
    19   6 C        2.918    -0.020    28.498     8.754
    20   6 C        2.916    -0.023    28.579     8.766
    21   6 C        2.923    -0.023    28.586     8.768
    22   6 C        2.987    -0.003    28.103     8.696
    23   6 C        2.959     0.091    25.981     8.360
    24   7 N        1.849    -0.242    27.160     7.724
    25   6 C        2.963     0.085    26.101     8.380
    26   6 C        2.926    -0.027    28.685     8.783
    27   6 C        2.973     0.024    27.455     8.595
    28   6 C        1.911     0.121    28.135     8.566
    29   7 N        0.911    -0.236    26.184     7.401
    30   6 C        2.973     0.024    27.458     8.595
    31   6 C        1.911     0.121    28.137     8.567
    32   7 N        0.911    -0.237    26.187     7.401
    33   6 C        2.926    -0.027    28.686     8.783
    34   6 C        2.964     0.085    26.107     8.381
    35   7 N        1.849    -0.242    27.172     7.726
    36   6 C        2.959     0.091    25.979     8.360
    37   6 C        2.928     0.058    26.703     8.474
    38   6 C        2.924    -0.060    29.500     8.907
    39   6 C        2.919    -0.034    28.858     8.809
    40   6 C        2.917    -0.046    29.141     8.852
    41   6 C        2.928    -0.037    28.920     8.819
    42   6 C        2.978    -0.014    28.345     8.733
    43   1 H        0.925     0.030     2.579     2.512
    44   1 H        0.925     0.042     2.427     2.436
    45   1 H        0.925     0.042     2.427     2.436
    46   1 H        0.925     0.042     2.428     2.437
    47   1 H        0.925     0.042     2.428     2.437
    48   1 H        0.925     0.030     2.585     2.514
    49   1 H        0.926     0.033     2.544     2.494
    50   1 H        0.926     0.026     2.646     2.544
    51   1 H        0.926     0.026     2.637     2.539
    52   1 H        0.926     0.022     2.702     2.571
    53   1 H        0.926     0.057     2.237     2.339
    54   1 H        0.926     0.068     2.103     2.268
    55   1 H        0.926     0.060     2.199     2.319
    56   1 H        0.926     0.055     2.262     2.352
    57   1 H        0.926     0.054     2.270     2.356
    58   1 H        0.926     0.053     2.285     2.364
    59   1 H        0.926     0.062     2.173     2.305
    60   1 H        0.926     0.074     2.045     2.236
    61   1 H        0.926     0.073     2.048     2.238
    62   1 H        0.926     0.022     2.702     2.571
    63   1 H        0.926     0.026     2.637     2.539
    64   1 H        0.926     0.026     2.646     2.544
    65   1 H        0.926     0.033     2.544     2.494

molecular dipole:
                 x           y           z       tot (Debye)
 q only:       -3.230      -2.139      -0.000
   full:       -3.714      -2.403      -0.000      11.243

 projected vibrational frequencies (cm⁻¹)
eigval :       -0.00    -0.00    -0.00     0.00     0.00     0.00
eigval :      -13.84    11.24    20.34    27.78    39.28    43.25
eigval :       68.21    71.14    75.64    94.82   101.43   104.76
eigval :      106.03   108.49   127.80   130.66   148.62   179.61
eigval :      180.29   192.72   212.46   219.62   227.34   238.18
eigval :      248.61   287.60   292.91   304.03   310.10   329.54
eigval :      330.95   344.46   362.00   368.67   371.87   380.53
eigval :      387.75   391.31   408.14   418.35   427.04   436.52
eigval :      447.31   454.19   457.40   476.28   492.16   509.37
eigval :      513.65   523.71   539.83   546.05   546.26   555.93
eigval :      565.89   586.44   592.80   603.07   612.33   631.17
eigval :      644.48   647.44   663.90   674.17   680.80   692.33
eigval :      694.34   700.59   713.19   730.09   738.91   748.98
eigval :      768.47   776.42   777.43   781.39   793.77   819.39
eigval :      831.25   850.44   862.93   865.34   866.33   867.21
eigval :      874.32   877.88   912.04   912.78   916.16   920.85
eigval :      920.88   922.56   924.21   925.43   932.82   938.73
eigval :      957.63   980.25  1011.37  1039.60  1058.32  1075.53
eigval :     1083.77  1095.69  1111.44  1118.01  1119.18  1135.06
eigval :     1138.63  1147.23  1158.35  1167.75  1172.46  1178.37
eigval :     1185.34  1185.59  1188.40  1191.31  1225.33  1235.32
eigval :     1243.46  1247.92  1263.54  1265.77  1271.88  1280.18
eigval :     1284.38  1292.86  1313.03  1317.72  1323.54  1331.64
eigval :     1334.49  1337.84  1347.99  1372.83  1400.06  1404.91
eigval :     1410.35  1418.82  1422.69  1428.10  1435.73  1440.03
eigval :     1444.62  1465.95  1471.10  1477.05  1486.46  1487.09
eigval :     1489.89  1494.29  1496.97  1502.00  1517.84  1540.31
eigval :     1559.21  1571.92  1573.94  1575.68  1588.58  1590.16
eigval :     1591.01  1600.23  2366.62  2367.86  3021.12  3023.63
eigval :     3038.65  3040.64  3047.23  3051.25  3071.80  3071.86
eigval :     3079.37  3079.49  3085.47  3089.05  3089.09  3095.07
eigval :     3095.12  3096.00  3097.10  3100.78  3101.54  3109.60
eigval :     3110.62  3112.01  3119.34

   temp. (K)  partition function   enthalpy   heat capacity  entropy
                                   cal/mol     cal/K/mol   cal/K/mol   J/K/mol
 298.15  VIB  0.374E+15            19486.231    123.387    120.254
         ROT  0.600E+08              888.752      2.981     38.571
         INT  0.224E+23            20374.983    126.368    158.826
         TR   0.121E+29             1481.254      4.968     44.711
         TOT                       21856.2372   131.3360   203.5369   851.5986

       T/K    H(0)-H(T)+PV         H(T)/Eh          T*S/Eh         G(T)/Eh
   ------------------------------------------------------------------------
    298.15    0.348301E-01    0.520536E+00    0.967070E-01    0.423829E+00
   ------------------------------------------------------------------------

         :::::::::::::::::::::::::::::::::::::::::::::::::::::
         ::                  THERMODYNAMIC                  ::
         :::::::::::::::::::::::::::::::::::::::::::::::::::::
         :: total free energy        -105.186613658670 Eh   ::
         ::.................................................::
         :: total energy             -105.610442948588 Eh   ::
         :: zero point energy           0.485706128086 Eh   ::
         :: G(RRHO) w/o ZPVE           -0.061876838168 Eh   ::
         :: G(RRHO) contrib.            0.423829289918 Eh   ::
         :::::::::::::::::::::::::::::::::::::::::::::::::::::

           -------------------------------------------------
          | TOTAL ENERGY             -105.610442948588 Eh   |
          | TOTAL ENTHALPY           -105.089906689420 Eh   |
          | TOTAL FREE ENERGY        -105.186613658670 Eh   |
          | GRADIENT NORM               0.000165035695 Eh/α |
          | HOMO-LUMO GAP               0.367115620299 eV   |
           -------------------------------------------------

 * finished run on 2025/07/19 at 23:50:48.306
