   * xtb version 6.7.1 (edcfbbe) compiled by 'albert@albert-system' on 2024-07-22

   ID    Z sym.   atoms
    1    6 C      1-9, 11-23, 25-28, 30, 31, 33, 34, 36-42
    2    7 N      10, 24, 29, 32, 35
    3    1 H      43-65

          program call               : xtb data2507/toluene/3-AcBPdCN/3-AcBPdCN_toluene_T1_crest.xyz --gfn 2 --uhf 2 --gbsa toluene --ohess vtight --parallel 40 --molden --ceasefiles --namespace data2507/toluene/3-AcBPdCN/3-AcBPdCN_toluene_T1_finalOpt
      * Solvation model:               GBSA
        Solvent                        toluene
        Solvent mass                       9.2140E+01 g/mol
          :  Hamiltonian                  GFN2-xTB          :
 * total energy  :  -105.5730684 Eh     change       -0.8059067E-07 Eh
 * total energy  :  -105.5732036 Eh     change       -0.1352640E-03 Eh
 * total energy  :  -105.5732600 Eh     change       -0.5636040E-04 Eh
 * total energy  :  -105.5732441 Eh     change        0.1594398E-04 Eh
 * total energy  :  -105.5732687 Eh     change       -0.2467052E-04 Eh
 * total energy  :  -105.5732545 Eh     change        0.1422362E-04 Eh
 * total energy  :  -105.5732712 Eh     change       -0.1672106E-04 Eh
 * total energy  :  -105.5732723 Eh     change       -0.1107649E-05 Eh
 * total energy  :  -105.5732770 Eh     change       -0.4620739E-05 Eh
 * total energy  :  -105.5732803 Eh     change       -0.3345239E-05 Eh
 * total energy  :  -105.5733294 Eh     change        0.8114554E-07 Eh
 * total energy  :  -105.5733293 Eh     change        0.6455474E-07 Eh
 * total energy  :  -105.5733292 Eh     change        0.1371284E-06 Eh
 * total energy  :  -105.5733290 Eh     change        0.1783773E-06 Eh
 * total energy  :  -105.5733289 Eh     change        0.1271445E-06 Eh
 * total energy  :  -105.5733298 Eh     change       -0.9269289E-06 Eh
 * total energy  :  -105.5733307 Eh     change       -0.8915725E-06 Eh
 * total energy  :  -105.5733307 Eh     change        0.8553911E-08 Eh
 * total energy  :  -105.5733307 Eh     change       -0.3271671E-07 Eh
   *** GEOMETRY OPTIMIZATION CONVERGED AFTER 45 ITERATIONS ***

 final structure:
================
65
 xtb: 6.7.1 (edcfbbe)
C           -7.02580157555229        2.09812128679593       -0.42028393231269
C           -6.31318447094062        0.77075254832793       -0.09157818712361
C           -7.35244203374018       -0.33442949315199        0.18193040104505
C           -5.47318099083597        0.96691617359542        1.15226910565366
C           -6.08271615303622        1.32904241181164        2.34616454344172
C           -5.36038056716191        1.51046179499583        3.51151409492453
C           -3.98625459939597        1.31998208408482        3.50212144687794
C           -3.35284299949523        0.96344090587806        2.33313102883902
C           -4.07997698253397        0.79218296746650        1.14587263242184
N           -3.41632134019111        0.44427842695802       -0.01249234778247
C           -1.99816834561955        0.30334643150189        0.02135966097410
C           -1.18657684614663        1.44136768028060       -0.07454403795233
C            0.17436268924289        1.29239125942741       -0.05665711904980
C            0.76348097790319        0.02082488688435        0.05169406798063
C           -0.05068097892854       -1.13249984120548        0.15691312573902
C           -1.44002644496382       -0.95182378302941        0.13979754184985
C            0.56637367946337       -2.43508737650112        0.26864342777244
C           -0.17263859781154       -3.62232190497571        0.38247510331765
C            0.44607456761580       -4.84630117947080        0.48037745946285
C            1.83792663826515       -4.93761549169764        0.46910143176586
C            2.59073935490062       -3.79606249092623        0.36072625275411
C            1.97677829394482       -2.53729324648424        0.25975840902478
C            2.79617137312524       -1.36797906633508        0.14536155523708
N            4.12313247611270       -1.47191434715419        0.12658603432366
C            4.89417808555108       -0.39285580888140        0.01864373177252
C            6.28734851363401       -0.48986538803896       -0.01365217304039
C            7.07656962108137        0.65166445934299       -0.12446342531542
C            8.47862304961838        0.54018598258172       -0.16016702982060
N            9.62292315619835        0.43569546591395       -0.18982432794495
C            6.47189408074903        1.92577137778183       -0.20301371666399
C            7.27819359417219        3.07476237065581       -0.30908350627545
N            7.92531305182747        4.02061132323714       -0.39503038790966
C            5.08624446295754        2.04509572587040       -0.17561960180017
C            4.27418383973967        0.91107541865089       -0.07051015275407
N            2.94865849222448        1.00208921536706       -0.05501873513313
C            2.18845388964605       -0.08975613202899        0.04701164415932
C           -4.07800633677145        0.23892194934338       -1.20604829201474
C           -3.34600335349525       -0.09651992970802       -2.35471467161010
C           -3.98147968053125       -0.32264463349256       -3.55468844443927
C           -5.36215190646001       -0.21411282307289       -3.63533379658690
C           -6.08604293984194        0.13332786204328       -2.50932848573433
C           -5.47399675274313        0.36887786478682       -1.28543402145001
H           -7.64889863410078        1.99186970759149       -1.30326482256052
H           -6.29140046098809        2.87889283254090       -0.60946304549112
H           -7.65569079811127        2.41168580524392        0.40675988222550
H           -7.99332097705839       -0.48301845315998       -0.68175440767525
H           -6.84861392025375       -1.27338932260997        0.40296150252310
H           -7.97943187769756       -0.07286756150417        1.02882771483553
H           -7.15100843327221        1.47534414690918        2.37366057549833
H           -5.86555054169493        1.79338971044634        4.42219934341863
H           -3.40966661822618        1.44912339969130        4.40536672380576
H           -2.28501190063155        0.81208935915234        2.32915769073772
H           -1.64005384218023        2.41645097963541       -0.16405822075022
H            0.83149299118719        2.14484165457135       -0.13202429207863
H           -2.10373050017497       -1.79811219048326        0.21261266141704
H           -1.24983230193782       -3.58905964122538        0.39517341552547
H           -0.14906019972070       -5.74322380110171        0.56667364683796
H            2.31884275704564       -5.90115892629308        0.54638434179232
H            3.66946561524263       -3.83203103643185        0.34986038044619
H            6.74547297867382       -1.46481327976017        0.04927741797587
H            4.62165132678473        3.01705769014872       -0.23753420630098
H           -2.27201500657691       -0.17550010084946       -2.29708584240493
H           -3.40094408888852       -0.58175819058734       -4.42694493012773
H           -5.86968192082240       -0.39224880620044       -4.57089089128110
H           -7.15738306977527        0.22489989764918       -2.59348223319431

          :  Hamiltonian                  GFN2-xTB          :
         :: gradient norm              0.000068466251 Eh/a0 ::
         :: HOMO-LUMO gap              0.715464262178 eV    ::
         :: SCC energy              -107.544091474413 Eh    ::
         :: -> dispersion             -0.092969293771 Eh    ::
         :: -> Gsolv                  -0.057899226114 Eh    ::
         :: repulsion energy           1.970760721860 Eh    ::

    * Orbital Energies and Occupations

         #    Occupation            Energy/Eh            Energy/eV
      -------------------------------------------------------------
         1        2.0000           -0.6919615             -18.8292
       ...           ...                  ...                  ...
        87        2.0000           -0.4313545             -11.7378
        88        2.0000           -0.4260955             -11.5946
        89        2.0000           -0.4260042             -11.5922
        90        2.0000           -0.4229218             -11.5083
        91        2.0000           -0.4217196             -11.4756
        92        2.0000           -0.4166853             -11.3386
        93        2.0000           -0.4125018             -11.2247
        94        2.0000           -0.4106844             -11.1753
        95        2.0000           -0.4038270             -10.9887
        96        2.0000           -0.3997818             -10.8786
        97        1.7190           -0.3687138             -10.0332
        98        1.2810           -0.3669289              -9.9846
        99        1.0000           -0.3216208              -8.7517 (HOMO)
       100        0.0000           -0.2953282              -8.0363 (LUMO)
       101                         -0.2671686              -7.2700
       102                         -0.2643757              -7.1940
       103                         -0.2458759              -6.6906
       104                         -0.2454921              -6.6802
       105                         -0.2371366              -6.4528
       106                         -0.2363810              -6.4323
       107                         -0.2190915              -5.9618
       108                         -0.2187992              -5.9538
       109                         -0.2135109              -5.8099
       110                         -0.2104614              -5.7269
       ...                                ...                  ...
       191                          1.1729849              31.9185
      -------------------------------------------------------------
                  HL-Gap            0.0262927 Eh            0.7155 eV

     #   Z          covCN         q      C6AA      α(0)
     1   6 C        3.761    -0.108    22.602     6.777
     2   6 C        3.909     0.025    20.105     6.373
     3   6 C        3.761    -0.108    22.614     6.779
     4   6 C        2.978    -0.001    28.041     8.686
     5   6 C        2.925    -0.032    28.792     8.800
     6   6 C        2.917    -0.031    28.771     8.796
     7   6 C        2.918    -0.027    28.675     8.781
     8   6 C        2.922    -0.048    29.203     8.862
     9   6 C        2.929     0.060    26.654     8.467
    10   7 N        2.755    -0.020    21.631     6.908
    11   6 C        2.927     0.059    26.688     8.472
    12   6 C        2.916    -0.039    28.963     8.825
    13   6 C        2.924    -0.026    28.654     8.778
    14   6 C        2.987    -0.007    28.175     8.707
    15   6 C        2.977     0.005    27.902     8.665
    16   6 C        2.922    -0.042    29.045     8.838
    17   6 C        2.977     0.003    27.953     8.672
    18   6 C        2.920    -0.033    28.822     8.804
    19   6 C        2.917    -0.027    28.687     8.783
    20   6 C        2.916    -0.028    28.695     8.784
    21   6 C        2.923    -0.027    28.674     8.781
    22   6 C        2.987    -0.005    28.134     8.701
    23   6 C        2.944     0.082    26.168     8.390
    24   7 N        1.850    -0.243    27.199     7.729
    25   6 C        2.942     0.091    25.975     8.359
    26   6 C        2.925    -0.054    29.349     8.884
    27   6 C        2.974     0.009    27.805     8.649
    28   6 C        1.912     0.116    28.238     8.582
    29   7 N        0.911    -0.277    27.152     7.536
    30   6 C        2.973     0.010    27.783     8.646
    31   6 C        1.912     0.117    28.227     8.580
    32   7 N        0.911    -0.275    27.109     7.530
    33   6 C        2.925    -0.055    29.361     8.886
    34   6 C        2.942     0.091    25.972     8.358
    35   7 N        1.849    -0.244    27.221     7.733
    36   6 C        2.945     0.078    26.255     8.404
    37   6 C        2.929     0.060    26.659     8.467
    38   6 C        2.922    -0.049    29.208     8.863
    39   6 C        2.918    -0.027    28.676     8.781
    40   6 C        2.917    -0.031    28.772     8.796
    41   6 C        2.925    -0.032    28.793     8.800
    42   6 C        2.978    -0.001    28.040     8.686
    43   1 H        0.925     0.052     2.300     2.372
    44   1 H        0.925     0.037     2.486     2.466
    45   1 H        0.925     0.052     2.298     2.371
    46   1 H        0.925     0.052     2.297     2.370
    47   1 H        0.925     0.038     2.475     2.460
    48   1 H        0.925     0.052     2.299     2.371
    49   1 H        0.926     0.051     2.312     2.378
    50   1 H        0.926     0.044     2.397     2.421
    51   1 H        0.926     0.042     2.421     2.433
    52   1 H        0.926     0.040     2.445     2.445
    53   1 H        0.926     0.054     2.273     2.357
    54   1 H        0.926     0.059     2.216     2.328
    55   1 H        0.926     0.057     2.236     2.338
    56   1 H        0.926     0.048     2.339     2.391
    57   1 H        0.926     0.045     2.380     2.412
    58   1 H        0.926     0.043     2.403     2.424
    59   1 H        0.926     0.048     2.349     2.397
    60   1 H        0.926     0.049     2.333     2.389
    61   1 H        0.926     0.050     2.319     2.381
    62   1 H        0.926     0.040     2.450     2.448
    63   1 H        0.926     0.042     2.422     2.434
    64   1 H        0.926     0.044     2.397     2.421
    65   1 H        0.926     0.051     2.310     2.377

molecular dipole:
                 x           y           z       tot (Debye)
 q only:       -9.655      -1.533       0.208
   full:       -9.976      -1.784       0.244      25.767

 projected vibrational frequencies (cm⁻¹)
eigval :       -0.00    -0.00    -0.00     0.00     0.00     0.00
eigval :        8.82    16.89    21.38    34.02    42.90    45.28
eigval :       76.04    76.43    82.99    96.31    97.06   100.41
eigval :      107.58   122.43   125.78   136.73   146.20   176.41
eigval :      177.30   204.70   208.84   218.55   229.62   242.13
eigval :      249.63   282.33   297.05   303.07   307.85   325.96
eigval :      330.66   340.51   361.54   368.70   380.06   381.95
eigval :      389.14   403.13   409.32   415.91   423.06   438.08
eigval :      447.60   451.07   457.10   476.26   503.38   513.29
eigval :      518.49   523.78   531.47   542.35   544.52   553.11
eigval :      563.99   583.55   583.92   601.15   608.02   623.66
eigval :      628.23   642.50   648.65   662.14   686.42   686.87
eigval :      693.68   698.62   701.14   709.41   729.67   730.00
eigval :      731.84   771.46   771.61   774.00   792.31   802.79
eigval :      805.85   819.04   828.40   858.44   866.55   870.35
eigval :      870.78   872.35   911.83   911.92   913.99   914.89
eigval :      915.23   916.79   921.88   923.09   924.53   937.06
eigval :      958.89   968.23  1012.51  1031.58  1061.31  1073.25
eigval :     1081.62  1091.00  1105.96  1111.61  1116.03  1137.64
eigval :     1140.27  1145.73  1146.74  1163.43  1175.76  1182.82
eigval :     1183.21  1187.04  1187.49  1188.45  1215.20  1229.64
eigval :     1239.14  1242.37  1248.27  1257.54  1265.81  1278.51
eigval :     1286.65  1291.77  1295.33  1301.57  1314.07  1320.22
eigval :     1327.01  1332.93  1333.65  1346.38  1367.12  1387.65
eigval :     1397.82  1407.43  1410.76  1415.67  1416.55  1417.42
eigval :     1428.01  1453.36  1459.56  1467.01  1472.58  1481.12
eigval :     1481.78  1482.12  1484.76  1493.08  1495.89  1498.95
eigval :     1517.73  1546.84  1550.52  1563.17  1570.89  1576.01
eigval :     1586.99  1588.36  2335.38  2345.61  3027.38  3029.88
eigval :     3049.37  3051.60  3056.45  3060.73  3079.38  3086.26
eigval :     3086.43  3087.41  3093.13  3093.54  3093.69  3097.04
eigval :     3097.64  3098.80  3102.28  3102.93  3104.26  3104.60
eigval :     3108.94  3109.65  3113.46

   temp. (K)  partition function   enthalpy   heat capacity  entropy
                                   cal/mol     cal/K/mol   cal/K/mol   J/K/mol
 298.15  VIB  0.213E+15            19508.089    124.566    120.011
         ROT  0.601E+08              888.752      2.981     38.575
         INT  0.128E+23            20396.841    127.547    158.586
         TR   0.121E+29             1481.254      4.968     44.711
         TOT                       21878.0949   132.5149   203.2977   850.5975

       T/K    H(0)-H(T)+PV         H(T)/Eh          T*S/Eh         G(T)/Eh
   ------------------------------------------------------------------------
    298.15    0.348650E-01    0.518487E+00    0.965933E-01    0.421894E+00
   ------------------------------------------------------------------------

         :::::::::::::::::::::::::::::::::::::::::::::::::::::
         ::                  THERMODYNAMIC                  ::
         :::::::::::::::::::::::::::::::::::::::::::::::::::::
         :: total free energy        -105.151437217107 Eh   ::
         ::.................................................::
         :: total energy             -105.573330755798 Eh   ::
         :: zero point energy           0.483621861068 Eh   ::
         :: G(RRHO) w/o ZPVE           -0.061728322377 Eh   ::
         :: G(RRHO) contrib.            0.421893538691 Eh   ::
         :::::::::::::::::::::::::::::::::::::::::::::::::::::

           -------------------------------------------------
          | TOTAL ENERGY             -105.573330755798 Eh   |
          | TOTAL ENTHALPY           -105.054843931330 Eh   |
          | TOTAL FREE ENERGY        -105.151437217107 Eh   |
          | GRADIENT NORM               0.000068246415 Eh/α |
          | HOMO-LUMO GAP               0.715459784943 eV   |
           -------------------------------------------------

 * finished run on 2025/07/19 at 23:58:02.109
