   * xtb version 6.7.1 (edcfbbe) compiled by 'albert@albert-system' on 2024-07-22

   ID    Z sym.   atoms
    1    6 C      1-13, 15-44, 46-68
    2    7 N      14, 45
    3    1 H      69-120

          program call               : xtb data2507/gas/pSFIAc2/pSFIAc2_gas_S0_finalOpt.xtbopt.xyz --gfn 2 --spinpol --tblite --uhf 2 --ohess vtight --parallel 40 --molden --ceasefiles --namespace data2507/gas/pSFIAc2/pSFIAc2_gas_T1_preOpt
 * total energy  :  -173.8133796 Eh     change        0.2230536E-09 Eh
 * total energy  :  -173.8151975 Eh     change       -0.1817879E-02 Eh
 * total energy  :  -173.8157665 Eh     change       -0.5690383E-03 Eh
 * total energy  :  -173.8158120 Eh     change       -0.4549889E-04 Eh
 * total energy  :  -173.8158415 Eh     change       -0.2947463E-04 Eh
 * total energy  :  -173.8158534 Eh     change       -0.1190361E-04 Eh
 * total energy  :  -173.8158602 Eh     change       -0.6816320E-05 Eh
 * total energy  :  -173.8158692 Eh     change       -0.9016588E-05 Eh
 * total energy  :  -173.8158738 Eh     change       -0.4547532E-05 Eh
 * total energy  :  -173.8158808 Eh     change       -0.7022962E-05 Eh
 * total energy  :  -173.8159710 Eh     change       -0.5333839E-06 Eh
 * total energy  :  -173.8159710 Eh     change        0.5266656E-08 Eh
 * total energy  :  -173.8159712 Eh     change       -0.2180600E-06 Eh
 * total energy  :  -173.8159716 Eh     change       -0.3845231E-06 Eh
 * total energy  :  -173.8159717 Eh     change       -0.3443122E-07 Eh
 * total energy  :  -173.8159720 Eh     change       -0.2920089E-06 Eh
 * total energy  :  -173.8159720 Eh     change        0.3491465E-08 Eh
 * total energy  :  -173.8159721 Eh     change       -0.1379770E-06 Eh
 * total energy  :  -173.8159722 Eh     change       -0.9308715E-07 Eh
   *** GEOMETRY OPTIMIZATION CONVERGED AFTER 71 ITERATIONS ***

 final structure:
================
120
 xtb: 6.7.1 (edcfbbe)
C           -2.56589207566788       -5.87337451127718       -1.29177816458263
C           -1.43873236304853       -4.93898741574870       -0.97443569849384
C           -0.13230752639915       -5.43593091568996       -0.88272383425419
C            0.93506524202995       -4.60032304782168       -0.59585302286813
C            0.68319995202185       -3.26184965576824       -0.35306861621345
C           -0.63973429154553       -2.72252806970424       -0.46578373538057
C           -1.68379909663210       -3.59277510470646       -0.79181998375564
C           -0.54050175250055       -1.31627542024107       -0.29978396579293
C           -1.44569123111694       -0.21956300835480       -0.19955264347412
C           -0.84828614934324        1.03069347106856       -0.18355978301048
C            0.53917310215028        1.31553329511770       -0.30408510944875
C            1.44416655455679        0.21920890024704       -0.19770060710964
C            0.84673514349711       -1.03097491105093       -0.17781801674726
N            1.55252978529264       -2.21654546056652       -0.10485389788225
C            2.86217176592580       -2.21127197777019        0.32735107065947
C            3.48973844805749       -3.34886857578542        0.83879782103907
C            4.80786726080050       -3.31810161741122        1.24080134005633
C            5.55399562358431       -2.14673309068164        1.16071513839920
C            7.01740249872510       -2.05260105503323        1.55306375550026
C            7.82524218098039       -1.56003143975805        0.34373598571803
C            7.16111838389512       -1.05811668806693        2.71419376219355
C            7.59311780154932       -3.39951045741324        1.99797924853428
C            4.89649997989452       -1.00347999967356        0.72098480754933
C            3.56940305814633       -0.99915246285909        0.32864543651873
C            2.93691444167977        0.31535508227983       -0.10834538630845
C            3.43292996285131        1.40488978679807        0.82170684034111
C            3.06839476643893        1.64408547648825        2.12525399673408
C            3.70697878310203        2.66916875725866        2.81384362890144
C            4.70174706166631        3.41983676163938        2.20671101068920
C            5.07422154341608        3.18109893737705        0.89362725691628
C            4.43012941716584        2.17172245710814        0.19612315963739
C            4.54857531308489        1.73328033893933       -1.18629595385242
C            5.34059843449720        2.19441933386593       -2.22603518233858
C            5.19752040486046        1.61500610329323       -3.47626264748850
C            4.27914291052468        0.59832631495925       -3.69037528029601
C            3.48568119998656        0.12575505056916       -2.65159027637929
C            3.62657747443278        0.69801145855863       -1.40917828697270
C            0.63873912955746        2.72106944879546       -0.47559165974582
C            1.68343832328311        3.59003043994544       -0.80325653290927
C            1.43869930361139        4.93543865518323       -0.99176754722047
C            2.56604764381688        5.86879690259881       -1.31149366760296
C            0.13207992959998        5.43278962922063       -0.90439866200150
C           -0.93580310427214        4.59836703875441       -0.61605948502170
C           -0.68438108657235        3.26087462219176       -0.36746609790177
N           -1.55420729094079        2.21655727793844       -0.11666898828859
C           -2.86467329184882        2.21301174319362        0.31309250426830
C           -3.49315145585505        3.35260614231662        0.81893061791340
C           -4.81208101456432        3.32345075073994        1.21844168136502
C           -5.55814444521987        2.15184297597109        1.14130982479922
C           -7.02242894376328        2.05937565492403        1.53080035321596
C           -7.59871525862375        3.40784163055392        1.97023425771812
C           -7.82768866764671        1.56327062524764        0.32119377347283
C           -7.16910390715068        1.06858065983088        2.69471006234934
C           -4.89984895616205        1.00685566733084        0.70730547764221
C           -3.57195354629868        1.00093073078866        0.31769431499908
C           -2.93864529966231       -0.31534612332809       -0.11279930189769
C           -3.43658889685025       -1.40112005234275        0.82062694567627
C           -3.07475096766890       -1.63508071701677        2.12585093465172
C           -3.71478064401074       -2.65737714267539        2.81728511728616
C           -4.70833898574595       -3.41044513961138        2.21110653506528
C           -5.07810950938772       -3.17701789019671        0.89632996228575
C           -4.43254893383234       -2.17045286143150        0.19602895056006
C           -4.54812376058359       -1.73761501660016       -1.18829983495920
C           -5.33799568720409       -2.20294725239238       -2.22787222315042
C           -5.19232809582402       -1.62857442622472       -3.48009813032339
C           -4.27352187259838       -0.61272983679331       -3.69643903899668
C           -3.48220114812465       -0.13598132010821       -2.65789776766829
C           -3.62564452377331       -0.70320842719830       -1.41349744162577
H           -3.45106889578409       -5.32104889747715       -1.59760522048069
H           -2.28578881144980       -6.56373975948758       -2.08557877532710
H           -2.81840426519587       -6.46371233798730       -0.41006393358121
H            0.05050149584731       -6.48313639440973       -1.07075444981035
H            1.93679597825321       -4.99828668147601       -0.61613903356821
H           -2.67836943620447       -3.21691128209701       -0.93780378273321
H            2.92527066148019       -4.25737758262254        0.96069699129963
H            5.24204605713695       -4.22575724642598        1.62628934018446
H            7.49416768580251       -0.57761949944670        0.01862194462944
H            7.71182890273322       -2.24971594475755       -0.49015997255355
H            8.88082530476819       -1.49736765129420        0.59942068755841
H            8.20303038748032       -0.98742591667380        3.01906697978900
H            6.57294924560891       -1.38935651856166        3.56755360353429
H            6.81962211973240       -0.06582092753420        2.43202205801191
H            8.64563801628641       -3.28005860260831        2.24654809075956
H            7.51683123475429       -4.13811208452607        1.20333173571397
H            7.08053081496033       -3.77173883546003        2.88194536853434
H            5.43681619918494       -0.07107087960828        0.68680544211146
H            2.29955224258692        1.05325578595585        2.60156252195221
H            3.42715546517229        2.88063503001177        3.83530021735316
H            5.19042378743004        4.20572598027205        2.76435721294632
H            5.84603061572569        3.77284485962463        0.42343547714947
H            6.05217807141770        2.99151068097461       -2.06630547299600
H            5.80667417542787        1.96325067159871       -4.29781662440189
H            4.18011015786629        0.16684045432673       -4.67542899025189
H            2.77150662273366       -0.66758405833392       -2.81920367979126
H            2.67824723227498        3.21351973525847       -0.94592300604542
H            2.29059050099998        6.54812412442198       -2.11642847945166
H            2.80954948759526        6.47125392323108       -0.43549646301150
H            3.45514774356299        5.31512031734375       -1.60310859227024
H           -0.05030779686372        6.47923712591412       -1.09698665273674
H           -1.93749677243789        4.99624223289344       -0.63966519146991
H           -2.92885294581350        4.26154151859569        0.93843102024031
H           -5.24695051207692        4.23259802172704        1.59961318553179
H           -8.65176566903855        3.28944364450519        2.21705580353217
H           -7.08780419484341        3.78276088694753        2.85403453375630
H           -7.52065226035520        4.14388393918469        1.17338934630919
H           -7.71233441409921        2.25041554860788       -0.51453139894443
H           -7.49600219416678        0.57984171162492       -0.00021309919209
H           -8.88384219918813        1.50152168347624        0.57473171233662
H           -8.21169367217887        0.99937683252177        2.99759955793145
H           -6.82755325738049        0.07522519687793        2.41636661577254
H           -6.58256466270378        1.40217061431846        3.54827456094649
H           -5.44016315388128        0.07435833714515        0.67558421649520
H           -2.30685956658953       -1.04237227716255        2.60135782805130
H           -3.43705702588702       -2.86474509477885        3.84014509640546
H           -5.19819053286072       -4.19405490402716        2.77093542619739
H           -5.84896759141646       -3.77062084222258        0.42693463267683
H           -6.04987829596274       -2.99940952704669       -2.06639332692411
H           -5.79976570214158       -1.98013271302510       -4.30151635350689
H           -4.17247345275601       -0.18520903003639       -4.68300524240265
H           -2.76768897462343        0.65668459776017       -2.82724702053727

 projected vibrational frequencies (cm⁻¹)
eigval :       -0.00    -0.00    -0.00    -0.00     0.00     0.00
eigval :        9.44    12.62    14.18    27.40    27.69    30.09
eigval :       30.67    31.44    33.12    36.16    37.11    49.71
eigval :       55.57    58.67    60.33    69.93    75.97    77.46
eigval :       82.57    89.22    96.83   108.68   114.96   126.81
eigval :      128.08   137.45   140.64   148.08   150.09   154.68
eigval :      158.75   174.17   179.26   181.10   183.33   201.38
eigval :      204.99   218.41   219.20   220.34   238.66   239.80
eigval :      251.96   259.25   262.34   264.22   269.38   285.65
eigval :      292.08   294.10   306.98   311.61   314.91   318.56
eigval :      319.42   331.97   336.72   344.54   346.20   360.51
eigval :      365.31   370.33   386.04   389.13   397.06   399.13
eigval :      402.72   411.28   412.43   413.53   417.19   426.89
eigval :      427.57   431.51   439.12   441.38   457.20   463.03
eigval :      468.83   468.93   476.26   481.71   484.26   495.83
eigval :      503.72   514.93   516.81   522.28   535.12   535.35
eigval :      553.77   554.16   559.71   575.18   576.87   588.01
eigval :      589.75   591.05   591.67   602.12   604.11   610.30
eigval :      614.99   625.96   631.16   638.50   650.54   658.37
eigval :      667.10   670.15   674.04   676.08   683.30   686.57
eigval :      693.70   703.08   711.73   723.69   723.70   731.85
eigval :      743.13   749.39   755.99   756.12   774.35   775.18
eigval :      780.10   780.65   781.69   782.15   814.94   819.97
eigval :      820.58   827.33   828.11   835.19   868.44   873.64
eigval :      874.07   874.13   875.19   875.74   876.20   878.00
eigval :      882.23   885.80   889.64   895.00   897.15   906.16
eigval :      906.30   906.87   907.15   913.67   914.79   920.12
eigval :      923.44   923.46   924.55   924.55   926.63   949.86
eigval :      957.13   960.12   960.12   963.90   964.02   964.35
eigval :      964.55   967.32   996.29  1000.75  1001.04  1018.91
eigval :     1022.58  1026.31  1028.41  1033.84  1035.77  1035.91
eigval :     1036.31  1040.32  1073.12  1073.20  1074.17  1077.69
eigval :     1078.87  1092.72  1097.37  1114.83  1127.95  1140.25
eigval :     1140.37  1151.51  1152.00  1153.82  1163.70  1164.19
eigval :     1168.16  1172.97  1173.62  1176.92  1180.33  1190.27
eigval :     1196.30  1197.97  1200.11  1202.13  1205.63  1215.25
eigval :     1221.02  1222.89  1226.45  1226.45  1230.40  1235.28
eigval :     1235.48  1236.00  1245.59  1252.43  1253.56  1258.41
eigval :     1258.48  1274.50  1276.76  1280.19  1281.66  1282.56
eigval :     1290.49  1292.52  1301.04  1318.46  1328.82  1329.00
eigval :     1329.31  1331.20  1338.17  1363.12  1366.50  1367.24
eigval :     1373.69  1384.58  1384.83  1389.53  1399.26  1401.89
eigval :     1401.99  1403.16  1405.62  1406.55  1406.59  1416.05
eigval :     1416.58  1422.41  1423.20  1424.84  1424.85  1428.18
eigval :     1428.82  1430.68  1442.52  1457.64  1459.31  1459.46
eigval :     1461.95  1462.84  1474.04  1479.50  1481.04  1481.36
eigval :     1485.33  1490.97  1490.97  1492.10  1493.99  1494.00
eigval :     1496.79  1500.15  1502.01  1504.81  1505.87  1507.38
eigval :     1513.57  1513.58  1518.78  1518.80  1539.15  1539.74
eigval :     1542.15  1545.34  1552.75  1554.80  1566.46  1572.90
eigval :     1573.09  1582.56  1582.97  1587.22  1589.20  1593.33
eigval :     1599.55  1599.78  2991.74  2992.04  3020.28  3020.82
eigval :     3023.92  3023.92  3024.75  3024.75  3027.55  3027.56
eigval :     3031.09  3031.11  3031.68  3031.82  3036.26  3036.27
eigval :     3039.30  3039.42  3040.16  3040.39  3045.70  3045.71
eigval :     3049.57  3049.59  3070.66  3070.69  3071.69  3071.78
eigval :     3074.49  3074.55  3075.77  3075.94  3081.14  3081.28
eigval :     3083.08  3083.22  3083.96  3084.04  3090.60  3090.80
eigval :     3090.99  3092.05  3101.03  3101.06  3107.60  3107.60
eigval :     3113.22  3113.27  3130.51  3130.54  3181.45  3181.55

   temp. (K)  partition function   enthalpy   heat capacity  entropy
                                   cal/mol     cal/K/mol   cal/K/mol   J/K/mol
 298.15  VIB  0.185E+27            34491.351    215.944    213.381
         ROT  0.723E+08              888.752      2.981     38.943
         INT  0.134E+35            35380.103    218.925    252.324
         TR   0.250E+29             1481.254      4.968     46.156
         TOT                       36861.3568   223.8932   298.4797  1248.8392

       T/K    H(0)-H(T)+PV         H(T)/Eh          T*S/Eh         G(T)/Eh
   ------------------------------------------------------------------------
    298.15    0.587423E-01    0.101728E+01    0.141817E+00    0.875463E+00
   ------------------------------------------------------------------------

         :::::::::::::::::::::::::::::::::::::::::::::::::::::
         ::                  THERMODYNAMIC                  ::
         :::::::::::::::::::::::::::::::::::::::::::::::::::::
         :: total free energy        -172.940509358685 Eh   ::
         ::.................................................::
         :: total energy             -173.815972255633 Eh   ::
         :: zero point energy           0.958537939485 Eh   ::
         :: G(RRHO) w/o ZPVE           -0.083075042537 Eh   ::
         :: G(RRHO) contrib.            0.875462896948 Eh   ::
         :::::::::::::::::::::::::::::::::::::::::::::::::::::

           -------------------------------------------------
          | TOTAL ENERGY             -173.815972255633 Eh   |
          | TOTAL ENTHALPY           -172.798692004984 Eh   |
          | TOTAL FREE ENERGY        -172.940509358685 Eh   |
          | GRADIENT NORM               0.000165477197 Eh/α |
           -------------------------------------------------

 * finished run on 2025/09/08 at 16:26:10.982
