   * xtb version 6.7.1 (edcfbbe) compiled by 'albert@albert-system' on 2024-07-22

   ID    Z sym.   atoms
    1    6 C      1-13, 15-44, 46-68
    2    7 N      14, 45
    3    1 H      69-120

          program call               : xtb data2507/gas/pSFIAc2/pSFIAc2_gas_S0_crest.xyz --gfn 2 --ohess vtight --parallel 40 --molden --ceasefiles --namespace data2507/gas/pSFIAc2/pSFIAc2_gas_S0_finalOpt
          :  Hamiltonian                  GFN2-xTB          :
 * total energy  :  -173.8992401 Eh     change       -0.4062997E-08 Eh
 * total energy  :  -173.8992413 Eh     change       -0.1179204E-05 Eh
 * total energy  :  -173.8992423 Eh     change       -0.1000137E-05 Eh
 * total energy  :  -173.8992436 Eh     change       -0.1318828E-05 Eh
 * total energy  :  -173.8992441 Eh     change       -0.4355153E-06 Eh
 * total energy  :  -173.8992448 Eh     change       -0.7259640E-06 Eh
 * total energy  :  -173.8992456 Eh     change       -0.7762364E-06 Eh
 * total energy  :  -173.8992459 Eh     change       -0.3792613E-06 Eh
 * total energy  :  -173.8992462 Eh     change       -0.3118668E-06 Eh
 * total energy  :  -173.8992466 Eh     change       -0.3188078E-06 Eh
 * total energy  :  -173.8992478 Eh     change       -0.2766501E-06 Eh
 * total energy  :  -173.8992480 Eh     change       -0.2012347E-06 Eh
 * total energy  :  -173.8992482 Eh     change       -0.1802794E-06 Eh
 * total energy  :  -173.8992484 Eh     change       -0.1844540E-06 Eh
 * total energy  :  -173.8992486 Eh     change       -0.2188717E-06 Eh
 * total energy  :  -173.8992488 Eh     change       -0.2248206E-06 Eh
 * total energy  :  -173.8992490 Eh     change       -0.1967573E-06 Eh
 * total energy  :  -173.8992492 Eh     change       -0.1490315E-06 Eh
 * total energy  :  -173.8992492 Eh     change       -0.3772954E-08 Eh
   *** GEOMETRY OPTIMIZATION CONVERGED AFTER 22 ITERATIONS ***

 final structure:
================
120
 xtb: 6.7.1 (edcfbbe)
C           -2.60742206082929       -5.84248245292940       -1.20575285939019
C           -1.45573149397510       -4.93059290693736       -0.90445457861515
C           -0.15510719642844       -5.42172691864132       -0.82545574354922
C            0.91790404251008       -4.59479618174608       -0.55210323543192
C            0.67701106120577       -3.25050019043904       -0.30826537501587
C           -0.63767785006609       -2.72605351528051       -0.40157741787668
C           -1.68496681418205       -3.57758461808299       -0.71759620279687
C           -0.53975158797205       -1.29572434727897       -0.23590473777968
C           -1.43820953484344       -0.22826564328660       -0.15981899507489
C           -0.85114325828711        1.02691194558158       -0.14086306216608
C            0.53863655776558        1.29786151679993       -0.23729761725567
C            1.43696364441690        0.23051790395376       -0.15702878657530
C            0.84971836307617       -1.02457832039897       -0.13686610203030
N            1.55937129500499       -2.21186930096867       -0.08779656446316
C            2.88010183324897       -2.20266886632129        0.33340740677795
C            3.51381356455047       -3.33409569434489        0.83858912774313
C            4.83856450118885       -3.30104728177468        1.22782091426853
C            5.57888754465106       -2.13068250172153        1.13907254733687
C            7.04665316652709       -2.02935658752924        1.51716379406791
C            7.84281457563397       -1.54127968083638        0.29864759381636
C            7.19866705338838       -1.02926660393228        2.67213184533148
C            7.62995495322432       -3.37242863024786        1.96379743043861
C            4.91361870550739       -0.99209838001122        0.70102237842241
C            3.58183874264664       -0.99308351812248        0.32250691831946
C            2.94050224882724        0.32670523879650       -0.10742625077860
C            3.46274989911697        1.40805506667002        0.81248282951784
C            3.12920834780780        1.65310961300088        2.12425847341252
C            3.79594360510057        2.66847825523061        2.79850633796607
C            4.78651123241419        3.40711121050287        2.17108884278575
C            5.12739096038652        3.16402936453613        0.84934331029638
C            4.45709701751625        2.16265082209734        0.16835423569960
C            4.54094641486916        1.72226554616017       -1.21912804209694
C            5.31809451947249        2.17346102473319       -2.27217511373801
C            5.14015537200328        1.59823157474422       -3.52072008665876
C            4.20312697822411        0.59541529185026       -3.71557279427659
C            3.42671728177078        0.13146967045054       -2.66153660210749
C            3.59994578203159        0.70068585767142       -1.42036785196351
C            0.63680658786563        2.72786150966099       -0.40539772581706
C            1.68522923339917        3.57885192664346       -0.71979054341398
C            1.45682680830362        4.93146916813192       -0.90899366042050
C            2.60829251518786        5.84503112822803       -1.20580444826254
C            0.15577993595171        5.42278651082581       -0.83469549960635
C           -0.91804398578274        4.59645512596722       -0.56347425289921
C           -0.67806595402685        3.25243429786245       -0.31652360048108
N           -1.56103071573866        2.21424544428764       -0.09614048274872
C           -2.88341187507020        2.20581396220688        0.32006118039765
C           -3.51993194668361        3.33881320824002        0.81823137858020
C           -4.84631329808770        3.30668578680295        1.20194372908773
C           -5.58574489560531        2.13563463706206        1.11482413173534
C           -7.05511862508289        2.03518946009131        1.48684389259481
C           -7.64108392495674        3.37990219177918        1.92499078876830
C           -7.84556449640858        1.54140930873034        0.26688767817155
C           -7.21177581177316        1.04006491668133        2.64546895851637
C           -4.91795962003890        0.99567598933593        0.68432679028761
C           -3.58467481867362        0.99590959313884        0.31109344248828
C           -2.94156885316734       -0.32568551917964       -0.11031858244499
C           -3.46079216200075       -1.40176757281416        0.81760389101116
C           -3.12449124783069       -1.63764266117688        2.13037255404922
C           -3.78748318778768       -2.65044577497163        2.81207277869117
C           -4.77706057161907       -3.39563593240164        2.19084859387490
C           -5.12071143391232       -3.16171627079763        0.86817240078975
C           -4.45415706412126       -2.16285501876810        0.17985638227156
C           -4.54087493730677       -1.73171161318345       -1.21038794636725
C           -5.31880448119714       -2.19126486474420       -2.25922491938935
C           -5.14338477677328       -1.62437339311139       -3.51194419467361
C           -4.20802815391481       -0.62162646757944       -3.71497729631724
C           -3.43098296852089       -0.14917244966881       -2.66517238512349
C           -3.60173688619591       -0.70997545177450       -1.41985516754377
H           -3.31120902136597       -5.35948159132051       -1.88089950898596
H           -2.26520956270130       -6.77101647418513       -1.65641791448075
H           -3.14054023178998       -6.08469186315078       -0.28550503510899
H            0.02648419699227       -6.47067844419585       -1.01140965177389
H            1.91726369822873       -4.99722339206465       -0.58105218039881
H           -2.67887360657503       -3.19752051668365       -0.85537899660584
H            2.95701338956778       -4.24716478497924        0.96194691307935
H            5.27746201115009       -4.20930868801920        1.60677140561195
H            7.50516257516986       -0.56196017211698       -0.02930169630880
H            7.72432083967531       -2.23613680185691       -0.53026784512722
H            8.90055764861530       -1.47320660566046        0.54436354499604
H            8.24326558016231       -0.95255326088589        2.96663804947397
H            6.62011928369506       -1.35890738867349        3.53268664543103
H            6.85002200838080       -0.03967062191929        2.38885422844133
H            8.68402429275055       -3.24916212435465        2.20424289684641
H            7.54950508959212       -4.11466483950523        1.17295776225302
H            7.12428772510405       -3.74217563768139        2.85276991027299
H            5.45327620216612       -0.05979120080711        0.65614455820281
H            2.36293828255187        1.07221464918565        2.61649573619654
H            3.54204010963074        2.88244591042241        3.82627063059680
H            5.29736763733887        4.18614372765442        2.71831587297815
H            5.89570595682452        3.74673225782488        0.36246850712375
H            6.04549694245529        2.95881543224738       -2.12645572152585
H            5.73683696535329        1.93883535047476       -4.35447457802901
H            4.07695699788394        0.16759318433184       -4.69927841429061
H            2.69990597560064       -0.65338268032085       -2.81360649530683
H            2.67928580392329        3.19796889493956       -0.85409403027466
H            2.27216888170026        6.74969432825783       -1.70700425134085
H            3.10293473116051        6.13310237749485       -0.27721477309921
H            3.34266637809850        5.34408540505653       -1.83331002390036
H           -0.02491216798413        6.47150648484066       -1.02280852405394
H           -1.91720005446291        4.99903794448817       -0.59638700221000
H           -2.96425553045338        4.25268007969036        0.94050197068369
H           -5.28724315025080        4.21628095158087        1.57529881832824
H           -8.69610533041182        3.25710600134674        2.16148462736491
H           -7.13944523909278        3.75391477822062        2.81446107259407
H           -7.55766569290325        4.11863303557379        1.13118038608302
H           -7.72288564936004        2.23220540216842       -0.56481207442304
H           -7.50663634243984        0.56041616922520       -0.05469749616716
H           -8.90449996440380        1.47482147701429        0.50783911038128
H           -8.25758624371603        0.96439186011578        2.93592217057887
H           -6.86173904134313        0.04933329012602        2.36792856403503
H           -6.63690378995972        1.37354516875289        3.50700844977248
H           -5.45675455649631        0.06277020375021        0.64122089088159
H           -2.35885128462939       -1.05173995573636        2.61764917194109
H           -3.53132109762768       -2.85737105400530        3.84071973297776
H           -5.28478499763819       -4.17272594160766        2.74373837753161
H           -5.88813336927449       -3.74959465889132        0.38612572234281
H           -6.04479160116434       -2.97669420939747       -2.10706734751380
H           -5.74072615335466       -1.97155152952576       -4.34251268405852
H           -4.08369555065990       -0.20053998109970       -4.70181694881524
H           -2.70552280064144        0.63566558330675       -2.82361118306998

          :  Hamiltonian                  GFN2-xTB          :
         :: gradient norm              0.000033643233 Eh/a0 ::
         :: HOMO-LUMO gap              2.290685430788 eV    ::
         :: SCC energy              -177.099950430584 Eh    ::
         :: -> dispersion             -0.194946499624 Eh    ::
         :: repulsion energy           3.200701269783 Eh    ::

    * Orbital Energies and Occupations

         #    Occupation            Energy/Eh            Energy/eV
      -------------------------------------------------------------
         1        2.0000           -0.6710381             -18.2599
       ...           ...                  ...                  ...
       151        2.0000           -0.3954703             -10.7613
       152        2.0000           -0.3954183             -10.7599
       153        2.0000           -0.3941002             -10.7240
       154        2.0000           -0.3923855             -10.6774
       155        2.0000           -0.3921183             -10.6701
       156        2.0000           -0.3898774             -10.6091
       157        2.0000           -0.3874860             -10.5440
       158        2.0000           -0.3872998             -10.5390
       159        2.0000           -0.3766882             -10.2502
       160        2.0000           -0.3763718             -10.2416
       161        2.0000           -0.3617179              -9.8428
       162        2.0000           -0.3578596              -9.7379
       163        2.0000           -0.3358061              -9.1378 (HOMO)
       164                         -0.2516250              -6.8471 (LUMO)
       165                         -0.2500426              -6.8040
       166                         -0.2497314              -6.7955
       167                         -0.2282758              -6.2117
       168                         -0.2254085              -6.1337
       169                         -0.2226354              -6.0582
       170                         -0.2225119              -6.0549
       171                         -0.2188316              -5.9547
       172                         -0.2183649              -5.9420
       173                         -0.2139657              -5.8223
       174                         -0.2124256              -5.7804
       ...                                ...                  ...
       324                          0.7540995              20.5201
      -------------------------------------------------------------
                  HL-Gap            0.0841811 Eh            2.2907 eV

     #   Z          covCN         q      C6AA      α(0)
     1   6 C        3.758    -0.106    22.575     6.774
     2   6 C        2.965     0.006    27.889     8.662
     3   6 C        2.927    -0.044    29.081     8.844
     4   6 C        2.910    -0.054    29.345     8.883
     5   6 C        3.059     0.042    26.990     8.520
     6   6 C        3.069    -0.016    28.330     8.728
     7   6 C        2.922    -0.049    29.227     8.866
     8   6 C        3.057    -0.026    28.605     8.771
     9   6 C        2.964    -0.014    28.367     8.736
    10   6 C        3.109     0.032    27.138     8.535
    11   6 C        3.057    -0.026    28.605     8.771
    12   6 C        2.964    -0.014    28.368     8.736
    13   6 C        3.109     0.032    27.137     8.535
    14   7 N        2.801    -0.036    21.929     6.955
    15   6 C        2.923     0.055    26.776     8.486
    16   6 C        2.922    -0.058    29.430     8.896
    17   6 C        2.926    -0.043    29.058     8.840
    18   6 C        2.973    -0.000    28.035     8.685
    19   6 C        3.903     0.026    20.081     6.370
    20   6 C        3.762    -0.105    22.547     6.769
    21   6 C        3.761    -0.105    22.545     6.769
    22   6 C        3.761    -0.107    22.599     6.777
    23   6 C        2.936    -0.044    29.084     8.845
    24   6 C        2.991    -0.007    28.175     8.707
    25   6 C        3.949     0.017    20.222     6.390
    26   6 C        3.058     0.007    27.817     8.649
    27   6 C        2.914    -0.030    28.754     8.793
    28   6 C        2.923    -0.031    28.774     8.797
    29   6 C        2.921    -0.033    28.814     8.803
    30   6 C        2.914    -0.035    28.871     8.811
    31   6 C        3.034     0.003    27.928     8.668
    32   6 C        3.035     0.001    27.966     8.674
    33   6 C        2.914    -0.035    28.870     8.811
    34   6 C        2.921    -0.033    28.819     8.803
    35   6 C        2.923    -0.031    28.772     8.796
    36   6 C        2.914    -0.032    28.802     8.800
    37   6 C        3.060     0.006    27.830     8.651
    38   6 C        3.069    -0.016    28.330     8.728
    39   6 C        2.922    -0.049    29.226     8.865
    40   6 C        2.965     0.006    27.889     8.662
    41   6 C        3.758    -0.106    22.575     6.774
    42   6 C        2.927    -0.044    29.082     8.844
    43   6 C        2.910    -0.054    29.344     8.883
    44   6 C        3.059     0.042    26.991     8.520
    45   7 N        2.801    -0.036    21.928     6.955
    46   6 C        2.923     0.055    26.776     8.486
    47   6 C        2.922    -0.058    29.430     8.896
    48   6 C        2.926    -0.043    29.058     8.840
    49   6 C        2.973    -0.000    28.034     8.685
    50   6 C        3.903     0.026    20.081     6.370
    51   6 C        3.761    -0.107    22.599     6.777
    52   6 C        3.762    -0.105    22.547     6.769
    53   6 C        3.761    -0.105    22.545     6.769
    54   6 C        2.936    -0.044    29.084     8.845
    55   6 C        2.991    -0.007    28.175     8.707
    56   6 C        3.949     0.017    20.222     6.390
    57   6 C        3.058     0.007    27.818     8.649
    58   6 C        2.914    -0.030    28.755     8.793
    59   6 C        2.923    -0.031    28.774     8.797
    60   6 C        2.921    -0.033    28.815     8.803
    61   6 C        2.914    -0.035    28.872     8.811
    62   6 C        3.034     0.003    27.927     8.668
    63   6 C        3.035     0.001    27.965     8.674
    64   6 C        2.914    -0.035    28.870     8.811
    65   6 C        2.921    -0.033    28.820     8.804
    66   6 C        2.923    -0.031    28.772     8.796
    67   6 C        2.914    -0.032    28.802     8.800
    68   6 C        3.060     0.006    27.830     8.651
    69   1 H        0.925     0.040     2.445     2.445
    70   1 H        0.925     0.039     2.466     2.456
    71   1 H        0.924     0.043     2.413     2.429
    72   1 H        0.926     0.028     2.621     2.532
    73   1 H        0.926     0.032     2.565     2.504
    74   1 H        0.926     0.038     2.474     2.459
    75   1 H        0.926     0.039     2.457     2.451
    76   1 H        0.926     0.038     2.481     2.463
    77   1 H        0.925     0.036     2.505     2.475
    78   1 H        0.925     0.033     2.539     2.492
    79   1 H        0.925     0.037     2.491     2.468
    80   1 H        0.925     0.037     2.488     2.467
    81   1 H        0.925     0.033     2.540     2.492
    82   1 H        0.925     0.036     2.508     2.477
    83   1 H        0.925     0.036     2.502     2.474
    84   1 H        0.925     0.036     2.504     2.475
    85   1 H        0.925     0.036     2.507     2.476
    86   1 H        0.926     0.034     2.530     2.487
    87   1 H        0.926     0.026     2.638     2.540
    88   1 H        0.926     0.029     2.596     2.519
    89   1 H        0.926     0.028     2.610     2.527
    90   1 H        0.926     0.029     2.607     2.525
    91   1 H        0.926     0.029     2.605     2.524
    92   1 H        0.926     0.029     2.600     2.521
    93   1 H        0.926     0.030     2.587     2.515
    94   1 H        0.926     0.028     2.619     2.531
    95   1 H        0.926     0.038     2.474     2.460
    96   1 H        0.925     0.039     2.463     2.454
    97   1 H        0.924     0.043     2.412     2.429
    98   1 H        0.925     0.040     2.449     2.447
    99   1 H        0.926     0.028     2.620     2.531
   100   1 H        0.926     0.032     2.564     2.504
   101   1 H        0.926     0.039     2.456     2.451
   102   1 H        0.926     0.038     2.481     2.463
   103   1 H        0.925     0.036     2.502     2.474
   104   1 H        0.925     0.036     2.506     2.476
   105   1 H        0.925     0.036     2.504     2.475
   106   1 H        0.925     0.033     2.539     2.492
   107   1 H        0.925     0.036     2.505     2.475
   108   1 H        0.925     0.037     2.491     2.468
   109   1 H        0.925     0.037     2.488     2.466
   110   1 H        0.925     0.036     2.508     2.477
   111   1 H        0.925     0.033     2.540     2.492
   112   1 H        0.926     0.034     2.530     2.487
   113   1 H        0.926     0.026     2.639     2.540
   114   1 H        0.926     0.029     2.595     2.519
   115   1 H        0.926     0.028     2.611     2.527
   116   1 H        0.926     0.029     2.607     2.525
   117   1 H        0.926     0.029     2.604     2.523
   118   1 H        0.926     0.029     2.600     2.522
   119   1 H        0.926     0.030     2.587     2.515
   120   1 H        0.926     0.028     2.619     2.531

molecular dipole:
                 x           y           z       tot (Debye)
 q only:       -0.002       0.002       0.202
   full:       -0.003       0.003       0.196       0.498

 projected vibrational frequencies (cm⁻¹)
eigval :       -0.00    -0.00    -0.00     0.00     0.00     0.00
eigval :        8.96    13.37    14.10    25.40    25.58    29.74
eigval :       30.67    32.04    34.09    36.31    37.62    51.05
eigval :       56.30    58.73    60.69    71.28    77.30    78.51
eigval :       83.28    90.33    99.46   109.48   114.69   128.11
eigval :      129.28   139.87   142.05   149.82   152.20   155.13
eigval :      159.84   175.07   180.35   181.99   184.58   204.72
eigval :      205.50   218.86   219.81   223.39   242.10   246.78
eigval :      254.80   260.89   262.90   265.71   269.14   290.91
eigval :      296.32   296.47   311.65   312.28   315.38   318.83
eigval :      319.55   338.38   344.98   348.65   354.61   361.78
eigval :      367.79   373.21   388.09   391.84   400.29   400.94
eigval :      407.74   414.19   414.28   418.20   428.22   429.38
eigval :      431.45   434.54   440.84   442.04   462.42   462.76
eigval :      469.24   469.85   477.48   484.14   485.80   498.89
eigval :      504.38   518.26   523.66   527.35   538.33   538.55
eigval :      556.96   561.28   564.80   580.01   581.10   590.50
eigval :      590.92   591.67   599.81   605.52   609.57   620.17
eigval :      629.95   633.57   636.40   647.73   654.99   673.62
eigval :      673.71   676.16   684.63   685.12   690.48   696.06
eigval :      708.71   710.07   724.81   728.65   728.88   734.29
eigval :      746.76   751.91   758.24   759.69   778.04   779.04
eigval :      785.15   785.24   802.53   802.91   818.05   823.95
eigval :      824.94   838.80   860.61   861.04   870.74   877.92
eigval :      878.14   879.22   880.26   881.82   884.12   888.93
eigval :      892.85   896.27   899.13   905.54   905.91   909.12
eigval :      909.33   909.75   910.02   915.27   916.98   926.86
eigval :      926.90   927.69   927.86   930.34   937.09   952.85
eigval :      960.26   960.30   960.42   963.82   963.88   964.47
eigval :      965.34   972.19  1002.59  1006.22  1006.53  1021.00
eigval :     1027.66  1034.66  1035.34  1036.01  1036.31  1036.68
eigval :     1036.77  1042.47  1074.23  1074.29  1077.92  1078.95
eigval :     1081.74  1097.59  1110.18  1119.85  1139.37  1141.94
eigval :     1142.23  1154.38  1157.35  1159.03  1168.95  1172.56
eigval :     1177.11  1177.30  1179.77  1181.35  1183.02  1196.59
eigval :     1203.80  1204.96  1207.25  1208.09  1209.74  1219.98
eigval :     1228.01  1228.02  1229.32  1231.42  1236.02  1237.42
eigval :     1245.18  1247.25  1259.50  1259.93  1261.19  1261.59
eigval :     1279.32  1281.71  1282.40  1286.04  1288.92  1294.55
eigval :     1303.10  1304.52  1322.35  1323.65  1328.86  1328.87
eigval :     1333.49  1337.37  1366.94  1367.17  1369.49  1372.34
eigval :     1383.32  1396.86  1400.28  1401.46  1401.64  1405.62
eigval :     1405.69  1407.07  1407.09  1413.17  1414.15  1427.90
eigval :     1427.92  1429.35  1430.20  1430.28  1430.96  1433.54
eigval :     1436.20  1461.95  1462.01  1469.79  1469.88  1474.45
eigval :     1474.69  1485.19  1485.80  1489.48  1491.16  1491.87
eigval :     1491.87  1495.21  1495.22  1497.68  1498.41  1503.52
eigval :     1503.54  1508.21  1508.74  1513.95  1513.97  1519.84
eigval :     1519.88  1530.34  1559.14  1566.58  1568.84  1582.96
eigval :     1584.15  1585.94  1585.98  1591.70  1597.69  1597.77
eigval :     1601.10  1602.38  1603.03  1603.35  1606.33  1606.39
eigval :     1613.62  1613.72  2991.57  2992.60  3022.58  3022.60
eigval :     3023.15  3023.16  3026.69  3026.95  3026.96  3029.11
eigval :     3030.31  3030.42  3031.11  3031.14  3035.99  3036.02
eigval :     3036.97  3038.33  3039.02  3039.09  3044.61  3044.63
eigval :     3048.48  3048.53  3071.43  3071.44  3072.57  3072.60
eigval :     3074.79  3074.95  3075.54  3075.61  3077.10  3077.20
eigval :     3082.15  3082.31  3083.99  3084.20  3090.95  3091.14
eigval :     3092.22  3092.40  3105.74  3105.89  3107.14  3107.30
eigval :     3111.68  3111.70  3130.43  3130.75  3189.28  3189.31

   temp. (K)  partition function   enthalpy   heat capacity  entropy
                                   cal/mol     cal/K/mol   cal/K/mol   J/K/mol
 298.15  VIB  0.130E+27            34220.389    214.291    211.768
         ROT  0.144E+09              888.752      2.981     40.318
         INT  0.188E+35            35109.141    217.272    252.086
         TR   0.250E+29             1481.254      4.968     46.156
         TOT                       36590.3949   222.2398   298.2425  1247.8467

       T/K    H(0)-H(T)+PV         H(T)/Eh          T*S/Eh         G(T)/Eh
   ------------------------------------------------------------------------
    298.15    0.583105E-01    0.102157E+01    0.141705E+00    0.879870E+00
   ------------------------------------------------------------------------

         :::::::::::::::::::::::::::::::::::::::::::::::::::::
         ::                  THERMODYNAMIC                  ::
         :::::::::::::::::::::::::::::::::::::::::::::::::::::
         :: total free energy        -173.019379237274 Eh   ::
         ::.................................................::
         :: total energy             -173.899249160801 Eh   ::
         :: zero point energy           0.963264064815 Eh   ::
         :: G(RRHO) w/o ZPVE           -0.083394141288 Eh   ::
         :: G(RRHO) contrib.            0.879869923527 Eh   ::
         :::::::::::::::::::::::::::::::::::::::::::::::::::::

           -------------------------------------------------
          | TOTAL ENERGY             -173.899249160801 Eh   |
          | TOTAL ENTHALPY           -172.877674590075 Eh   |
          | TOTAL FREE ENERGY        -173.019379237274 Eh   |
          | GRADIENT NORM               0.000033650519 Eh/α |
          | HOMO-LUMO GAP               2.290685019500 eV   |
           -------------------------------------------------

 * finished run on 2025/09/08 at 16:25:39.531
