   * xtb version 6.7.1 (edcfbbe) compiled by 'albert@albert-system' on 2024-07-22

   ID    Z sym.   atoms
    1    6 C      1-13, 15-44, 46-68
    2    7 N      14, 45
    3    1 H      69-120

          program call               : xtb data2507/gas/pSFIAc2/pSFIAc2_gas_T1_crest.xyz --gfn 2 --spinpol --tblite --uhf 2 --ohess vtight --parallel 40 --molden --ceasefiles --namespace data2507/gas/pSFIAc2/pSFIAc2_gas_T1_finalOpt
 * total energy  :  -173.8159057 Eh     change       -0.4802274E-08 Eh
 * total energy  :  -173.8159350 Eh     change       -0.2928182E-04 Eh
 * total energy  :  -173.8159508 Eh     change       -0.1577307E-04 Eh
 * total energy  :  -173.8159528 Eh     change       -0.2083010E-05 Eh
 * total energy  :  -173.8159529 Eh     change       -0.5501425E-07 Eh
 * total energy  :  -173.8159541 Eh     change       -0.1234418E-05 Eh
 * total energy  :  -173.8159550 Eh     change       -0.8478519E-06 Eh
 * total energy  :  -173.8159566 Eh     change       -0.1613704E-05 Eh
 * total energy  :  -173.8159585 Eh     change       -0.1879277E-05 Eh
 * total energy  :  -173.8159599 Eh     change       -0.1409761E-05 Eh
 * total energy  :  -173.8159705 Eh     change       -0.2287508E-06 Eh
 * total energy  :  -173.8159708 Eh     change       -0.2765845E-06 Eh
 * total energy  :  -173.8159711 Eh     change       -0.2873748E-06 Eh
 * total energy  :  -173.8159715 Eh     change       -0.3746154E-06 Eh
 * total energy  :  -173.8159717 Eh     change       -0.2472040E-06 Eh
 * total energy  :  -173.8159719 Eh     change       -0.1668317E-06 Eh
 * total energy  :  -173.8159721 Eh     change       -0.1597213E-06 Eh
 * total energy  :  -173.8159722 Eh     change       -0.1733218E-06 Eh
 * total energy  :  -173.8159723 Eh     change       -0.7164556E-07 Eh
   *** GEOMETRY OPTIMIZATION CONVERGED AFTER 39 ITERATIONS ***

 final structure:
================
120
 xtb: 6.7.1 (edcfbbe)
C           -2.54317874342256       -5.88229487992393       -1.29425216901928
C           -1.41946332195844       -4.94364623432025       -0.97731417386773
C           -0.11080965180839       -5.43533156733683       -0.88908126314410
C            0.95352186023951       -4.59586532097575       -0.60220826962238
C            0.69636163953222       -3.25900901859201       -0.35617283610129
C           -0.62883428497078       -2.72475385320834       -0.46607686344980
C           -1.66982057798917       -3.59878504771652       -0.79181933753414
C           -0.53491172189504       -1.31834479017883       -0.29751530005401
C           -1.44398705586661       -0.22521161097972       -0.19419407816370
C           -0.85119099088384        1.02727046270418       -0.17601518745420
C            0.53504743549311        1.31765286975704       -0.29753868413146
C            1.44412477600026        0.22455248112578       -0.19441787663909
C            0.85135386192832       -1.02793377186278       -0.17655174625243
N            1.56187637882490       -2.21080991846031       -0.10681982884586
C            2.87112431187231       -2.20139162038142        0.32662688041564
C            3.50225007390819       -3.33734124622449        0.83725331053346
C            4.81921915746541       -3.30168834142338        1.24271474917894
C            5.56055676517805       -2.12702117747099        1.16670243907554
C            7.02219311015052       -2.02701119956380        1.56417475247133
C            7.83237191629371       -1.53201404437961        0.35742419495649
C            7.15794530008705       -1.03127338023129        2.72521802931426
C            7.60147398778590       -3.37137934106656        2.01210842726961
C            4.89971369436405       -0.98597123227147        0.72627541354343
C            3.57354736356892       -0.98650356849394        0.33084363676720
C            2.93665043711115        0.32565449036781       -0.10678137766641
C            3.43068699730078        1.41793455851656        0.82091149555404
C            3.06749673723133        1.65762380248472        2.12472091789266
C            3.70429684224136        2.68526636187940        2.81116404476964
C            4.69603654813951        3.43796352712227        2.20158474694355
C            5.06720674015241        3.19870966792819        0.88823137337474
C            4.42487691349400        2.18672147068880        0.19280632417681
C            4.54277606825123        1.74655098016574       -1.18903872485765
C            5.33256604417372        2.20782890484165       -2.23045701489016
C            5.19008947838108        1.62547613061687       -3.47936432752050
C            4.27434394726717        0.60583699567529       -3.69073549678567
C            3.48308663166609        0.13316586153560       -2.65031499723620
C            3.62354260590566        0.70823447789388       -1.40915854353108
C            0.62902591562764        2.72390906528685       -0.46661916985436
C            1.66987544415435        3.59744991776723       -0.79467283237060
C            1.41953307743468        4.94212311004943       -0.98036348243202
C            2.54118908433022        5.88116551809833       -1.30337597094827
C            0.11106993307507        5.43438102929081       -0.88962241357126
C           -0.95305233876073        4.59543037759784       -0.60092457584506
C           -0.69594569163485        3.25841689496640       -0.35545680300027
N           -1.56143370414907        2.21027022612297       -0.10578939655388
C           -2.87147762191442        2.20097659169335        0.32508208006174
C           -3.50319208033604        3.33666608195222        0.83560698680139
C           -4.82168420398314        3.30165895433229        1.23613373276608
C           -5.56395963788846        2.12791311891719        1.15511247650260
C           -7.02751887099894        2.02902271777821        1.54576164723541
C           -7.60868589619580        3.37446473655357        1.98801966412302
C           -7.83210551882678        1.53182241247750        0.33615523068128
C           -7.16912389516264        1.03562146065327        2.70807880406276
C           -4.90229194142437        0.98668476668225        0.71630929781040
C           -3.57464017106621        0.98651217948140        0.32588485138883
C           -2.93675245566517       -0.32594033866507       -0.10958636611841
C           -3.43423942084099       -1.41709055838830        0.81763847381095
C           -3.07556113634408       -1.65563431975629        2.12289051797834
C           -3.71590599041163       -2.68162495092369        2.80857933150122
C           -4.70677618993858       -3.43370450366515        2.19679333494831
C           -5.07329582181709       -3.19575764123977        0.88189694132719
C           -4.42730486881677       -2.18555707599400        0.18722223014778
C           -4.53992389582080       -1.74728691300799       -1.19564682173210
C           -5.32542718641847       -2.21023572062857       -2.23959501395843
C           -5.17739790397569       -1.63022309880186       -3.48894292656641
C           -4.26049768534987       -0.61117325307275       -3.69827468556125
C           -3.47352701384003       -0.13684904670769       -2.65534484082956
C           -3.61944991805741       -0.70964611646782       -1.41378305839396
H           -2.26365473727259       -6.56595991836531       -2.09410580238960
H           -2.78734034644281       -6.47982177911370       -0.41501050959359
H           -3.43315341997786       -5.33303905248949       -1.59160244663940
H            0.07602543342517       -6.48137042431288       -1.07963161052608
H            1.95693596874953       -4.98947750962615       -0.62484998119057
H           -2.66632827727964       -3.22698433644308       -0.93493838186231
H            2.94134756205099       -4.24847726198461        0.95601859150094
H            5.25620709077971       -4.20815457005276        1.62782327006048
H            7.49786456465625       -0.55152851542170        0.02999751664111
H            7.72538423520888       -2.22311992143960       -0.47614417522019
H            8.88665852246097       -1.46410206772976        0.61708312220965
H            8.19828023745236       -0.95749568134401        3.03470220692556
H            6.56687460792657       -1.36351606518530        3.57617875543757
H            6.81504970266127       -0.04009112316862        2.44085524957515
H            8.65254277709043       -3.24765110743787        2.26469092331696
H            7.53121499436162       -4.11078754887742        1.21766123529668
H            7.08684724584154       -3.74502176355294        2.89429765469430
H            5.43644209935623       -0.05142629811492        0.69432302622096
H            2.30110871078510        1.06510461970536        2.60287384665523
H            3.42556055139352        2.89705832955822        3.83283981767210
H            5.18342296125079        4.22582030715791        2.75756933169223
H            5.83677266147014        3.79198176655291        0.41626450612326
H            6.04215046714878        3.00714036667886       -2.07299121855567
H            5.79770751491406        1.97364657719699       -4.30208761460702
H            4.17576223858410        0.17203570547587       -4.67481354379771
H            2.77102145763183       -0.66253709344781       -2.81570989716213
H            2.66584139783139        3.22485960615060       -0.93979810735239
H            2.27565250810443        6.52815710979701       -2.13799551532744
H            2.75370253742325        6.51747295686905       -0.44356191380564
H            3.44492910028781        5.33166994146488       -1.55489617862836
H           -0.07541892741362        6.48052721083989       -1.07991185311621
H           -1.95633282978240        4.98945523200471       -0.62172699656873
H           -2.94170608434699        4.24697773249813        0.95797958293621
H           -5.25922220752777        4.20789278018632        1.62116860088209
H           -8.66115449227603        3.25161572222105        2.23514377039641
H           -7.09881256326898        3.74966821585165        2.87229435780827
H           -7.53373648168122        4.11228043249680        1.19251294055398
H           -7.71892556741118        2.21990644678296       -0.49909204790425
H           -7.49819466947450        0.54945898823623        0.01382355536934
H           -8.88796951011278        1.46719630693209        0.59018483296807
H           -8.21158265531766        0.95930269575698        3.00971363827572
H           -6.82082833623979        0.04490176470760        2.42866448908373
H           -6.58567970821208        1.37174196825465        3.56276732413940
H           -5.43969280575481        0.05263088924402        0.68148934302358
H           -2.31001676888422       -1.06346387793386        2.60281740177387
H           -3.44068761703141       -2.89255132809982        3.83138621524586
H           -5.19708831019998       -4.22011893088810        2.75226308065558
H           -5.84208529971451       -3.78862102454684        0.40818255368113
H           -6.03578140720463       -3.00917721982986       -2.08374722532951
H           -5.78140056685485       -1.97988622249719       -4.31369482180388
H           -4.15746214322683       -0.17933130076755       -4.68275449102639
H           -2.76036038884111        0.65819602602368       -2.81915469210704

 projected vibrational frequencies (cm⁻¹)
eigval :       -0.00    -0.00    -0.00     0.00     0.00     0.00
eigval :        9.42    12.36    14.14    27.53    28.18    30.66
eigval :       31.18    31.51    33.12    36.22    37.19    49.79
eigval :       55.47    58.54    60.19    70.00    76.14    77.57
eigval :       82.41    89.24    96.90   108.72   114.90   126.76
eigval :      128.11   137.47   140.78   148.06   150.15   154.78
eigval :      158.78   173.88   179.19   181.03   183.51   201.32
eigval :      205.23   218.13   219.15   220.67   238.67   239.81
eigval :      252.05   259.26   262.32   264.28   269.25   285.60
eigval :      292.09   294.00   307.04   311.55   314.95   318.55
eigval :      319.43   331.93   336.72   344.65   346.19   360.57
eigval :      365.33   370.33   386.06   389.15   397.14   399.18
eigval :      402.84   411.37   412.55   413.60   417.20   426.89
eigval :      427.52   431.56   438.74   441.32   457.20   462.97
eigval :      468.73   469.00   476.35   481.80   484.52   495.85
eigval :      503.72   514.83   516.84   522.15   535.13   535.36
eigval :      553.69   554.13   559.71   575.21   576.79   587.99
eigval :      589.76   591.12   591.62   602.13   604.19   610.56
eigval :      614.95   625.94   631.32   638.50   650.72   658.43
eigval :      667.42   670.14   674.13   675.69   683.68   686.57
eigval :      693.67   703.16   711.91   723.65   723.73   731.92
eigval :      742.52   749.65   755.88   755.94   774.34   775.27
eigval :      780.03   780.61   781.70   782.04   815.12   819.87
eigval :      820.55   827.27   828.03   835.19   868.46   873.74
eigval :      874.02   874.16   875.16   875.69   876.19   878.09
eigval :      882.25   885.42   889.70   894.94   897.25   906.19
eigval :      906.33   906.89   907.16   913.66   914.86   920.44
eigval :      923.46   923.48   924.57   924.58   926.64   949.91
eigval :      957.17   960.18   960.19   963.94   964.08   964.45
eigval :      964.63   967.39   996.18  1000.80  1001.09  1018.99
eigval :     1022.63  1026.19  1028.24  1033.85  1035.82  1035.98
eigval :     1036.42  1040.32  1073.06  1073.18  1073.28  1077.62
eigval :     1078.71  1092.79  1097.73  1114.78  1128.10  1140.25
eigval :     1140.41  1151.50  1151.67  1153.77  1163.29  1164.15
eigval :     1168.13  1172.98  1173.68  1176.91  1180.26  1190.22
eigval :     1196.35  1197.95  1200.35  1202.17  1205.84  1215.22
eigval :     1220.58  1222.90  1226.51  1226.53  1230.11  1235.11
eigval :     1235.55  1236.02  1245.55  1252.45  1253.57  1258.47
eigval :     1258.55  1274.53  1276.39  1280.12  1281.67  1282.30
eigval :     1290.48  1292.57  1301.06  1318.68  1328.75  1328.96
eigval :     1329.42  1331.28  1337.80  1363.06  1366.46  1367.17
eigval :     1373.71  1384.45  1384.65  1389.76  1399.08  1401.97
eigval :     1402.15  1403.27  1405.64  1406.65  1406.70  1416.19
eigval :     1416.54  1422.67  1423.72  1424.86  1425.08  1428.31
eigval :     1429.19  1430.82  1442.16  1457.48  1459.40  1459.70
eigval :     1461.71  1463.18  1473.59  1479.49  1480.73  1481.08
eigval :     1484.79  1490.75  1490.91  1493.00  1494.06  1494.18
eigval :     1496.92  1500.22  1501.99  1504.79  1505.92  1507.25
eigval :     1513.30  1513.32  1518.91  1518.97  1539.17  1539.80
eigval :     1542.14  1545.16  1552.68  1555.55  1567.11  1572.95
eigval :     1573.08  1582.31  1583.26  1587.23  1589.27  1592.46
eigval :     1599.58  1599.72  2991.63  2993.46  3018.24  3020.33
eigval :     3024.07  3024.07  3024.89  3024.92  3027.66  3027.71
eigval :     3031.19  3031.25  3031.96  3032.10  3036.31  3036.34
eigval :     3039.69  3039.80  3040.28  3041.54  3046.07  3046.09
eigval :     3049.82  3049.87  3070.78  3070.80  3071.79  3071.92
eigval :     3074.53  3074.59  3075.85  3076.01  3081.27  3081.41
eigval :     3083.17  3083.30  3083.98  3084.21  3090.77  3090.94
eigval :     3091.13  3092.15  3100.89  3101.13  3107.79  3107.81
eigval :     3113.30  3113.36  3130.34  3130.52  3180.85  3181.26

   temp. (K)  partition function   enthalpy   heat capacity  entropy
                                   cal/mol     cal/K/mol   cal/K/mol   J/K/mol
 298.15  VIB  0.179E+27            34488.558    215.965    213.374
         ROT  0.723E+08              888.752      2.981     38.943
         INT  0.129E+35            35377.310    218.946    252.317
         TR   0.250E+29             1481.254      4.968     46.156
         TOT                       36858.5638   223.9145   298.4734  1248.8126

       T/K    H(0)-H(T)+PV         H(T)/Eh          T*S/Eh         G(T)/Eh
   ------------------------------------------------------------------------
    298.15    0.587379E-01    0.101729E+01    0.141814E+00    0.875480E+00
   ------------------------------------------------------------------------

         :::::::::::::::::::::::::::::::::::::::::::::::::::::
         ::                  THERMODYNAMIC                  ::
         :::::::::::::::::::::::::::::::::::::::::::::::::::::
         :: total free energy        -172.940492783921 Eh   ::
         ::.................................................::
         :: total energy             -173.815972402321 Eh   ::
         :: zero point energy           0.958556090829 Eh   ::
         :: G(RRHO) w/o ZPVE           -0.083076472429 Eh   ::
         :: G(RRHO) contrib.            0.875479618401 Eh   ::
         :::::::::::::::::::::::::::::::::::::::::::::::::::::

           -------------------------------------------------
          | TOTAL ENERGY             -173.815972402321 Eh   |
          | TOTAL ENTHALPY           -172.798678451252 Eh   |
          | TOTAL FREE ENERGY        -172.940492783921 Eh   |
          | GRADIENT NORM               0.000094286444 Eh/α |
           -------------------------------------------------

 * finished run on 2025/09/08 at 16:47:11.545
