   * xtb version 6.7.1 (edcfbbe) compiled by 'albert@albert-system' on 2024-07-22

   ID    Z sym.   atoms
    1    6 C      1-13, 15-44, 46-68
    2    7 N      14, 45
    3    1 H      69-120

          program call               : xtb data2507/gas/pSFIAc2/pSFIAc2.xyz --gfn 2 --ohess vtight --parallel 40 --molden --ceasefiles --namespace data2507/gas/pSFIAc2/pSFIAc2_gas_S0_preOpt
          :  Hamiltonian                  GFN2-xTB          :
 * total energy  :  -173.8566235 Eh     change       -0.2118526E-08 Eh
 * total energy  :  -173.8797088 Eh     change       -0.2308525E-01 Eh
 * total energy  :  -173.8888713 Eh     change       -0.9162581E-02 Eh
 * total energy  :  -173.8926243 Eh     change       -0.3753000E-02 Eh
 * total energy  :  -173.8948315 Eh     change       -0.2207174E-02 Eh
 * total energy  :  -173.8958736 Eh     change       -0.1042067E-02 Eh
 * total energy  :  -173.8963917 Eh     change       -0.5181558E-03 Eh
 * total energy  :  -173.8967269 Eh     change       -0.3351538E-03 Eh
 * total energy  :  -173.8969922 Eh     change       -0.2652936E-03 Eh
 * total energy  :  -173.8972018 Eh     change       -0.2096546E-03 Eh
 * total energy  :  -173.8985602 Eh     change       -0.7450119E-06 Eh
 * total energy  :  -173.8985610 Eh     change       -0.8164149E-06 Eh
 * total energy  :  -173.8985616 Eh     change       -0.6139090E-06 Eh
 * total energy  :  -173.8985442 Eh     change        0.1745382E-04 Eh
 * total energy  :  -173.8985616 Eh     change       -0.1738395E-04 Eh
 * total energy  :  -173.8985626 Eh     change       -0.1058073E-05 Eh
 * total energy  :  -173.8985628 Eh     change       -0.2140476E-06 Eh
 * total energy  :  -173.8985631 Eh     change       -0.3000243E-06 Eh
 * total energy  :  -173.8985632 Eh     change       -0.7833071E-07 Eh
   *** GEOMETRY OPTIMIZATION CONVERGED AFTER 122 ITERATIONS ***

 final structure:
================
120
 xtb: 6.7.1 (edcfbbe)
C           -2.13263206494672       -6.03321118668752       -1.32127521545798
C           -1.05367922480582       -5.03557314912451       -1.02169778279579
C            0.28272084419397       -5.41852244021193       -0.95193205442392
C            1.28656785005807       -4.50583902614160       -0.68674024737787
C            0.93823184853105       -3.18589183775506       -0.44109923619441
C           -0.41582616731970       -2.77067411036069       -0.52562522256266
C           -1.39150184935280       -3.70497519579595       -0.83508409326314
C           -0.43434015308824       -1.33715487092046       -0.35882927487244
C           -1.41628328722723       -0.34660979286025       -0.27451748398912
C           -0.93272706682857        0.95196479072828       -0.25846702943350
C            0.42936773449633        1.33578951427420       -0.36477024453493
C            1.41231340525250        0.34519701749715       -0.29164747519072
C            0.92897844460453       -0.95333440590217       -0.26891374138459
N            1.73379962472553       -2.07845823007322       -0.22531156775530
C            3.05178354263249       -1.96047498467302        0.18809302633344
C            3.77801457707779       -3.03889199014638        0.68988977165007
C            5.09468311930882       -2.89381596794427        1.06895303172395
C            5.74133655476525       -1.66541024340441        0.97501371857934
C            7.20434913516010       -1.54124545433293        1.36565186000138
C            7.74976731451964       -0.12489322240277        1.16320523167627
C            7.35783775389844       -1.90859946887571        2.84822935750459
C            8.03506026491144       -2.50173343533274        0.50316304238888
C            4.98610986910862       -0.58588112535381        0.54442095935221
C            3.65295453875099       -0.70006756440471        0.17508096034460
C            2.90343079525419        0.56374899389005       -0.24915452306247
C            3.33665763881248        1.68412793675041        0.67044510784117
C            2.98603523998583        1.90051181253908        1.98282408247305
C            3.56447901706237        2.96996273325865        2.65502065609464
C            4.48680339461495        3.79033421092951        2.02507077254720
C            4.84454882784001        3.57644176013074        0.70278075229792
C            4.26084683220027        2.52106982740743        0.02375897761028
C            4.37632453045616        2.09081877144967       -1.36454422179442
C            5.10808769145525        2.60775756616449       -2.41986271158342
C            4.97380885764467        2.02178822583230       -3.66889871901075
C            4.12374233265225        0.94389314105721       -3.86197066063653
C            3.39377616213217        0.41431031612928       -2.80564021255930
C            3.52379931974658        0.99394395645637       -1.56397125008164
C            0.40870419758746        2.76915105895864       -0.53225283130688
C            1.38094005959350        3.70328193663593       -0.85458663113617
C            1.04065352850886        5.03284523002889       -1.04061457382876
C            2.11237128520526        6.03576815558040       -1.34765030228501
C           -0.29542907634759        5.41580420902286       -0.95526542125015
C           -1.29567063908549        4.50391004891757       -0.67613767915130
C           -0.94410532626454        3.18420868882128       -0.43237557252829
N           -1.73714716154081        2.07700570703594       -0.20648433017902
C           -3.04947985950711        1.95926260078027        0.22475222121331
C           -3.76911896686856        3.03806665093461        0.73507771948668
C           -5.08000683238757        2.89269655256691        1.13366108024828
C           -5.72670635388865        1.66341977467227        1.05252818918437
C           -7.18365435108986        1.53887668134037        1.46515683263463
C           -7.31912947202902        1.92404052118351        2.94497390620795
C           -8.02884031420299        2.48587532056945        0.60181113523107
C           -7.72663041909959        0.11819128085453        1.28813456264842
C           -4.97753543912505        0.58394021490510        0.61131170629622
C           -3.65030331976690        0.69859967758131        0.22141738662661
C           -2.90695719819295       -0.56439753550827       -0.21588708024413
C           -3.33172079802434       -1.68876775420082        0.70258860679306
C           -2.96726739673356       -1.91251302227128        2.00994635663729
C           -3.53977549292832       -2.98480895255167        2.68273607499627
C           -4.47022619746716       -3.80047834368348        2.05865080088441
C           -4.84197940588997       -3.57915627033732        0.74141085111593
C           -4.26382572801777       -2.52132058948887        0.06143084517098
C           -4.39284408879719       -2.08454135919985       -1.32356604207383
C           -5.13542851581432       -2.59604813192787       -2.37394972523089
C           -5.01316937395237       -2.00424732895558       -3.62145435319342
C           -4.16424984523092       -0.92604256988778       -3.81794092110047
C           -3.42326899815115       -0.40208882056684       -2.76650426029905
C           -3.54140863087139       -0.98753437937668       -1.52635311419022
H           -2.76723000421729       -5.67611872911445       -2.13103787433665
H           -1.71090884418797       -6.99477727069299       -1.60319759419398
H           -2.76331386836260       -6.17553134352060       -0.44335634279054
H            0.54887328897036       -6.44927543223089       -1.13792014402879
H            2.31523389611157       -4.82535744141835       -0.72263890443647
H           -2.41429488654708       -3.40865730414361       -0.96718281692303
H            3.29727035830025       -3.99364470249179        0.81708776999933
H            5.61569190452135       -3.75981358810090        1.44787686568707
H            7.22378320984664        0.59209176011636        1.78982026999070
H            7.66382053124308        0.18156229149857        0.12300709494123
H            8.80292340719288       -0.10031375440418        1.43629187228042
H            8.39781175574818       -1.81285987395780        3.15324849335869
H            7.03998078726803       -2.93031708253010        3.03699010085567
H            6.75417557917571       -1.24419610606113        3.46307460150208
H            9.08972951872466       -2.41780209871759        0.75697422596955
H            7.91263440433477       -2.26007443288501       -0.55064227105940
H            7.73039508397831       -3.53362016646646        0.65384358713706
H            5.43852401211200        0.38921382995247        0.49349308515506
H            2.27306031189361        1.25668509715820        2.47697168931977
H            3.29471111669896        3.16249150891572        3.68305915876660
H            4.92969236033468        4.61097320692456        2.57079080877288
H            5.55893511278787        4.22250182272493        0.21393113661227
H            5.76737991254698        3.45123734450166       -2.27528739092205
H            5.53601146250535        2.41284539491673       -4.50453393211926
H            4.02977854266749        0.50868749140712       -4.84606755684738
H            2.73502445182288       -0.42871503016848       -2.95646202461194
H            2.40186383543253        3.40570960909104       -0.99766731887171
H            2.62889395366823        6.32047325377895       -0.43010700436394
H            2.84962659104974        5.61190572377301       -2.02677224894885
H            1.69311240492882        6.93335145323223       -1.79592749938481
H           -0.56335022907075        6.44616169943835       -1.14087188729295
H           -2.32484586370540        4.82293152943753       -0.70060255014745
H           -3.28740981230652        3.99348981566395        0.85330484802792
H           -5.59632034288991        3.75919906569496        1.51782648663266
H           -8.35416551884015        1.82525918725743        3.26542585324850
H           -6.70268156339665        1.27145488311980        3.55977025734374
H           -7.00600865846979        2.95015949604145        3.11679655104042
H           -7.72356995474570        3.52016484967333        0.73388914391211
H           -7.92124031739744        2.22998324078030       -0.45025681313410
H           -9.07954888480870        2.40365286045752        0.87207270930553
H           -8.77450979012912        0.09233986059744        1.58071592504746
H           -7.65864081560541       -0.19951116650267        0.25000304869612
H           -7.18599716632964       -0.58956355761832        1.91280429075831
H           -5.43014339197319       -0.39141827547499        0.56806265974338
H           -2.24814251120884       -1.27222872751566        2.49973683203231
H           -3.25896657209812       -3.18329548085502        3.70666118965052
H           -4.90835826915551       -4.62333720974368        2.60490273260790
H           -5.56272395384533       -4.22147312349415        0.25690487955446
H           -5.79363205195669       -3.43988872819527       -2.22685364209545
H           -5.58393349565946       -2.39093562997962       -4.45332179779942
H           -4.07974863694698       -0.48625386191398       -4.80086685755968
H           -2.76527050801318        0.44105071790037       -2.91997847381126

          :  Hamiltonian                  GFN2-xTB          :
         :: gradient norm              0.000042041991 Eh/a0 ::
         :: HOMO-LUMO gap              2.288283567236 eV    ::
         :: SCC energy              -177.098973098272 Eh    ::
         :: -> dispersion             -0.194395349087 Eh    ::
         :: repulsion energy           3.200409870456 Eh    ::

    * Orbital Energies and Occupations

         #    Occupation            Energy/Eh            Energy/eV
      -------------------------------------------------------------
         1        2.0000           -0.6709423             -18.2573
       ...           ...                  ...                  ...
       151        2.0000           -0.3952019             -10.7540
       152        2.0000           -0.3948959             -10.7457
       153        2.0000           -0.3942502             -10.7281
       154        2.0000           -0.3930772             -10.6962
       155        2.0000           -0.3926137             -10.6836
       156        2.0000           -0.3897104             -10.6046
       157        2.0000           -0.3871008             -10.5335
       158        2.0000           -0.3870088             -10.5310
       159        2.0000           -0.3765699             -10.2470
       160        2.0000           -0.3761705             -10.2361
       161        2.0000           -0.3616581              -9.8412
       162        2.0000           -0.3575720              -9.7300
       163        2.0000           -0.3355868              -9.1318 (HOMO)
       164                         -0.2514940              -6.8435 (LUMO)
       165                         -0.2498551              -6.7989
       166                         -0.2495511              -6.7906
       167                         -0.2285442              -6.2190
       168                         -0.2257479              -6.1429
       169                         -0.2223467              -6.0504
       170                         -0.2221859              -6.0460
       171                         -0.2179745              -5.9314
       172                         -0.2175780              -5.9206
       173                         -0.2139742              -5.8225
       174                         -0.2126507              -5.7865
       ...                                ...                  ...
       324                          0.7543188              20.5261
      -------------------------------------------------------------
                  HL-Gap            0.0840929 Eh            2.2883 eV

     #   Z          covCN         q      C6AA      α(0)
     1   6 C        3.758    -0.106    22.576     6.774
     2   6 C        2.965     0.006    27.890     8.662
     3   6 C        2.927    -0.043    29.080     8.843
     4   6 C        2.910    -0.054    29.347     8.883
     5   6 C        3.059     0.043    26.989     8.519
     6   6 C        3.069    -0.016    28.328     8.727
     7   6 C        2.922    -0.050    29.230     8.866
     8   6 C        3.057    -0.026    28.605     8.771
     9   6 C        2.964    -0.014    28.366     8.736
    10   6 C        3.109     0.032    27.136     8.535
    11   6 C        3.057    -0.026    28.605     8.771
    12   6 C        2.964    -0.014    28.367     8.736
    13   6 C        3.109     0.032    27.136     8.535
    14   7 N        2.801    -0.036    21.931     6.955
    15   6 C        2.923     0.055    26.777     8.486
    16   6 C        2.921    -0.057    29.416     8.894
    17   6 C        2.928    -0.039    28.958     8.825
    18   6 C        2.972    -0.000    28.036     8.685
    19   6 C        3.903     0.026    20.082     6.370
    20   6 C        3.761    -0.106    22.575     6.773
    21   6 C        3.762    -0.105    22.557     6.770
    22   6 C        3.762    -0.106    22.561     6.771
    23   6 C        2.933    -0.048    29.196     8.861
    24   6 C        2.991    -0.007    28.187     8.709
    25   6 C        3.949     0.017    20.226     6.391
    26   6 C        3.058     0.007    27.818     8.649
    27   6 C        2.914    -0.030    28.759     8.794
    28   6 C        2.923    -0.031    28.781     8.798
    29   6 C        2.921    -0.033    28.815     8.803
    30   6 C        2.914    -0.035    28.861     8.809
    31   6 C        3.034     0.003    27.913     8.666
    32   6 C        3.035     0.002    27.956     8.673
    33   6 C        2.914    -0.035    28.870     8.811
    34   6 C        2.921    -0.033    28.825     8.804
    35   6 C        2.923    -0.031    28.777     8.797
    36   6 C        2.914    -0.032    28.805     8.801
    37   6 C        3.060     0.006    27.831     8.651
    38   6 C        3.069    -0.016    28.330     8.727
    39   6 C        2.922    -0.049    29.227     8.866
    40   6 C        2.965     0.006    27.889     8.662
    41   6 C        3.758    -0.106    22.575     6.774
    42   6 C        2.927    -0.044    29.082     8.844
    43   6 C        2.910    -0.054    29.345     8.883
    44   6 C        3.059     0.043    26.989     8.520
    45   7 N        2.801    -0.036    21.931     6.955
    46   6 C        2.923     0.055    26.777     8.486
    47   6 C        2.921    -0.057    29.416     8.894
    48   6 C        2.928    -0.039    28.958     8.825
    49   6 C        2.972    -0.000    28.035     8.685
    50   6 C        3.903     0.026    20.082     6.370
    51   6 C        3.762    -0.105    22.558     6.771
    52   6 C        3.762    -0.105    22.561     6.771
    53   6 C        3.761    -0.106    22.575     6.773
    54   6 C        2.933    -0.048    29.196     8.862
    55   6 C        2.991    -0.007    28.186     8.709
    56   6 C        3.949     0.017    20.227     6.391
    57   6 C        3.058     0.007    27.817     8.649
    58   6 C        2.914    -0.030    28.758     8.794
    59   6 C        2.923    -0.031    28.781     8.798
    60   6 C        2.921    -0.033    28.818     8.803
    61   6 C        2.914    -0.035    28.866     8.810
    62   6 C        3.034     0.004    27.912     8.666
    63   6 C        3.035     0.002    27.955     8.672
    64   6 C        2.914    -0.035    28.866     8.810
    65   6 C        2.921    -0.033    28.825     8.804
    66   6 C        2.923    -0.031    28.778     8.797
    67   6 C        2.914    -0.032    28.806     8.801
    68   6 C        3.060     0.006    27.832     8.651
    69   1 H        0.925     0.041     2.433     2.439
    70   1 H        0.925     0.038     2.473     2.459
    71   1 H        0.924     0.042     2.418     2.432
    72   1 H        0.926     0.027     2.625     2.533
    73   1 H        0.926     0.031     2.566     2.505
    74   1 H        0.926     0.038     2.470     2.458
    75   1 H        0.926     0.039     2.456     2.451
    76   1 H        0.926     0.031     2.572     2.508
    77   1 H        0.925     0.035     2.517     2.481
    78   1 H        0.925     0.035     2.514     2.479
    79   1 H        0.925     0.036     2.499     2.472
    80   1 H        0.925     0.037     2.488     2.467
    81   1 H        0.925     0.036     2.499     2.472
    82   1 H        0.925     0.034     2.535     2.490
    83   1 H        0.925     0.037     2.493     2.469
    84   1 H        0.925     0.034     2.534     2.489
    85   1 H        0.925     0.036     2.497     2.471
    86   1 H        0.926     0.041     2.434     2.440
    87   1 H        0.926     0.026     2.642     2.542
    88   1 H        0.926     0.029     2.601     2.522
    89   1 H        0.926     0.028     2.613     2.528
    90   1 H        0.926     0.029     2.600     2.522
    91   1 H        0.926     0.029     2.600     2.521
    92   1 H        0.926     0.029     2.603     2.523
    93   1 H        0.926     0.030     2.589     2.516
    94   1 H        0.926     0.028     2.620     2.531
    95   1 H        0.926     0.038     2.472     2.459
    96   1 H        0.924     0.043     2.413     2.429
    97   1 H        0.925     0.040     2.445     2.445
    98   1 H        0.925     0.039     2.466     2.456
    99   1 H        0.926     0.027     2.622     2.532
   100   1 H        0.926     0.031     2.566     2.505
   101   1 H        0.926     0.039     2.456     2.451
   102   1 H        0.926     0.031     2.571     2.508
   103   1 H        0.925     0.037     2.489     2.467
   104   1 H        0.925     0.034     2.535     2.490
   105   1 H        0.925     0.036     2.499     2.472
   106   1 H        0.925     0.036     2.497     2.471
   107   1 H        0.925     0.034     2.534     2.489
   108   1 H        0.925     0.037     2.492     2.469
   109   1 H        0.925     0.036     2.499     2.472
   110   1 H        0.925     0.035     2.514     2.479
   111   1 H        0.925     0.035     2.517     2.481
   112   1 H        0.926     0.041     2.434     2.439
   113   1 H        0.926     0.026     2.641     2.541
   114   1 H        0.926     0.029     2.600     2.522
   115   1 H        0.926     0.028     2.614     2.528
   116   1 H        0.926     0.029     2.602     2.523
   117   1 H        0.926     0.029     2.596     2.520
   118   1 H        0.926     0.029     2.603     2.523
   119   1 H        0.926     0.030     2.590     2.517
   120   1 H        0.926     0.028     2.620     2.531

molecular dipole:
                 x           y           z       tot (Debye)
 q only:       -0.002       0.005       0.202
   full:       -0.004       0.009       0.201       0.511

 projected vibrational frequencies (cm⁻¹)
eigval :       -0.00    -0.00    -0.00    -0.00     0.00     0.00
eigval :        8.95    13.39    14.11    25.64    26.45    27.27
eigval :       27.74    32.21    33.41    36.43    36.46    50.33
eigval :       56.80    58.30    60.51    69.08    76.28    78.97
eigval :       83.12    89.23   101.49   110.88   114.18   127.87
eigval :      131.50   139.85   141.83   152.23   157.30   158.96
eigval :      164.14   171.94   186.06   189.02   191.73   206.55
eigval :      209.19   220.12   223.45   229.92   238.17   243.67
eigval :      244.36   252.45   257.22   259.84   264.98   290.55
eigval :      294.09   295.27   309.67   311.10   321.13   324.81
eigval :      325.90   341.08   348.50   352.03   356.35   365.54
eigval :      369.63   373.94   387.73   390.57   398.72   399.50
eigval :      407.28   414.29   414.34   417.34   427.13   429.24
eigval :      431.28   433.97   439.83   440.31   461.37   462.40
eigval :      467.75   468.40   478.30   484.85   485.78   498.86
eigval :      504.40   518.60   523.74   527.58   538.37   538.62
eigval :      557.02   561.83   564.62   580.73   581.31   590.34
eigval :      590.94   591.73   599.86   606.20   609.96   620.66
eigval :      630.33   634.10   636.41   647.92   655.10   673.86
eigval :      674.46   676.32   684.45   685.24   690.54   695.90
eigval :      708.75   710.12   724.82   728.47   728.72   734.23
eigval :      746.73   752.02   758.26   759.77   778.07   779.09
eigval :      785.28   785.37   802.82   803.36   817.97   826.64
eigval :      827.40   838.83   860.92   861.66   870.51   874.66
eigval :      876.26   877.97   878.13   879.62   880.21   887.31
eigval :      892.85   896.05   899.58   905.17   905.91   909.18
eigval :      909.40   909.82   910.23   919.05   920.22   926.99
eigval :      927.02   927.81   927.97   930.46   937.74   953.19
eigval :      959.90   960.85   960.87   963.21   963.23   964.37
eigval :      965.76   972.14  1002.24  1006.17  1006.49  1020.90
eigval :     1027.68  1034.59  1035.58  1035.61  1035.73  1036.41
eigval :     1036.70  1043.20  1074.15  1074.21  1077.87  1078.92
eigval :     1081.71  1096.69  1110.24  1119.58  1139.14  1141.99
eigval :     1142.26  1153.26  1155.60  1158.80  1166.55  1172.13
eigval :     1177.03  1177.17  1179.78  1181.25  1183.14  1196.52
eigval :     1202.72  1202.85  1206.27  1207.55  1208.29  1218.70
eigval :     1228.38  1228.43  1228.72  1231.33  1233.43  1235.21
eigval :     1244.02  1246.82  1260.69  1261.08  1262.15  1263.94
eigval :     1279.39  1281.70  1282.50  1287.04  1290.03  1294.60
eigval :     1301.31  1302.93  1327.73  1327.96  1329.35  1329.82
eigval :     1331.18  1335.69  1366.88  1367.04  1370.09  1372.94
eigval :     1383.76  1397.23  1400.22  1401.99  1402.07  1405.14
eigval :     1405.16  1405.61  1405.68  1413.31  1414.35  1427.89
eigval :     1427.91  1429.02  1429.07  1429.10  1430.97  1432.83
eigval :     1435.23  1461.96  1462.01  1469.86  1469.93  1474.80
eigval :     1475.69  1483.22  1485.27  1490.13  1491.71  1492.00
eigval :     1492.01  1494.93  1494.93  1496.65  1497.23  1504.18
eigval :     1504.22  1508.81  1509.63  1514.88  1514.92  1521.62
eigval :     1521.70  1529.69  1558.86  1564.88  1567.68  1583.45
eigval :     1584.71  1585.94  1586.00  1592.12  1597.71  1597.79
eigval :     1601.76  1602.88  1603.29  1603.64  1606.30  1606.38
eigval :     1613.63  1613.66  2992.63  2997.58  3018.58  3021.05
eigval :     3021.06  3023.66  3023.67  3025.94  3025.95  3026.78
eigval :     3030.11  3030.24  3031.33  3031.35  3034.46  3034.50
eigval :     3036.77  3036.81  3038.32  3041.37  3046.22  3046.32
eigval :     3049.75  3049.81  3071.32  3071.35  3072.26  3072.29
eigval :     3074.30  3074.68  3075.53  3075.64  3076.84  3076.95
eigval :     3082.11  3082.28  3084.06  3084.23  3086.78  3086.86
eigval :     3090.57  3090.75  3091.84  3092.05  3105.73  3105.93
eigval :     3129.59  3129.62  3137.08  3137.29  3189.09  3189.17

   temp. (K)  partition function   enthalpy   heat capacity  entropy
                                   cal/mol     cal/K/mol   cal/K/mol   J/K/mol
 298.15  VIB  0.142E+27            34201.739    214.148    211.530
         ROT  0.145E+09              888.752      2.981     40.329
         INT  0.207E+35            35090.491    217.129    251.859
         TR   0.250E+29             1481.254      4.968     46.156
         TOT                       36571.7448   222.0970   298.0154  1246.8966

       T/K    H(0)-H(T)+PV         H(T)/Eh          T*S/Eh         G(T)/Eh
   ------------------------------------------------------------------------
    298.15    0.582808E-01    0.102157E+01    0.141597E+00    0.879971E+00
   ------------------------------------------------------------------------

         :::::::::::::::::::::::::::::::::::::::::::::::::::::
         ::                  THERMODYNAMIC                  ::
         :::::::::::::::::::::::::::::::::::::::::::::::::::::
         :: total free energy        -173.018592106990 Eh   ::
         ::.................................................::
         :: total energy             -173.898563227785 Eh   ::
         :: zero point energy           0.963287086649 Eh   ::
         :: G(RRHO) w/o ZPVE           -0.083315965854 Eh   ::
         :: G(RRHO) contrib.            0.879971120795 Eh   ::
         :::::::::::::::::::::::::::::::::::::::::::::::::::::

           -------------------------------------------------
          | TOTAL ENERGY             -173.898563227785 Eh   |
          | TOTAL ENTHALPY           -172.876995356066 Eh   |
          | TOTAL FREE ENERGY        -173.018592106990 Eh   |
          | GRADIENT NORM               0.000042040200 Eh/α |
          | HOMO-LUMO GAP               2.288283313539 eV   |
           -------------------------------------------------

 * finished run on 2025/09/08 at 16:06:24.312
