   * xtb version 6.7.1 (edcfbbe) compiled by 'albert@albert-system' on 2024-07-22

   ID    Z sym.   atoms
    1    6 C      1-9, 11-23, 25-29, 31, 32, 34-38, 40-49, 51-59
    2    7 N      10, 24, 30, 33, 39, 50
    3    1 H      60-93

          program call               : xtb data2507/toluene/ACID–BPPZ/ACID–BPPZ_toluene_S0_crest.xyz --gfn 2 --gbsa toluene --ohess vtight --parallel 40 --molden --ceasefiles --namespace data2507/toluene/ACID–BPPZ/ACID–BPPZ_toluene_S0_finalOpt
      * Solvation model:               GBSA
        Solvent                        toluene
        Solvent mass                       9.2140E+01 g/mol
          :  Hamiltonian                  GFN2-xTB          :
 * total energy  :  -148.5662141 Eh     change       -0.6828145E-08 Eh
 * total energy  :  -148.5662587 Eh     change       -0.4457028E-04 Eh
 * total energy  :  -148.5662731 Eh     change       -0.1444830E-04 Eh
 * total energy  :  -148.5662798 Eh     change       -0.6711724E-05 Eh
 * total energy  :  -148.5662876 Eh     change       -0.7773611E-05 Eh
 * total energy  :  -148.5662933 Eh     change       -0.5745752E-05 Eh
 * total energy  :  -148.5662975 Eh     change       -0.4130691E-05 Eh
 * total energy  :  -148.5663000 Eh     change       -0.2529080E-05 Eh
 * total energy  :  -148.5663018 Eh     change       -0.1769695E-05 Eh
 * total energy  :  -148.5663035 Eh     change       -0.1766769E-05 Eh
 * total energy  :  -148.5663488 Eh     change       -0.4002925E-06 Eh
 * total energy  :  -148.5663492 Eh     change       -0.4250261E-06 Eh
 * total energy  :  -148.5663497 Eh     change       -0.5181984E-06 Eh
 * total energy  :  -148.5663504 Eh     change       -0.6702799E-06 Eh
 * total energy  :  -148.5663512 Eh     change       -0.8233368E-06 Eh
 * total energy  :  -148.5663519 Eh     change       -0.7247879E-06 Eh
 * total energy  :  -148.5663524 Eh     change       -0.4921455E-06 Eh
 * total energy  :  -148.5663529 Eh     change       -0.4483594E-06 Eh
 * total energy  :  -148.5663529 Eh     change       -0.8378379E-08 Eh
   *** GEOMETRY OPTIMIZATION CONVERGED AFTER 44 ITERATIONS ***

 final structure:
================
93
 xtb: 6.7.1 (edcfbbe)
C           -5.76715764709360       -3.21523684881776       -0.06444360520962
C           -4.83736438451160       -2.58399593559497       -1.11868720261944
C           -5.59344150743432       -2.39289351411533       -2.44754779564529
C           -3.66853057593458       -3.51987293270702       -1.36076528890091
C           -3.91214597982104       -4.80340936802333       -1.83139771128893
C           -2.89076723554135       -5.69330932535580       -2.10749273630021
C           -1.57970759089753       -5.28935403630312       -1.92935495984869
C           -1.30934753589663       -4.02096702211856       -1.46094992396390
C           -2.34158808268387       -3.12923419685256       -1.14888943468053
N           -2.04143611240080       -1.86526108171711       -0.66478090104079
C           -0.68480366821640       -1.49228051445832       -0.49300651217870
C           -0.09970041088595       -0.56833323822411       -1.36380017370226
C            1.21643095286749       -0.22026656282258       -1.18985246113590
C            1.98016322503803       -0.77970931926720       -0.15867608350562
C            1.40369142100818       -1.71546666807887        0.72582571014207
C            0.05863056595786       -2.04671693661899        0.53344243492283
C            2.20458282516731       -2.29799695697297        1.79198565332202
C            1.68984347464230       -3.23902903671542        2.69273179363258
C            2.46927592692715       -3.77757958987311        3.69291003214503
C            3.80003331481369       -3.39674443839364        3.83316135787579
C            4.33421497362495       -2.47657679185738        2.96213842388609
C            3.55542506521048       -1.92081977196974        1.94167121285212
C            4.14213128953548       -0.96042293440906        1.03718354070671
N            5.41715921392931       -0.61744312557625        1.19358049361299
C            5.94195765456666        0.26614562082182        0.34920743180281
C            7.32424290846719        0.65057868529087        0.50212333570716
C            8.12930701645110        0.11756390557584        1.51557914465792
C            9.44194804008699        0.52193884796714        1.61069359308644
C            9.91251039480049        1.45388579250055        0.68330091262557
N            9.17527086300345        1.96614003784551       -0.27416574672951
C            7.90100336627183        1.58583856510580       -0.38178503401071
C            7.10082779028123        2.16332519895314       -1.44829701782379
N            7.68096129639038        3.04535599291524       -2.26417376106004
C            6.97228503175963        3.57567467654413       -3.23336176162557
C            5.62997821954561        3.27170943664815       -3.46914872833503
C            5.01404968594123        2.36443237613955       -2.63669732011161
C            5.75044391652555        1.78582507235034       -1.59649233109371
C            5.16213015571002        0.82867411513708       -0.69079261539879
N            3.88666115753948        0.48783056583004       -0.84765126367099
C            3.36155349757165       -0.39662723548939       -0.00397742255902
C           -3.03162853229710       -0.92597990693143       -0.38278942799993
C           -2.66488195865469        0.29867006853336        0.17174948397754
C           -3.63460763393309        1.25190753027936        0.43129016024843
C           -3.60035836873430        2.57654309279453        0.98388090745448
C           -2.57587198725765        3.39975089776894        1.43256534146991
C           -2.89317451347184        4.66449421069680        1.88735957914669
C           -4.21165215737402        5.11612881328833        1.88443203291398
C           -5.24819707137491        4.31606753403776        1.44244402715646
C           -4.93985028989599        3.03493071879727        1.00567312371310
N           -5.76772257486302        2.05658248954001        0.49511602307283
C           -7.15964286395934        2.14194859315486        0.34491437096869
C           -7.96070583649964        2.52910534498737        1.41562298256452
C           -9.33232574634216        2.61059694077552        1.25774008207730
C           -9.91646605258754        2.29612033807281        0.04145958172799
C           -9.12118375345006        1.90543525362981       -1.02366617268925
C           -7.74797332979218        1.83257062290662       -0.87869083418071
C           -4.98489317255221        0.97209863233260        0.14133149457354
C           -5.35485512797834       -0.26784750575406       -0.34849908682942
C           -4.38722880153968       -1.22544053523267       -0.61342722437983
H           -5.23040246765353       -3.34269117691395        0.87418397059450
H           -6.63288811275096       -2.58500706609204        0.11899550786895
H           -6.11951810730581       -4.18896255489552       -0.39284724253623
H           -6.46501385207276       -1.75920529796500       -2.31012761607238
H           -4.93902601649280       -1.92681057327252       -3.18247065769902
H           -5.92774069994173       -3.34734331651914       -2.84415733077221
H           -4.93006499742475       -5.12439079335098       -1.99308986730928
H           -3.11671822307135       -6.68537953241147       -2.46864452476241
H           -0.76284538715029       -5.95831300087604       -2.15810579227797
H           -0.28191569131210       -3.71344722336484       -1.34169135412921
H           -0.68869737428216       -0.13993812899102       -2.16058699662259
H            1.69643041479976        0.48681718974002       -1.84730943967703
H           -0.43489071425885       -2.75092268841654        1.18352484560941
H            0.66405619672728       -3.55985610095301        2.61338073765761
H            2.04177802991445       -4.50055697809122        4.37176881142110
H            4.40702827865424       -3.82125277794753        4.61847445022179
H            5.36240679316635       -2.16091756256954        3.04109060866521
H            7.69860489159019       -0.59872232662358        2.19834256330000
H           10.09393036585756        0.13390596599910        2.37736161948493
H           10.93656184043663        1.80338148975349        0.71616571854186
H            7.50078874229998        4.28301211251374       -3.85964779777501
H            5.09641208044485        3.73862100047880       -4.28200077384032
H            3.97935324300244        2.08365846309486       -2.75981525972862
H           -1.63427659337666        0.50973440489722        0.40811412120215
H           -1.55208361119574        3.05507874157951        1.41944399854990
H           -2.11082149511593        5.31934886720799        2.24275807370618
H           -4.42757899954938        6.11629906693021        2.23170639807467
H           -6.26349857218872        4.68312386417003        1.42786109255276
H           -7.50406619758083        2.75216873349405        2.36857123753423
H           -9.94867698299680        2.91258874308590        2.09186635475767
H          -10.98812640012956        2.35598565209773       -0.07620486584265
H           -9.57135661745892        1.66424695059461       -1.97558485785127
H           -7.12183374110629        1.55111871312848       -1.71236519230983
H           -6.39800626695529       -0.48697499975077       -0.51106711746262

          :  Hamiltonian                  GFN2-xTB          :
         :: gradient norm              0.000066110122 Eh/a0 ::
         :: HOMO-LUMO gap              0.883961334891 eV    ::
         :: SCC energy              -151.246847729055 Eh    ::
         :: -> dispersion             -0.139191054914 Eh    ::
         :: -> Gsolv                  -0.062097263865 Eh    ::
         :: repulsion energy           2.680494867138 Eh    ::

    * Orbital Energies and Occupations

         #    Occupation            Energy/Eh            Energy/eV
      -------------------------------------------------------------
         1        2.0000           -0.6887994             -18.7432
       ...           ...                  ...                  ...
       126        2.0000           -0.4111413             -11.1877
       127        2.0000           -0.4088213             -11.1246
       128        2.0000           -0.4071383             -11.0788
       129        2.0000           -0.4046794             -11.0119
       130        2.0000           -0.4001089             -10.8875
       131        2.0000           -0.3971588             -10.8072
       132        2.0000           -0.3945580             -10.7365
       133        2.0000           -0.3799502             -10.3390
       134        2.0000           -0.3751668             -10.2088
       135        2.0000           -0.3741938             -10.1823
       136        2.0000           -0.3668164              -9.9816
       137        2.0000           -0.3650912              -9.9346
       138        2.0000           -0.3402311              -9.2582 (HOMO)
       139                         -0.3077461              -8.3742 (LUMO)
       140                         -0.2913960              -7.9293
       141                         -0.2795173              -7.6061
       142                         -0.2628008              -7.1512
       143                         -0.2594586              -7.0602
       144                         -0.2448069              -6.6615
       145                         -0.2363091              -6.4303
       146                         -0.2322283              -6.3193
       147                         -0.2300749              -6.2607
       148                         -0.2234916              -6.0815
       149                         -0.2194279              -5.9709
       ...                                ...                  ...
       270                          0.7485001              20.3677
      -------------------------------------------------------------
                  HL-Gap            0.0324850 Eh            0.8840 eV

     #   Z          covCN         q      C6AA      α(0)
     1   6 C        3.761    -0.104    22.528     6.766
     2   6 C        3.909     0.022    20.149     6.380
     3   6 C        3.761    -0.103    22.523     6.765
     4   6 C        2.979    -0.014    28.362     8.736
     5   6 C        2.928    -0.038    28.939     8.822
     6   6 C        2.917    -0.047    29.165     8.856
     7   6 C        2.919    -0.035    28.872     8.811
     8   6 C        2.924    -0.061    29.518     8.910
     9   6 C        2.925     0.058    26.695     8.473
    10   7 N        2.754    -0.072    22.643     7.067
    11   6 C        2.925     0.074    26.352     8.418
    12   6 C        2.918    -0.038    28.943     8.822
    13   6 C        2.923    -0.027    28.686     8.783
    14   6 C        2.987    -0.009    28.228     8.715
    15   6 C        2.976     0.007    27.860     8.658
    16   6 C        2.925    -0.045    29.113     8.848
    17   6 C        2.976     0.006    27.878     8.661
    18   6 C        2.922    -0.032    28.802     8.801
    19   6 C        2.918    -0.025    28.618     8.772
    20   6 C        2.916    -0.026    28.663     8.779
    21   6 C        2.923    -0.027    28.673     8.781
    22   6 C        2.987    -0.005    28.147     8.703
    23   6 C        2.960     0.083    26.156     8.389
    24   7 N        1.849    -0.258    27.567     7.782
    25   6 C        2.958     0.078    26.260     8.405
    26   6 C        2.982    -0.017    28.418     8.744
    27   6 C        2.928    -0.012    28.323     8.728
    28   6 C        2.912    -0.039    28.963     8.825
    29   6 C        2.905     0.063    26.577     8.453
    30   7 N        1.841    -0.222    26.678     7.655
    31   6 C        2.970     0.084    26.120     8.383
    32   6 C        2.970     0.084    26.118     8.383
    33   7 N        1.841    -0.222    26.676     7.654
    34   6 C        2.905     0.064    26.575     8.453
    35   6 C        2.912    -0.039    28.964     8.825
    36   6 C        2.928    -0.012    28.323     8.728
    37   6 C        2.982    -0.017    28.419     8.745
    38   6 C        2.959     0.078    26.250     8.404
    39   7 N        1.849    -0.259    27.595     7.785
    40   6 C        2.961     0.083    26.155     8.388
    41   6 C        2.925     0.049    26.905     8.506
    42   6 C        2.918    -0.065    29.607     8.923
    43   6 C        3.065    -0.021    28.467     8.749
    44   6 C        3.069    -0.020    28.431     8.743
    45   6 C        2.912    -0.036    28.885     8.813
    46   6 C        2.919    -0.044    29.093     8.845
    47   6 C        2.923    -0.036    28.894     8.815
    48   6 C        2.909    -0.053    29.309     8.877
    49   6 C        3.077     0.048    26.852     8.496
    50   7 N        2.801    -0.048    22.166     6.993
    51   6 C        2.912     0.065    26.555     8.450
    52   6 C        2.922    -0.043    29.065     8.841
    53   6 C        2.920    -0.028    28.710     8.787
    54   6 C        2.919    -0.034    28.843     8.807
    55   6 C        2.919    -0.029    28.715     8.787
    56   6 C        2.922    -0.043    29.073     8.842
    57   6 C        3.075     0.037    27.087     8.533
    58   6 C        2.917    -0.058    29.438     8.897
    59   6 C        2.981    -0.014    28.345     8.733
    60   1 H        0.925     0.030     2.580     2.512
    61   1 H        0.925     0.041     2.436     2.441
    62   1 H        0.925     0.042     2.416     2.431
    63   1 H        0.925     0.042     2.426     2.435
    64   1 H        0.925     0.030     2.580     2.512
    65   1 H        0.925     0.042     2.423     2.434
    66   1 H        0.926     0.032     2.552     2.498
    67   1 H        0.926     0.025     2.658     2.550
    68   1 H        0.926     0.025     2.654     2.548
    69   1 H        0.926     0.022     2.696     2.568
    70   1 H        0.926     0.050     2.314     2.379
    71   1 H        0.926     0.059     2.207     2.323
    72   1 H        0.926     0.053     2.279     2.361
    73   1 H        0.926     0.048     2.345     2.395
    74   1 H        0.926     0.047     2.356     2.400
    75   1 H        0.926     0.046     2.364     2.404
    76   1 H        0.926     0.054     2.269     2.355
    77   1 H        0.926     0.061     2.185     2.311
    78   1 H        0.926     0.055     2.254     2.348
    79   1 H        0.925     0.051     2.305     2.374
    80   1 H        0.925     0.051     2.304     2.374
    81   1 H        0.926     0.055     2.255     2.348
    82   1 H        0.926     0.061     2.187     2.313
    83   1 H        0.926     0.026     2.651     2.546
    84   1 H        0.926     0.025     2.655     2.548
    85   1 H        0.926     0.025     2.663     2.552
    86   1 H        0.926     0.028     2.613     2.528
    87   1 H        0.926     0.029     2.603     2.523
    88   1 H        0.926     0.040     2.452     2.449
    89   1 H        0.926     0.038     2.469     2.457
    90   1 H        0.926     0.038     2.479     2.462
    91   1 H        0.926     0.039     2.461     2.453
    92   1 H        0.926     0.041     2.431     2.438
    93   1 H        0.926     0.036     2.496     2.471

molecular dipole:
                 x           y           z       tot (Debye)
 q only:       -1.754      -0.773       0.423
   full:       -2.154      -1.015       0.579       6.228

 projected vibrational frequencies (cm⁻¹)
eigval :       -0.00    -0.00    -0.00    -0.00     0.00     0.00
eigval :        5.17     8.85    12.90    18.76    28.08    31.10
eigval :       41.48    51.22    56.17    66.74    70.28    73.95
eigval :       75.66    83.41    90.72    98.41   100.68   109.63
eigval :      121.33   123.65   129.57   142.26   169.87   182.56
eigval :      187.08   188.59   195.08   200.08   204.09   219.12
eigval :      224.95   234.37   239.48   262.43   267.90   276.01
eigval :      291.48   295.90   313.54   318.54   337.63   341.76
eigval :      362.67   364.61   378.58   380.72   381.55   384.83
eigval :      388.61   398.00   401.15   401.40   406.56   420.59
eigval :      424.15   435.01   440.95   444.13   450.00   461.98
eigval :      477.16   491.26   494.32   507.42   521.54   524.89
eigval :      528.04   530.22   537.06   540.12   546.31   560.51
eigval :      573.90   586.72   592.00   594.04   596.37   603.01
eigval :      605.71   628.62   636.15   638.42   644.47   651.69
eigval :      657.37   667.55   675.08   677.04   688.84   695.58
eigval :      698.06   702.11   704.35   707.19   710.60   718.72
eigval :      733.93   759.87   761.13   765.08   769.77   772.82
eigval :      774.45   780.32   792.98   799.65   809.22   813.49
eigval :      825.84   834.65   842.11   862.85   867.00   867.12
eigval :      873.07   879.26   885.35   888.54   898.27   906.44
eigval :      911.76   912.45   913.08   915.30   916.30   918.25
eigval :      918.68   921.73   924.36   927.95   928.58   928.78
eigval :      933.44   934.80   935.80   947.83   956.63   992.02
eigval :      996.68  1014.55  1017.80  1031.40  1035.71  1061.93
eigval :     1070.16  1077.56  1080.84  1088.27  1088.58  1094.09
eigval :     1095.51  1101.07  1114.85  1118.96  1124.94  1133.59
eigval :     1137.88  1147.49  1155.13  1155.91  1156.43  1172.39
eigval :     1174.37  1176.70  1177.44  1178.33  1184.50  1189.27
eigval :     1192.11  1213.07  1215.08  1223.88  1235.34  1237.75
eigval :     1244.93  1253.55  1261.10  1262.12  1268.87  1273.59
eigval :     1278.05  1282.81  1285.58  1290.30  1299.55  1304.34
eigval :     1315.79  1318.31  1318.60  1321.84  1328.12  1334.09
eigval :     1336.47  1353.04  1355.41  1361.30  1372.01  1378.55
eigval :     1389.58  1398.57  1400.14  1407.52  1417.70  1423.80
eigval :     1424.87  1427.95  1432.94  1438.57  1442.52  1445.47
eigval :     1453.59  1458.25  1460.07  1479.42  1482.25  1483.57
eigval :     1486.25  1488.81  1489.56  1491.87  1498.51  1502.25
eigval :     1504.25  1532.89  1548.11  1549.75  1562.00  1562.67
eigval :     1563.08  1574.88  1578.42  1579.19  1581.52  1587.23
eigval :     1593.03  1593.39  1596.21  1600.80  1618.55  3020.39
eigval :     3023.77  3039.18  3041.18  3048.39  3052.47  3053.32
eigval :     3053.53  3068.44  3071.44  3073.23  3074.14  3076.14
eigval :     3078.75  3080.35  3081.46  3086.39  3089.64  3090.02
eigval :     3090.10  3090.15  3091.17  3092.10  3092.92  3095.88
eigval :     3098.59  3099.50  3101.43  3102.60  3104.31  3106.22
eigval :     3110.06  3111.65  3115.99

   temp. (K)  partition function   enthalpy   heat capacity  entropy
                                   cal/mol     cal/K/mol   cal/K/mol   J/K/mol
 298.15  VIB  0.314E+21            26703.082    171.817    165.826
         ROT  0.169E+09              888.752      2.981     40.624
         INT  0.530E+29            27591.834    174.798    206.450
         TR   0.201E+29             1481.254      4.968     45.723
         TOT                       29073.0881   179.7661   252.1728  1055.0909

       T/K    H(0)-H(T)+PV         H(T)/Eh          T*S/Eh         G(T)/Eh
   ------------------------------------------------------------------------
    298.15    0.463309E-01    0.753821E+00    0.119815E+00    0.634005E+00
   ------------------------------------------------------------------------

         :::::::::::::::::::::::::::::::::::::::::::::::::::::
         ::                  THERMODYNAMIC                  ::
         :::::::::::::::::::::::::::::::::::::::::::::::::::::
         :: total free energy        -147.932347524659 Eh   ::
         ::.................................................::
         :: total energy             -148.566352858362 Eh   ::
         :: zero point energy           0.707489843234 Eh   ::
         :: G(RRHO) w/o ZPVE           -0.073484509530 Eh   ::
         :: G(RRHO) contrib.            0.634005333704 Eh   ::
         :::::::::::::::::::::::::::::::::::::::::::::::::::::

           -------------------------------------------------
          | TOTAL ENERGY             -148.566352858362 Eh   |
          | TOTAL ENTHALPY           -147.812532100158 Eh   |
          | TOTAL FREE ENERGY        -147.932347524659 Eh   |
          | GRADIENT NORM               0.000066114248 Eh/α |
          | HOMO-LUMO GAP               0.883962066733 eV   |
           -------------------------------------------------

 * finished run on 2025/09/08 at 09:14:55.910
