   * xtb version 6.7.1 (edcfbbe) compiled by 'albert@albert-system' on 2024-07-22

   ID    Z sym.   atoms
    1    6 C      1-9, 11-23, 25-29, 31, 32, 34-38, 40-49, 51-59
    2    7 N      10, 24, 30, 33, 39, 50
    3    1 H      60-93

          program call               : xtb data2507/toluene/ACID–BPPZ/ACID–BPPZ_toluene_S0_finalOpt.xtbopt.xyz --gfn 2 --uhf 2 --gbsa toluene --ohess vtight --parallel 40 --molden --ceasefiles --namespace data2507/toluene/ACID–BPPZ/ACID–BPPZ_toluene_T1_preOpt
      * Solvation model:               GBSA
        Solvent                        toluene
        Solvent mass                       9.2140E+01 g/mol
          :  Hamiltonian                  GFN2-xTB          :
 * total energy  :  -148.5126583 Eh     change       -0.2181082E-09 Eh
 * total energy  :  -148.5147804 Eh     change       -0.2122112E-02 Eh
 * total energy  :  -148.5152950 Eh     change       -0.5145218E-03 Eh
 * total energy  :  -148.5153374 Eh     change       -0.4246915E-04 Eh
 * total energy  :  -148.5153613 Eh     change       -0.2388623E-04 Eh
 * total energy  :  -148.5153693 Eh     change       -0.8033022E-05 Eh
 * total energy  :  -148.5153801 Eh     change       -0.1076506E-04 Eh
 * total energy  :  -148.5153877 Eh     change       -0.7543148E-05 Eh
 * total energy  :  -148.5153931 Eh     change       -0.5417536E-05 Eh
 * total energy  :  -148.5153978 Eh     change       -0.4760102E-05 Eh
 * total energy  :  -148.5155567 Eh     change       -0.3370570E-06 Eh
 * total energy  :  -148.5155570 Eh     change       -0.2771093E-06 Eh
 * total energy  :  -148.5155573 Eh     change       -0.3509672E-06 Eh
 * total energy  :  -148.5155577 Eh     change       -0.3950221E-06 Eh
 * total energy  :  -148.5155581 Eh     change       -0.3865901E-06 Eh
 * total energy  :  -148.5155586 Eh     change       -0.4434701E-06 Eh
 * total energy  :  -148.5155591 Eh     change       -0.5358750E-06 Eh
 * total energy  :  -148.5155597 Eh     change       -0.5809766E-06 Eh
 * total energy  :  -148.5155597 Eh     change       -0.5978336E-08 Eh
   *** GEOMETRY OPTIMIZATION CONVERGED AFTER 94 ITERATIONS ***

 final structure:
================
93
 xtb: 6.7.1 (edcfbbe)
C           -5.73282844196000       -3.26872784322694       -0.15601505247931
C           -4.83548258282120       -2.57818279205588       -1.20179985709409
C           -5.62532620643802       -2.33851087066860       -2.50349188868351
C           -3.66357010608066       -3.48678006458397       -1.50996069238115
C           -3.89406458474952       -4.75216477605787       -2.03319319739006
C           -2.86000937200659       -5.61394652129643       -2.34974635159273
C           -1.54972056129715       -5.20844326818973       -2.15103746294363
C           -1.29060987966794       -3.96015016264122       -1.62991049051613
C           -2.33659768065653       -3.09095858548921       -1.29174322922650
N           -2.04668810411822       -1.85087627985779       -0.75595330198748
C           -0.68153423592362       -1.48954231891772       -0.55636446358929
C           -0.03911126806909       -0.67056237911865       -1.49819080504350
C            1.26982593171647       -0.32864736182568       -1.29905881281493
C            1.98139987719370       -0.78570289333632       -0.17505494744389
C            1.33834447965668       -1.61790542941811        0.77860228216282
C           -0.00645868325997       -1.94634064827140        0.55315522976094
C            2.07685500163461       -2.08729740305516        1.92235139113669
C            1.51763670374984       -2.92065625305780        2.90591174034299
C            2.24941254989480       -3.35182359768265        3.98458239117069
C            3.58426937586076       -2.96766619219492        4.13217415956867
C            4.16156722091351       -2.15633249613785        3.19045764260947
C            3.43179491857900       -1.70464715796807        2.07898869707920
C            4.07279423888315       -0.86225411057409        1.11432474397556
N            5.35083794947920       -0.51045436226361        1.27150225416469
C            5.94735318499469        0.27757891585283        0.36815618349668
C            7.31071750285450        0.65768647244875        0.52823336583848
C            8.06823610200312        0.21868796078387        1.62773851374041
C            9.37765267026148        0.60811221227528        1.74535409105494
C            9.91322597629339        1.44031816306729        0.75019461137453
N            9.23458570203007        1.86535845490455       -0.28332773741306
C            7.95441906267450        1.49836294464369       -0.42075523525585
C            7.21566871785344        1.96807564213686       -1.55827940280947
N            7.82927595286877        2.76027322073345       -2.44731188368211
C            7.16147950694601        3.18954910539521       -3.48637834397816
C            5.81952744024486        2.86921127610925       -3.73782212360757
C            5.16936354438120        2.05894096284555       -2.84122502541454
C            5.85755921769773        1.58182268548844       -1.71458572196157
C            5.21657423464980        0.73828404329262       -0.75676174986021
N            3.94089323326094        0.38354387990838       -0.91591533893284
C            3.34606487848420       -0.40597580254735       -0.00917116669166
C           -3.02653826423527       -0.93656612605462       -0.43332263100641
C           -2.64930546959666        0.28933776866933        0.12989787575620
C           -3.61590972479146        1.22516465261832        0.43117389073988
C           -3.57899749747334        2.54533016701359        1.00070887465250
C           -2.55163939732799        3.37124250749190        1.43347438240835
C           -2.87285239237649        4.62823798288788        1.91237844889247
C           -4.19437059446198        5.06562014771501        1.94844026134238
C           -5.23472539053342        4.25930829210154        1.52191412974397
C           -4.92070482495611        2.98911931156244        1.06184920103205
N           -5.75240825767406        2.00409296519891        0.55945153794476
C           -7.15095570491539        2.08389360451664        0.45099406672463
C           -7.91921192948956        2.43632233134650        1.55665059222253
C           -9.29548991867500        2.51344841774416        1.44169194151232
C           -9.91315770586575        2.23105017318116        0.23396938189084
C           -9.14867910823292        1.87660521326680       -0.86595627033054
C           -7.77123985095628        1.80610952995238       -0.76389382168664
C           -4.97767787588461        0.93848606242093        0.17260072406448
C           -5.35441865316074       -0.29474271999803       -0.34044730248686
C           -4.39095294359349       -1.23789165241896       -0.64938413892957
H           -5.16914041457924       -3.44825940481511        0.75760066663374
H           -6.59159343335592       -2.64961622086636        0.08627359193705
H           -6.09445241158119       -4.22222241932977       -0.52920204359562
H           -6.50916468855817       -1.73697255878316       -2.31397459829346
H           -4.99986351723838       -1.81900067197932       -3.22718976630842
H           -5.94394018878231       -3.28018420075259       -2.94009061065193
H           -4.90762336679643       -5.08069361185036       -2.20238063665676
H           -3.07423393606221       -6.59163966615118       -2.75357581462613
H           -0.72898212753207       -5.86309198336509       -2.40281057049526
H           -0.26943057664278       -3.64600501979568       -1.48211059716811
H           -0.58367804869693       -0.32291078129017       -2.36280380677833
H            1.79560390095209        0.29906385787011       -2.00149698004482
H           -0.54053148802167       -2.57261769503035        1.24982322824384
H            0.49001419425162       -3.23641350967142        2.82210407896812
H            1.79150413243050       -3.99203964106866        4.72444355976507
H            4.15546811833676       -3.30940241667513        4.98259155044494
H            5.19085168745852       -1.84282400983595        3.27567414594040
H            7.59178857501843       -0.42020379282439        2.35726603182702
H            9.98809009611322        0.28911876112417        2.57581457465124
H           10.94256210063620        1.77248863825428        0.80209993660526
H            7.71489205500393        3.82584376471395       -4.16582534603959
H            5.32120918733552        3.25386238033177       -4.61397133939263
H            4.13625873427069        1.77163079372376       -2.97262551688885
H           -1.61154845967092        0.50037365307092        0.32956166280726
H           -1.52524009950924        3.03871423017066        1.39116975914502
H           -2.08824267160813        5.28605276186439        2.25580279838411
H           -4.41202426873267        6.05831771658823        2.31398176576173
H           -6.25369554279509        4.61452739616067        1.53774722379471
H           -7.43527303353205        2.63442861347481        2.50137102662537
H           -9.88814061052413        2.78777085819090        2.30172533018948
H          -10.98787333725137        2.28887084014059        0.14987346659601
H           -9.62601699647087        1.66169763672292       -1.81056642791696
H           -7.16911781920257        1.55578572790095       -1.62450948454528
H           -6.39979853699281       -0.51215108806598       -0.48670313923248

          :  Hamiltonian                  GFN2-xTB          :
         :: gradient norm              0.000051137698 Eh/a0 ::
         :: HOMO-LUMO gap              0.447111331557 eV    ::
         :: SCC energy              -151.194340765305 Eh    ::
         :: -> dispersion             -0.138853959773 Eh    ::
         :: -> Gsolv                  -0.069653189225 Eh    ::
         :: repulsion energy           2.678781091370 Eh    ::

    * Orbital Energies and Occupations

         #    Occupation            Energy/Eh            Energy/eV
      -------------------------------------------------------------
         1        2.0000           -0.6883860             -18.7319
       ...           ...                  ...                  ...
       127        2.0000           -0.4137121             -11.2577
       128        2.0000           -0.4123065             -11.2194
       129        2.0000           -0.4068548             -11.0711
       130        2.0000           -0.3979935             -10.8300
       131        2.0000           -0.3929713             -10.6933
       132        2.0000           -0.3885693             -10.5735
       133        2.0000           -0.3851649             -10.4809
       134        2.0000           -0.3799133             -10.3380
       135        2.0000           -0.3627948              -9.8721
       136        1.9998           -0.3615191              -9.8374
       137        1.6789           -0.3540912              -9.6353
       138        1.3213           -0.3526695              -9.5966
       139        0.9998           -0.2950536              -8.0288 (HOMO)
       140        0.0002           -0.2786227              -7.5817 (LUMO)
       141                         -0.2655788              -7.2268
       142                         -0.2568580              -6.9895
       143                         -0.2541906              -6.9169
       144                         -0.2490211              -6.7762
       145                         -0.2414777              -6.5709
       146                         -0.2366809              -6.4404
       147                         -0.2364851              -6.4351
       148                         -0.2302239              -6.2647
       149                         -0.2230654              -6.0699
       150                         -0.2186981              -5.9511
       ...                                ...                  ...
       270                          0.7367891              20.0491
      -------------------------------------------------------------
                  HL-Gap            0.0164309 Eh            0.4471 eV

     #   Z          covCN         q      C6AA      α(0)
     1   6 C        3.761    -0.107    22.599     6.777
     2   6 C        3.909     0.024    20.115     6.375
     3   6 C        3.761    -0.108    22.603     6.777
     4   6 C        2.979    -0.005    28.145     8.702
     5   6 C        2.926    -0.034    28.847     8.808
     6   6 C        2.917    -0.036    28.895     8.815
     7   6 C        2.918    -0.030    28.743     8.792
     8   6 C        2.923    -0.051    29.263     8.871
     9   6 C        2.928     0.059    26.684     8.472
    10   7 N        2.756    -0.030    21.830     6.939
    11   6 C        2.927     0.055    26.775     8.486
    12   6 C        2.916    -0.044    29.091     8.845
    13   6 C        2.923    -0.029    28.723     8.789
    14   6 C        2.986    -0.014    28.354     8.735
    15   6 C        2.976    -0.003    28.101     8.695
    16   6 C        2.922    -0.044    29.098     8.846
    17   6 C        2.977    -0.003    28.098     8.695
    18   6 C        2.920    -0.036    28.896     8.815
    19   6 C        2.917    -0.032    28.803     8.801
    20   6 C        2.916    -0.033    28.831     8.805
    21   6 C        2.923    -0.029    28.730     8.790
    22   6 C        2.987    -0.011    28.289     8.725
    23   6 C        2.944     0.082    26.165     8.389
    24   7 N        1.848    -0.273    27.939     7.834
    25   6 C        2.942     0.076    26.299     8.411
    26   6 C        2.982    -0.025    28.630     8.777
    27   6 C        2.927    -0.015    28.394     8.739
    28   6 C        2.910    -0.048    29.199     8.861
    29   6 C        2.903     0.058    26.688     8.471
    30   7 N        1.840    -0.235    26.995     7.700
    31   6 C        2.967     0.076    26.308     8.413
    32   6 C        2.967     0.077    26.280     8.409
    33   7 N        1.840    -0.236    27.020     7.703
    34   6 C        2.903     0.060    26.662     8.467
    35   6 C        2.910    -0.049    29.209     8.862
    36   6 C        2.927    -0.015    28.386     8.737
    37   6 C        2.982    -0.025    28.623     8.776
    38   6 C        2.942     0.079    26.233     8.400
    39   7 N        1.848    -0.274    27.970     7.838
    40   6 C        2.945     0.077    26.289     8.409
    41   6 C        2.928     0.055    26.776     8.486
    42   6 C        2.916    -0.054    29.342     8.883
    43   6 C        3.065    -0.013    28.269     8.719
    44   6 C        3.066    -0.015    28.327     8.727
    45   6 C        2.912    -0.030    28.761     8.794
    46   6 C        2.920    -0.038    28.940     8.822
    47   6 C        2.924    -0.031    28.781     8.798
    48   6 C        2.909    -0.047    29.162     8.855
    49   6 C        3.079     0.047    26.869     8.498
    50   7 N        2.802    -0.025    21.726     6.923
    51   6 C        2.913     0.062    26.620     8.460
    52   6 C        2.921    -0.040    28.995     8.830
    53   6 C        2.920    -0.026    28.653     8.778
    54   6 C        2.919    -0.030    28.750     8.793
    55   6 C        2.920    -0.026    28.661     8.779
    56   6 C        2.922    -0.041    29.021     8.834
    57   6 C        3.073     0.043    26.950     8.512
    58   6 C        2.916    -0.053    29.322     8.880
    59   6 C        2.979    -0.006    28.167     8.706
    60   1 H        0.925     0.036     2.509     2.477
    61   1 H        0.925     0.049     2.337     2.391
    62   1 H        0.925     0.050     2.320     2.382
    63   1 H        0.925     0.050     2.326     2.385
    64   1 H        0.925     0.036     2.506     2.475
    65   1 H        0.925     0.049     2.327     2.385
    66   1 H        0.926     0.046     2.373     2.409
    67   1 H        0.926     0.038     2.472     2.459
    68   1 H        0.926     0.036     2.500     2.473
    69   1 H        0.926     0.035     2.521     2.483
    70   1 H        0.926     0.044     2.391     2.418
    71   1 H        0.926     0.049     2.337     2.390
    72   1 H        0.926     0.047     2.355     2.400
    73   1 H        0.926     0.040     2.452     2.449
    74   1 H        0.926     0.037     2.489     2.467
    75   1 H        0.926     0.035     2.512     2.479
    76   1 H        0.926     0.039     2.456     2.451
    77   1 H        0.926     0.045     2.389     2.417
    78   1 H        0.926     0.042     2.426     2.436
    79   1 H        0.925     0.038     2.478     2.462
    80   1 H        0.925     0.039     2.469     2.457
    81   1 H        0.926     0.043     2.412     2.429
    82   1 H        0.926     0.046     2.368     2.407
    83   1 H        0.926     0.041     2.437     2.441
    84   1 H        0.926     0.034     2.534     2.489
    85   1 H        0.926     0.033     2.542     2.493
    86   1 H        0.926     0.037     2.486     2.466
    87   1 H        0.926     0.039     2.459     2.452
    88   1 H        0.926     0.045     2.382     2.414
    89   1 H        0.926     0.043     2.406     2.426
    90   1 H        0.926     0.042     2.419     2.432
    91   1 H        0.926     0.044     2.391     2.418
    92   1 H        0.926     0.047     2.359     2.402
    93   1 H        0.926     0.052     2.299     2.371

molecular dipole:
                 x           y           z       tot (Debye)
 q only:       -8.013      -1.152       0.084
   full:       -8.256      -1.362       0.288      21.282

 projected vibrational frequencies (cm⁻¹)
eigval :       -0.00    -0.00    -0.00    -0.00     0.00     0.00
eigval :        6.00     8.38    10.29    19.26    23.44    33.75
eigval :       45.12    51.14    54.18    65.56    73.53    75.66
eigval :       77.07    81.40    88.62    98.73   103.75   113.33
eigval :      120.85   128.70   130.29   140.85   169.13   171.06
eigval :      185.41   187.51   193.38   198.58   200.12   215.18
eigval :      224.08   234.90   238.89   261.65   267.04   273.70
eigval :      288.18   295.90   309.44   314.24   334.42   340.51
eigval :      356.04   362.12   379.12   382.02   382.91   384.14
eigval :      391.62   397.73   401.52   405.05   405.18   419.83
eigval :      423.66   432.92   436.67   440.95   448.22   452.01
eigval :      478.00   495.31   504.56   514.01   520.38   522.01
eigval :      522.41   524.40   527.33   537.46   543.89   555.69
eigval :      570.95   580.82   586.00   588.17   593.38   595.68
eigval :      601.83   620.70   627.15   632.30   641.07   643.30
eigval :      655.89   665.93   670.31   673.88   681.69   683.07
eigval :      686.71   693.47   693.70   695.14   703.57   706.29
eigval :      724.91   732.92   741.71   761.34   765.82   771.17
eigval :      772.77   775.04   782.72   793.52   798.97   813.68
eigval :      815.37   835.18   838.72   858.99   868.04   869.25
eigval :      871.41   874.19   877.69   885.98   893.48   903.61
eigval :      904.10   909.44   910.03   911.58   912.54   914.50
eigval :      915.95   918.57   919.43   920.76   923.07   926.77
eigval :      933.78   934.74   935.02   938.27   957.07   974.00
eigval :      994.52  1012.46  1013.33  1016.13  1019.85  1041.72
eigval :     1069.46  1075.68  1077.35  1080.87  1082.31  1085.68
eigval :     1090.13  1093.97  1094.15  1112.81  1114.15  1121.58
eigval :     1128.25  1135.05  1145.36  1150.93  1153.80  1156.28
eigval :     1170.75  1172.51  1175.21  1176.68  1177.22  1182.32
eigval :     1186.79  1191.32  1204.27  1211.94  1224.08  1229.34
eigval :     1232.34  1240.47  1248.55  1249.19  1251.09  1256.57
eigval :     1266.93  1273.81  1280.50  1285.70  1292.02  1294.88
eigval :     1305.34  1313.83  1315.10  1319.24  1323.43  1329.45
eigval :     1332.67  1339.90  1346.42  1350.55  1358.84  1373.77
eigval :     1375.42  1378.72  1392.37  1397.96  1399.94  1408.04
eigval :     1413.65  1414.97  1421.35  1426.79  1431.48  1434.31
eigval :     1440.94  1444.26  1447.03  1456.65  1460.87  1468.52
eigval :     1473.81  1475.25  1479.94  1482.73  1483.59  1493.97
eigval :     1498.31  1504.19  1507.41  1511.90  1539.60  1546.20
eigval :     1548.20  1564.23  1566.07  1569.10  1579.53  1580.27
eigval :     1585.14  1587.60  1589.74  1591.97  1607.42  3025.83
eigval :     3027.99  3043.88  3044.59  3046.01  3048.26  3054.39
eigval :     3058.16  3072.60  3074.82  3076.75  3076.92  3078.77
eigval :     3080.98  3081.93  3082.18  3082.20  3089.07  3089.14
eigval :     3089.67  3089.82  3090.85  3092.78  3092.99  3096.18
eigval :     3096.56  3098.80  3099.06  3099.27  3103.17  3107.11
eigval :     3108.39  3108.59  3115.21

   temp. (K)  partition function   enthalpy   heat capacity  entropy
                                   cal/mol     cal/K/mol   cal/K/mol   J/K/mol
 298.15  VIB  0.408E+21            26865.490    173.190    166.810
         ROT  0.168E+09              888.752      2.981     40.614
         INT  0.684E+29            27754.242    176.171    207.424
         TR   0.201E+29             1481.254      4.968     45.723
         TOT                       29235.4963   181.1392   253.1464  1059.1645

       T/K    H(0)-H(T)+PV         H(T)/Eh          T*S/Eh         G(T)/Eh
   ------------------------------------------------------------------------
    298.15    0.465897E-01    0.750609E+00    0.120278E+00    0.630331E+00
   ------------------------------------------------------------------------

         :::::::::::::::::::::::::::::::::::::::::::::::::::::
         ::                  THERMODYNAMIC                  ::
         :::::::::::::::::::::::::::::::::::::::::::::::::::::
         :: total free energy        -147.885228833945 Eh   ::
         ::.................................................::
         :: total energy             -148.515559667812 Eh   ::
         :: zero point energy           0.704019127986 Eh   ::
         :: G(RRHO) w/o ZPVE           -0.073688294119 Eh   ::
         :: G(RRHO) contrib.            0.630330833867 Eh   ::
         :::::::::::::::::::::::::::::::::::::::::::::::::::::

           -------------------------------------------------
          | TOTAL ENERGY             -148.515559667812 Eh   |
          | TOTAL ENTHALPY           -147.764950810941 Eh   |
          | TOTAL FREE ENERGY        -147.885228833945 Eh   |
          | GRADIENT NORM               0.000051381658 Eh/α |
          | HOMO-LUMO GAP               0.447108094414 eV   |
           -------------------------------------------------

 * finished run on 2025/09/08 at 09:15:12.413
