   * xtb version 6.7.1 (edcfbbe) compiled by 'albert@albert-system' on 2024-07-22

   ID    Z sym.   atoms
    1    6 C      1-9, 11-23, 25-29, 31, 32, 34-38, 40-49, 51-59
    2    7 N      10, 24, 30, 33, 39, 50
    3    1 H      60-93

          program call               : xtb data2507/toluene/ACID–BPPZ/ACID–BPPZ.xyz --gfn 2 --gbsa toluene --ohess vtight --parallel 40 --molden --ceasefiles --namespace data2507/toluene/ACID–BPPZ/ACID–BPPZ_toluene_S0_preOpt
      * Solvation model:               GBSA
        Solvent                        toluene
        Solvent mass                       9.2140E+01 g/mol
          :  Hamiltonian                  GFN2-xTB          :
 * total energy  :  -148.5276344 Eh     change       -0.2503612E-08 Eh
 * total energy  :  -148.5544957 Eh     change       -0.2686126E-01 Eh
 * total energy  :  -148.5628383 Eh     change       -0.8342585E-02 Eh
 * total energy  :  -148.5647309 Eh     change       -0.1892586E-02 Eh
 * total energy  :  -148.5654575 Eh     change       -0.7266501E-03 Eh
 * total energy  :  -148.5657029 Eh     change       -0.2454040E-03 Eh
 * total energy  :  -148.5658456 Eh     change       -0.1426666E-03 Eh
 * total energy  :  -148.5659281 Eh     change       -0.8254335E-04 Eh
 * total energy  :  -148.5659827 Eh     change       -0.5452402E-04 Eh
 * total energy  :  -148.5660319 Eh     change       -0.4927418E-04 Eh
 * total energy  :  -148.5663302 Eh     change       -0.8441345E-06 Eh
 * total energy  :  -148.5663312 Eh     change       -0.9801301E-06 Eh
 * total energy  :  -148.5663323 Eh     change       -0.1178889E-05 Eh
 * total energy  :  -148.5663336 Eh     change       -0.1273608E-05 Eh
 * total energy  :  -148.5663348 Eh     change       -0.1153408E-05 Eh
 * total energy  :  -148.5663358 Eh     change       -0.1056648E-05 Eh
 * total energy  :  -148.5663368 Eh     change       -0.9727505E-06 Eh
 * total energy  :  -148.5663378 Eh     change       -0.9709355E-06 Eh
 * total energy  :  -148.5663378 Eh     change       -0.4915790E-08 Eh
   *** GEOMETRY OPTIMIZATION CONVERGED AFTER 152 ITERATIONS ***

 final structure:
================
93
 xtb: 6.7.1 (edcfbbe)
C           -5.19445927086215       -2.85838414040810        0.96954014129067
C           -4.31853578812830       -2.59572854074809       -0.27068815182205
C           -5.13827037977266       -2.81582092246354       -1.55642446570844
C           -3.16058684693201       -3.57543581807240       -0.26224200226997
C           -3.42055345105732       -4.93851550218084       -0.31172055024942
C           -2.40914296190642       -5.88101509824873       -0.33485733570281
C           -1.09238217038046       -5.45677820463513       -0.32530271214772
C           -0.80546861561400       -4.10904980273881       -0.27319878229725
C           -1.82690106989730       -3.15423211646868       -0.22028790449425
N           -1.50838723981621       -1.80744670788883       -0.15469878447679
C           -0.14424968688402       -1.42184014430963       -0.10343789794184
C            0.46653693978808       -0.85713540868820       -1.22646178303183
C            1.78985468196827       -0.49747772190429       -1.16187168443735
C            2.53273231780224       -0.68762730295308        0.00917027627384
C            1.92754855099623       -1.25303891345998        1.15132429132229
C            0.57827608346062       -1.60977170446663        1.06066593433032
C            2.70322936433606       -1.44475583905581        2.36743441900839
C            2.15791962992777       -2.00778699936651        3.52825860757003
C            2.91392855088517       -2.17873085384516        4.66716709020873
C            4.25035030457657       -1.79271326274512        4.69200931113497
C            4.81386462859963       -1.23794805003957        3.56713579870624
C            4.05915171897010       -1.05842182547308        2.40312482649068
C            4.67644849162139       -0.48038132190704        1.23307506622377
N            5.95475755226317       -0.11896447713691        1.28723651039139
C            6.51264692730588        0.39658864300145        0.19569009511453
C            7.89710260746387        0.80041568999932        0.23795871055248
C            8.66415127695270        0.68134902734815        1.40277143719924
C            9.98057034286711        1.08395185796046        1.38173400941855
C           10.49344815707340        1.59602523278159        0.18812009473437
N            9.79209300350404        1.71669745000281       -0.91472209086345
C            8.51448382591216        1.33242588424206       -0.91268303325758
C            7.75367754701135        1.47412015472172       -2.14247098732904
N            8.37503698418810        1.97263677439999       -3.21268506106017
C            7.70274234703504        2.10855438122690       -4.33172526848006
C            6.35833819572878        1.76007887367843       -4.47627623097812
C            5.70044090928376        1.24335014966352       -3.38270392276497
C            6.39776663409244        1.08873593473695       -2.17889548469797
C            5.76624533679189        0.54974196098797       -0.99844210914974
N            4.48375824555659        0.20256073417695       -1.04973245369220
C            3.92309874903758       -0.30585084513653        0.04430559202287
C           -2.48438353235974       -0.81371568225720       -0.15140129636251
C           -2.09461456449788        0.51830337006133       -0.02809615928114
C           -3.05302600882248        1.51709490926282       -0.04280594511142
C           -2.99660232256336        2.94695665829697        0.07261306771534
C           -1.95499701669776        3.85550882026105        0.20770841165168
C           -2.25416064789999        5.20234495488213        0.26749448154472
C           -3.57207057556141        5.64717994877256        0.17967203848267
C           -4.62523678375277        4.76283069418785        0.04347690819840
C           -4.33434567431922        3.40600188503764        0.00616342499662
N           -5.18209641146324        2.32830707347809       -0.14571770594968
C           -6.57858757549279        2.38253580693626       -0.26519710934118
C           -7.33701941845369        3.09161875420019        0.66219292339101
C           -8.71317673244377        3.14302305975217        0.53428734622356
C           -9.34421114088973        2.48160218014411       -0.50670190659724
C           -8.59151185022400        1.77023660045782       -1.42704408898136
C           -7.21421077071820        1.72235291424423       -1.31363398353505
C           -4.41399474731391        1.17788055345565       -0.17800819837387
C           -4.80370304511754       -0.14809183258492       -0.24403201086578
C           -3.84802197200094       -1.15299179213362       -0.23111323294049
H           -4.61184556436762       -2.69721120471020        1.87506074118806
H           -6.05129912180914       -2.19063298749273        0.98997429876610
H           -5.56000860943121       -3.88147144668910        0.97453999255708
H           -5.48812482573356       -3.84207596323862       -1.62251902949611
H           -6.00472475913108       -2.16109580251829       -1.58155460286019
H           -4.52145340111856       -2.60726665577391       -2.42908057008910
H           -4.44351069719787       -5.28271080757273       -0.33469705909481
H           -2.64785319605177       -6.93342711136593       -0.36973900893837
H           -0.28429479096944       -6.17292614791787       -0.36125870195724
H            0.22534680037767       -3.78959124709492       -0.27905308969034
H           -0.10763977673492       -0.71115798223620       -2.12884366669935
H            2.29046536462539       -0.06454830628366       -2.01308718148710
H            0.06503736800694       -2.04743360642492        1.90158633544437
H            1.12640273892208       -2.31938296614062        3.54606913273698
H            2.46416642752093       -2.61612372890475        5.54617341377645
H            4.83861000130392       -1.92892828803198        5.58680649640462
H            5.84711855806944       -0.92942631888272        3.55123992495440
H            8.20253402588117        0.27647729021314        2.29026484221784
H           10.60363235161469        1.00881482741399        2.25896875912896
H           11.52258496618524        1.92496735398436        0.12025368964043
H            8.26424546871275        2.51788279285403       -5.16180565481702
H            5.85554880616396        1.89382208078895       -5.42109581916471
H            4.66232361945745        0.95136365948329       -3.42371021875271
H           -1.05505343503169        0.77936719651988        0.08866864858544
H           -0.93243761437692        3.51088516019256        0.26008947057158
H           -1.45830185180197        5.92508861797516        0.37491788222417
H           -3.77457145511960        6.70796661411149        0.21436084628789
H           -5.64051249316500        5.12002903645865       -0.04179469916447
H           -6.84395838812136        3.58906063347278        1.48423866832320
H           -9.29605972721888        3.69569918131867        1.25656876668664
H          -10.41911206630426        2.52106813386575       -0.60057392320289
H           -9.07851321334816        1.25662105732198       -2.24315266217418
H           -6.62142844841398        1.18822448196949       -2.04147051304068
H           -5.85260469454924       -0.39328564769694       -0.29139098890459

          :  Hamiltonian                  GFN2-xTB          :
         :: gradient norm              0.000051707817 Eh/a0 ::
         :: HOMO-LUMO gap              0.869416783910 eV    ::
         :: SCC energy              -151.247039487542 Eh    ::
         :: -> dispersion             -0.139112572697 Eh    ::
         :: -> Gsolv                  -0.062125695563 Eh    ::
         :: repulsion energy           2.680701718311 Eh    ::

    * Orbital Energies and Occupations

         #    Occupation            Energy/Eh            Energy/eV
      -------------------------------------------------------------
         1        2.0000           -0.6890555             -18.7502
       ...           ...                  ...                  ...
       126        2.0000           -0.4112088             -11.1896
       127        2.0000           -0.4087385             -11.1223
       128        2.0000           -0.4069990             -11.0750
       129        2.0000           -0.4045252             -11.0077
       130        2.0000           -0.4004285             -10.8962
       131        2.0000           -0.3973090             -10.8113
       132        2.0000           -0.3944690             -10.7340
       133        2.0000           -0.3798500             -10.3362
       134        2.0000           -0.3752726             -10.2117
       135        2.0000           -0.3742919             -10.1850
       136        2.0000           -0.3666964              -9.9783
       137        2.0000           -0.3653112              -9.9406
       138        2.0000           -0.3399169              -9.2496 (HOMO)
       139                         -0.3079664              -8.3802 (LUMO)
       140                         -0.2916196              -7.9354
       141                         -0.2796379              -7.6093
       142                         -0.2630911              -7.1591
       143                         -0.2596497              -7.0654
       144                         -0.2446807              -6.6581
       145                         -0.2364559              -6.4343
       146                         -0.2321393              -6.3168
       147                         -0.2300178              -6.2591
       148                         -0.2232821              -6.0758
       149                         -0.2193464              -5.9687
       ...                                ...                  ...
       270                          0.7486901              20.3729
      -------------------------------------------------------------
                  HL-Gap            0.0319505 Eh            0.8694 eV

     #   Z          covCN         q      C6AA      α(0)
     1   6 C        3.761    -0.103    22.523     6.765
     2   6 C        3.909     0.022    20.149     6.380
     3   6 C        3.761    -0.104    22.525     6.766
     4   6 C        2.979    -0.014    28.367     8.737
     5   6 C        2.928    -0.038    28.940     8.822
     6   6 C        2.917    -0.047    29.170     8.857
     7   6 C        2.919    -0.035    28.872     8.811
     8   6 C        2.924    -0.061    29.517     8.910
     9   6 C        2.926     0.058    26.693     8.473
    10   7 N        2.755    -0.073    22.660     7.070
    11   6 C        2.926     0.074    26.344     8.417
    12   6 C        2.918    -0.038    28.939     8.822
    13   6 C        2.923    -0.027    28.683     8.783
    14   6 C        2.987    -0.008    28.219     8.714
    15   6 C        2.976     0.007    27.854     8.657
    16   6 C        2.925    -0.044    29.102     8.847
    17   6 C        2.976     0.006    27.876     8.661
    18   6 C        2.921    -0.032    28.800     8.801
    19   6 C        2.918    -0.025    28.616     8.772
    20   6 C        2.916    -0.026    28.662     8.779
    21   6 C        2.923    -0.027    28.672     8.781
    22   6 C        2.987    -0.005    28.144     8.702
    23   6 C        2.960     0.083    26.156     8.389
    24   7 N        1.849    -0.258    27.558     7.780
    25   6 C        2.958     0.078    26.257     8.405
    26   6 C        2.982    -0.017    28.417     8.744
    27   6 C        2.928    -0.012    28.322     8.728
    28   6 C        2.912    -0.039    28.962     8.825
    29   6 C        2.905     0.064    26.576     8.453
    30   7 N        1.841    -0.221    26.674     7.654
    31   6 C        2.970     0.084    26.119     8.383
    32   6 C        2.970     0.084    26.118     8.383
    33   7 N        1.841    -0.221    26.672     7.654
    34   6 C        2.905     0.064    26.575     8.453
    35   6 C        2.912    -0.039    28.962     8.825
    36   6 C        2.928    -0.012    28.322     8.728
    37   6 C        2.982    -0.017    28.418     8.744
    38   6 C        2.958     0.078    26.251     8.404
    39   7 N        1.849    -0.259    27.583     7.784
    40   6 C        2.960     0.083    26.155     8.388
    41   6 C        2.925     0.049    26.901     8.506
    42   6 C        2.918    -0.065    29.617     8.924
    43   6 C        3.066    -0.021    28.468     8.749
    44   6 C        3.069    -0.020    28.433     8.743
    45   6 C        2.912    -0.036    28.887     8.813
    46   6 C        2.919    -0.044    29.095     8.845
    47   6 C        2.923    -0.036    28.895     8.815
    48   6 C        2.909    -0.053    29.311     8.878
    49   6 C        3.077     0.048    26.852     8.496
    50   7 N        2.801    -0.048    22.171     6.993
    51   6 C        2.912     0.065    26.554     8.450
    52   6 C        2.922    -0.043    29.066     8.841
    53   6 C        2.920    -0.028    28.711     8.787
    54   6 C        2.919    -0.034    28.844     8.807
    55   6 C        2.919    -0.029    28.715     8.787
    56   6 C        2.922    -0.043    29.073     8.842
    57   6 C        3.075     0.037    27.091     8.534
    58   6 C        2.917    -0.058    29.437     8.897
    59   6 C        2.980    -0.014    28.350     8.734
    60   1 H        0.925     0.030     2.583     2.513
    61   1 H        0.925     0.041     2.437     2.441
    62   1 H        0.925     0.042     2.418     2.432
    63   1 H        0.925     0.042     2.424     2.435
    64   1 H        0.925     0.042     2.427     2.436
    65   1 H        0.925     0.031     2.579     2.511
    66   1 H        0.926     0.032     2.555     2.500
    67   1 H        0.926     0.025     2.661     2.551
    68   1 H        0.926     0.025     2.658     2.549
    69   1 H        0.926     0.022     2.708     2.573
    70   1 H        0.926     0.051     2.307     2.375
    71   1 H        0.926     0.060     2.203     2.321
    72   1 H        0.926     0.053     2.282     2.362
    73   1 H        0.926     0.048     2.345     2.395
    74   1 H        0.926     0.047     2.354     2.399
    75   1 H        0.926     0.047     2.362     2.403
    76   1 H        0.926     0.054     2.266     2.354
    77   1 H        0.926     0.061     2.183     2.311
    78   1 H        0.926     0.055     2.253     2.347
    79   1 H        0.925     0.051     2.304     2.374
    80   1 H        0.925     0.051     2.303     2.373
    81   1 H        0.926     0.055     2.253     2.347
    82   1 H        0.926     0.061     2.187     2.313
    83   1 H        0.926     0.025     2.657     2.549
    84   1 H        0.926     0.025     2.657     2.549
    85   1 H        0.926     0.025     2.665     2.553
    86   1 H        0.926     0.028     2.614     2.528
    87   1 H        0.926     0.029     2.603     2.523
    88   1 H        0.926     0.040     2.452     2.449
    89   1 H        0.926     0.038     2.470     2.458
    90   1 H        0.926     0.038     2.479     2.462
    91   1 H        0.926     0.039     2.461     2.453
    92   1 H        0.926     0.041     2.432     2.439
    93   1 H        0.926     0.036     2.499     2.472

molecular dipole:
                 x           y           z       tot (Debye)
 q only:       -1.715      -0.531       0.690
   full:       -2.126      -0.691       0.920       6.144

 projected vibrational frequencies (cm⁻¹)
eigval :       -0.00    -0.00    -0.00     0.00     0.00     0.00
eigval :        4.78     9.07    11.47    16.84    27.50    33.91
eigval :       43.53    49.23    54.59    65.61    69.08    72.74
eigval :       75.41    83.34    89.49    98.89   102.99   110.39
eigval :      120.55   124.47   130.12   142.63   170.46   180.52
eigval :      186.61   187.93   195.01   198.77   203.64   217.76
eigval :      225.50   234.36   237.93   262.16   268.92   275.34
eigval :      291.29   294.35   312.88   318.20   337.59   341.81
eigval :      362.01   364.56   377.68   380.41   381.11   381.77
eigval :      388.38   398.19   399.13   401.27   406.19   421.30
eigval :      424.12   435.01   440.77   444.77   449.79   461.83
eigval :      477.68   490.62   494.32   505.83   521.68   524.72
eigval :      528.24   532.62   536.97   542.30   545.09   559.98
eigval :      573.88   586.28   592.29   594.10   596.29   602.88
eigval :      605.52   627.62   635.80   636.19   644.45   650.32
eigval :      657.25   666.59   673.92   676.17   689.21   694.33
eigval :      697.95   702.05   704.54   706.64   710.80   717.75
eigval :      734.02   758.33   761.04   765.00   772.01   775.32
eigval :      778.17   781.42   794.26   799.90   809.18   813.65
eigval :      823.51   830.34   839.55   866.68   867.76   870.66
eigval :      872.68   883.19   884.89   888.78   901.40   906.46
eigval :      912.53   913.03   913.05   914.13   919.35   921.25
eigval :      921.64   922.49   925.32   927.97   929.01   929.95
eigval :      932.55   934.16   936.04   947.97   956.24   991.94
eigval :      996.57  1012.21  1017.49  1031.48  1035.59  1061.88
eigval :     1071.16  1078.16  1081.21  1087.95  1089.13  1093.71
eigval :     1095.07  1101.54  1115.21  1118.66  1125.25  1133.10
eigval :     1137.10  1145.63  1155.00  1156.14  1156.65  1172.48
eigval :     1175.36  1176.68  1176.90  1178.92  1184.66  1189.19
eigval :     1193.54  1213.21  1214.99  1223.79  1234.50  1237.45
eigval :     1244.79  1254.19  1261.19  1262.35  1269.61  1273.43
eigval :     1278.51  1282.78  1285.89  1290.47  1299.92  1304.34
eigval :     1315.59  1318.47  1318.76  1321.73  1328.66  1334.40
eigval :     1336.23  1353.24  1355.51  1361.62  1371.97  1378.49
eigval :     1390.31  1398.68  1399.20  1407.23  1416.86  1423.98
eigval :     1424.71  1427.69  1433.05  1438.98  1442.50  1445.75
eigval :     1453.67  1458.32  1460.02  1479.93  1482.48  1483.66
eigval :     1485.84  1486.85  1490.03  1492.33  1497.20  1501.91
eigval :     1504.18  1532.92  1548.21  1549.53  1562.02  1562.66
eigval :     1562.94  1574.87  1578.55  1579.38  1581.65  1587.49
eigval :     1593.02  1593.36  1596.24  1600.89  1618.82  3020.85
eigval :     3023.63  3038.29  3040.93  3047.61  3052.18  3053.43
eigval :     3053.97  3068.45  3071.28  3073.46  3074.12  3075.92
eigval :     3078.12  3080.44  3081.26  3086.38  3089.16  3089.36
eigval :     3090.01  3090.57  3091.87  3091.92  3092.46  3096.12
eigval :     3097.05  3098.78  3102.06  3102.71  3105.05  3106.41
eigval :     3110.16  3111.74  3116.43

   temp. (K)  partition function   enthalpy   heat capacity  entropy
                                   cal/mol     cal/K/mol   cal/K/mol   J/K/mol
 298.15  VIB  0.416E+21            26720.262    171.802    166.202
         ROT  0.168E+09              888.752      2.981     40.623
         INT  0.701E+29            27609.015    174.783    206.825
         TR   0.201E+29             1481.254      4.968     45.723
         TOT                       29090.2687   179.7513   252.5474  1056.6585

       T/K    H(0)-H(T)+PV         H(T)/Eh          T*S/Eh         G(T)/Eh
   ------------------------------------------------------------------------
    298.15    0.463583E-01    0.753833E+00    0.119993E+00    0.633839E+00
   ------------------------------------------------------------------------

         :::::::::::::::::::::::::::::::::::::::::::::::::::::
         ::                  THERMODYNAMIC                  ::
         :::::::::::::::::::::::::::::::::::::::::::::::::::::
         :: total free energy        -147.932498417984 Eh   ::
         ::.................................................::
         :: total energy             -148.566337773997 Eh   ::
         :: zero point energy           0.707474498583 Eh   ::
         :: G(RRHO) w/o ZPVE           -0.073635142570 Eh   ::
         :: G(RRHO) contrib.            0.633839356013 Eh   ::
         :::::::::::::::::::::::::::::::::::::::::::::::::::::

           -------------------------------------------------
          | TOTAL ENERGY             -148.566337773997 Eh   |
          | TOTAL ENTHALPY           -147.812504981416 Eh   |
          | TOTAL FREE ENERGY        -147.932498417984 Eh   |
          | GRADIENT NORM               0.000051709258 Eh/α |
          | HOMO-LUMO GAP               0.869416755178 eV   |
           -------------------------------------------------

 * finished run on 2025/09/08 at 09:07:52.429
