   * xtb version 6.7.1 (edcfbbe) compiled by 'albert@albert-system' on 2024-07-22

   ID    Z sym.   atoms
    1    6 C      1-9, 11-23, 25-29, 31, 32, 34-38, 40-49, 51-59
    2    7 N      10, 24, 30, 33, 39, 50
    3    1 H      60-93

          program call               : xtb data2507/toluene/ACID–BPPZ/ACID–BPPZ_toluene_T1_crest.xyz --gfn 2 --uhf 2 --gbsa toluene --ohess vtight --parallel 40 --molden --ceasefiles --namespace data2507/toluene/ACID–BPPZ/ACID–BPPZ_toluene_T1_finalOpt
      * Solvation model:               GBSA
        Solvent                        toluene
        Solvent mass                       9.2140E+01 g/mol
          :  Hamiltonian                  GFN2-xTB          :
 * total energy  :  -148.5152870 Eh     change       -0.1273017E-07 Eh
 * total energy  :  -148.5154574 Eh     change       -0.1704048E-03 Eh
 * total energy  :  -148.5155301 Eh     change       -0.7266036E-04 Eh
 * total energy  :  -148.5155374 Eh     change       -0.7307587E-05 Eh
 * total energy  :  -148.5155433 Eh     change       -0.5862895E-05 Eh
 * total energy  :  -148.5155471 Eh     change       -0.3845893E-05 Eh
 * total energy  :  -148.5155556 Eh     change       -0.8505308E-05 Eh
 * total energy  :  -148.5155581 Eh     change       -0.2519731E-05 Eh
 * total energy  :  -148.5155585 Eh     change       -0.3317777E-06 Eh
 * total energy  :  -148.5155598 Eh     change       -0.1330664E-05 Eh
 * total energy  :  -148.5155890 Eh     change       -0.2419466E-06 Eh
 * total energy  :  -148.5155892 Eh     change       -0.2144138E-06 Eh
 * total energy  :  -148.5155894 Eh     change       -0.1739235E-06 Eh
 * total energy  :  -148.5155895 Eh     change       -0.1265663E-06 Eh
 * total energy  :  -148.5155896 Eh     change       -0.1321943E-06 Eh
 * total energy  :  -148.5155898 Eh     change       -0.1414116E-06 Eh
 * total energy  :  -148.5155899 Eh     change       -0.1487793E-06 Eh
 * total energy  :  -148.5155900 Eh     change       -0.1186754E-06 Eh
 * total energy  :  -148.5155901 Eh     change       -0.9258022E-07 Eh
   *** GEOMETRY OPTIMIZATION CONVERGED AFTER 41 ITERATIONS ***

 final structure:
================
93
 xtb: 6.7.1 (edcfbbe)
C           -5.79689795149684       -3.19214285893390        0.04744548880213
C           -4.85888286491639       -2.61015207011095       -1.02831731307114
C           -5.60981407618560       -2.46569124182979       -2.36652563338961
C           -3.69925314137901       -3.56390633626197       -1.22804111210044
C           -3.94328573422454       -4.86616754135970       -1.64330022178379
C           -2.91986946703430       -5.77180566806391       -1.85488420102491
C           -1.60668662076989       -5.37609529309455       -1.65530120559452
C           -1.33398018166704       -4.09082271863904       -1.24219416508759
C           -2.36949153635713       -3.17421771647328       -1.01561779914022
N           -2.06628347522086       -1.89537690002473       -0.59084548700199
C           -0.69703088388347       -1.53400166785063       -0.41772956413842
C           -0.02431945039492       -0.87027152352000       -1.45540629292357
C            1.28757589795594       -0.52495551805907       -1.28303169485361
C            1.97081654242887       -0.82383757873634       -0.09049826898461
C            1.29626046994023       -1.49753525266665        0.96157461387081
C           -0.04978828785427       -1.83614412336793        0.75898063846083
C            2.00536574910819       -1.80285825719344        2.17723521908347
C            1.41443239447831       -2.47433891325007        3.26096942060638
C            2.11863451972195       -2.75100294990225        4.40662168360030
C            3.45652106965703       -2.36695940812217        4.52414463210569
C            4.06460989713655       -1.71176882123763        3.48521302076263
C            3.36328445480195       -1.41942622130184        2.30428610239511
C            4.03550775948653       -0.73551750103703        1.24055273830129
N            5.31416455788556       -0.37601165446049        1.37345592578853
C            5.93964169530320        0.26366029226871        0.37726281484904
C            7.30380911916704        0.65113395862561        0.51092086240007
C            8.02942790266909        0.37974891111042        1.68357661211163
C            9.34090405903448        0.76984509845769        1.77273343964238
C            9.91086567869792        1.43253601002316        0.67467321172662
N            9.26252502104239        1.69913031874586       -0.42898832027895
C            7.98091244462319        1.32825265006971       -0.54019723851315
C            7.27517009374001        1.62336407199123       -1.75479753383972
N            7.92091183037987        2.25871921305042       -2.74154301106555
C            7.28299873286949        2.52909450671967       -3.85056632211230
C            5.94108534848143        2.19267488618737       -4.08035001153297
C            5.25800341856255        1.54179435084258       -3.08386741786591
C            5.91418092331405        1.23598042618738       -1.88118706585705
C            5.23996838663128        0.55649420351715       -0.82121524051154
N            3.96279752498872        0.19645959106549       -0.95437925326464
C            3.33837765779719       -0.44250494720668        0.04615335284353
C           -3.03428335659254       -0.94128430305377       -0.36289794538976
C           -2.64311795926249        0.32136224234324        0.10081861173934
C           -3.59807367018580        1.29258912871007        0.31416794543773
C           -3.54787838078075        2.65117667551174        0.78355081581186
C           -2.51361225066576        3.49078163692648        1.17102272170303
C           -2.82170367113313        4.78344482683367        1.55399746090534
C           -4.13662222989616        5.24149019399956        1.53966460248834
C           -5.18365312264919        4.42215582949557        1.15641278943821
C           -4.88313082742232        3.11800425548609        0.79253861260771
N           -5.72328684909170        2.11079340630772        0.35217162124660
C           -7.11825291034219        2.20398023046623        0.21192746375291
C           -7.90092739268322        2.64524810751710        1.27465195843942
C           -9.27340617507569        2.73459938799406        1.12728075246607
C           -9.87274570643308        2.37858090633379       -0.07017905467509
C           -9.09391260146720        1.93536910795857       -1.12701506095660
C           -7.72009318543413        1.85085957332983       -0.99260467454400
C           -4.96068958473406        1.00738635220100        0.05853907609661
C           -5.35127816900884       -0.25612134735652       -0.36226282105853
C           -4.40015003769981       -1.23702872379942       -0.57732893887167
H           -5.26514972038401       -3.28598457369004        0.99252192608003
H           -6.65783231872579       -2.54797410586816        0.20010498244930
H           -6.15458179989893       -4.17510066617464       -0.24409654368514
H           -6.47654519873465       -1.82112280133362       -2.25538268232637
H           -4.95077510669815       -2.03470981938906       -3.11810713335257
H           -5.95000695821352       -3.43298522300093       -2.72383594435100
H           -4.95899246960535       -5.18944031863451       -1.81005311056386
H           -3.14462940086778       -6.77740313669487       -2.17603384707409
H           -0.79431575928580       -6.06725498899803       -1.82248545373531
H           -0.31079460003395       -3.78427019623067       -1.09149405632281
H           -0.54858290196130       -0.64156708892129       -2.37072110902661
H            1.83704111306524       -0.01446776708684       -2.05852736402943
H           -0.60717866582590       -2.34590574058275        1.52857830053696
H            0.38379543964240       -2.78605266756888        3.20280829426942
H            1.63652592548608       -3.26927268510796        5.22261687823473
H            4.00590132036880       -2.58685700598124        5.42749911397826
H            5.09731483527141       -1.40358432232346        3.54446885166999
H            7.52721283385072       -0.13398881648994        2.49057630270607
H            9.92696046133277        0.57734259229597        2.65793644648017
H           10.94322979576544        1.75830089243343        0.70049182813413
H            7.86181157381551        3.04271321620330       -4.60816568381767
H            5.46800543814291        2.44258291125966       -5.01716998405812
H            4.22294173262296        1.25227362532401       -3.19313480534130
H           -1.60419936626852        0.53201092070333        0.29505497382227
H           -1.49211269523044        3.14090412071723        1.16786445853246
H           -2.03158197765594        5.45261879276318        1.86090701294898
H           -4.34360741532931        6.26078776008298        1.83062808212653
H           -6.19722150756737        4.79209276475882        1.13302577844262
H           -7.43136394246137        2.90156963729409        2.21260831716430
H           -9.87782327681929        3.07736096417689        1.95394388121828
H          -10.94457241696312        2.44706194126326       -0.17964107386995
H           -9.55689778717463        1.66189967901292       -2.06357229685854
H           -7.10558540247392        1.52947028651486       -1.82027486385402
H           -6.39781438204948       -0.46656944519544       -0.51025797607572

          :  Hamiltonian                  GFN2-xTB          :
         :: gradient norm              0.000040657118 Eh/a0 ::
         :: HOMO-LUMO gap              0.447273468643 eV    ::
         :: SCC energy              -151.194405606234 Eh    ::
         :: -> dispersion             -0.138810375743 Eh    ::
         :: -> Gsolv                  -0.069696653118 Eh    ::
         :: repulsion energy           2.678815473022 Eh    ::

    * Orbital Energies and Occupations

         #    Occupation            Energy/Eh            Energy/eV
      -------------------------------------------------------------
         1        2.0000           -0.6883983             -18.7323
       ...           ...                  ...                  ...
       127        2.0000           -0.4137122             -11.2577
       128        2.0000           -0.4123045             -11.2194
       129        2.0000           -0.4069058             -11.0725
       130        2.0000           -0.3980162             -10.8306
       131        2.0000           -0.3929854             -10.6937
       132        2.0000           -0.3886085             -10.5746
       133        2.0000           -0.3851311             -10.4800
       134        2.0000           -0.3799784             -10.3397
       135        2.0000           -0.3628054              -9.8724
       136        1.9998           -0.3615347              -9.8379
       137        1.6769           -0.3540984              -9.6355
       138        1.3233           -0.3526940              -9.5973
       139        0.9998           -0.2950737              -8.0294 (HOMO)
       140        0.0002           -0.2786369              -7.5821 (LUMO)
       141                         -0.2655912              -7.2271
       142                         -0.2568698              -6.9898
       143                         -0.2542378              -6.9182
       144                         -0.2490085              -6.7759
       145                         -0.2414709              -6.5708
       146                         -0.2366958              -6.4408
       147                         -0.2365252              -6.4362
       148                         -0.2302162              -6.2645
       149                         -0.2230021              -6.0682
       150                         -0.2187225              -5.9517
       ...                                ...                  ...
       270                          0.7368591              20.0510
      -------------------------------------------------------------
                  HL-Gap            0.0164368 Eh            0.4473 eV

     #   Z          covCN         q      C6AA      α(0)
     1   6 C        3.761    -0.107    22.601     6.777
     2   6 C        3.909     0.024    20.115     6.375
     3   6 C        3.761    -0.107    22.599     6.777
     4   6 C        2.979    -0.005    28.146     8.702
     5   6 C        2.926    -0.034    28.847     8.808
     6   6 C        2.917    -0.036    28.896     8.815
     7   6 C        2.918    -0.030    28.742     8.791
     8   6 C        2.923    -0.051    29.262     8.871
     9   6 C        2.929     0.059    26.682     8.471
    10   7 N        2.756    -0.031    21.835     6.940
    11   6 C        2.928     0.055    26.773     8.486
    12   6 C        2.916    -0.044    29.090     8.844
    13   6 C        2.923    -0.029    28.721     8.789
    14   6 C        2.986    -0.014    28.354     8.735
    15   6 C        2.976    -0.003    28.102     8.696
    16   6 C        2.922    -0.044    29.099     8.846
    17   6 C        2.977    -0.003    28.098     8.695
    18   6 C        2.920    -0.036    28.896     8.815
    19   6 C        2.917    -0.032    28.803     8.801
    20   6 C        2.916    -0.033    28.831     8.805
    21   6 C        2.923    -0.029    28.730     8.790
    22   6 C        2.987    -0.011    28.289     8.725
    23   6 C        2.944     0.082    26.165     8.389
    24   7 N        1.848    -0.273    27.939     7.834
    25   6 C        2.942     0.076    26.299     8.411
    26   6 C        2.982    -0.025    28.630     8.777
    27   6 C        2.927    -0.015    28.394     8.739
    28   6 C        2.910    -0.048    29.199     8.861
    29   6 C        2.903     0.058    26.688     8.471
    30   7 N        1.840    -0.235    26.995     7.700
    31   6 C        2.967     0.076    26.308     8.413
    32   6 C        2.967     0.077    26.280     8.409
    33   7 N        1.840    -0.236    27.020     7.703
    34   6 C        2.903     0.060    26.662     8.467
    35   6 C        2.910    -0.049    29.209     8.862
    36   6 C        2.927    -0.015    28.386     8.737
    37   6 C        2.982    -0.025    28.623     8.776
    38   6 C        2.942     0.079    26.233     8.400
    39   7 N        1.848    -0.274    27.970     7.838
    40   6 C        2.946     0.077    26.289     8.409
    41   6 C        2.928     0.055    26.775     8.486
    42   6 C        2.916    -0.054    29.341     8.883
    43   6 C        3.065    -0.013    28.269     8.719
    44   6 C        3.066    -0.015    28.328     8.727
    45   6 C        2.912    -0.030    28.760     8.794
    46   6 C        2.920    -0.038    28.940     8.822
    47   6 C        2.924    -0.031    28.781     8.798
    48   6 C        2.909    -0.047    29.162     8.855
    49   6 C        3.079     0.047    26.868     8.498
    50   7 N        2.802    -0.025    21.727     6.923
    51   6 C        2.913     0.062    26.620     8.461
    52   6 C        2.921    -0.040    28.994     8.830
    53   6 C        2.920    -0.026    28.653     8.778
    54   6 C        2.919    -0.030    28.749     8.793
    55   6 C        2.920    -0.026    28.661     8.779
    56   6 C        2.922    -0.041    29.019     8.834
    57   6 C        3.073     0.043    26.950     8.512
    58   6 C        2.916    -0.053    29.321     8.879
    59   6 C        2.979    -0.006    28.167     8.706
    60   1 H        0.925     0.036     2.509     2.477
    61   1 H        0.925     0.049     2.336     2.390
    62   1 H        0.925     0.050     2.321     2.382
    63   1 H        0.925     0.049     2.327     2.386
    64   1 H        0.925     0.036     2.507     2.476
    65   1 H        0.925     0.050     2.326     2.385
    66   1 H        0.926     0.046     2.374     2.409
    67   1 H        0.926     0.038     2.472     2.459
    68   1 H        0.926     0.036     2.500     2.473
    69   1 H        0.926     0.035     2.523     2.484
    70   1 H        0.926     0.044     2.394     2.420
    71   1 H        0.926     0.049     2.336     2.390
    72   1 H        0.926     0.047     2.354     2.399
    73   1 H        0.926     0.040     2.452     2.449
    74   1 H        0.926     0.037     2.489     2.467
    75   1 H        0.926     0.035     2.512     2.478
    76   1 H        0.926     0.039     2.456     2.451
    77   1 H        0.926     0.045     2.389     2.417
    78   1 H        0.926     0.042     2.426     2.436
    79   1 H        0.925     0.038     2.478     2.461
    80   1 H        0.925     0.039     2.469     2.457
    81   1 H        0.926     0.043     2.412     2.429
    82   1 H        0.926     0.046     2.368     2.407
    83   1 H        0.926     0.041     2.441     2.443
    84   1 H        0.926     0.034     2.535     2.490
    85   1 H        0.926     0.033     2.542     2.493
    86   1 H        0.926     0.037     2.486     2.466
    87   1 H        0.926     0.039     2.458     2.452
    88   1 H        0.926     0.045     2.382     2.413
    89   1 H        0.926     0.043     2.405     2.425
    90   1 H        0.926     0.042     2.418     2.432
    91   1 H        0.926     0.044     2.391     2.418
    92   1 H        0.926     0.047     2.361     2.403
    93   1 H        0.926     0.052     2.300     2.372

molecular dipole:
                 x           y           z       tot (Debye)
 q only:       -8.034      -1.009       0.154
   full:       -8.284      -1.184       0.383      21.292

 projected vibrational frequencies (cm⁻¹)
eigval :       -0.00    -0.00    -0.00    -0.00    -0.00     0.00
eigval :        9.02    12.16    14.75    22.58    31.19    34.21
eigval :       44.32    50.73    57.95    63.09    73.70    75.63
eigval :       78.49    85.65    90.59   100.08   105.02   113.40
eigval :      120.06   129.42   129.83   143.35   171.04   172.70
eigval :      185.80   188.16   194.29   197.87   200.35   215.26
eigval :      224.36   235.81   240.32   262.08   267.68   274.23
eigval :      288.57   297.02   309.53   314.16   335.63   341.29
eigval :      355.21   363.30   380.07   382.37   383.66   384.53
eigval :      392.17   397.96   401.40   405.13   405.58   421.65
eigval :      424.19   433.76   437.82   441.24   449.42   452.97
eigval :      477.76   495.34   506.22   514.97   520.99   521.60
eigval :      522.98   525.30   528.69   537.21   544.10   555.72
eigval :      571.13   581.40   586.16   588.34   593.92   595.52
eigval :      602.01   621.98   628.44   632.36   641.25   643.35
eigval :      656.06   666.05   671.20   673.72   682.05   684.05
eigval :      687.39   693.75   694.14   695.38   704.08   707.57
eigval :      726.70   733.03   743.21   761.28   765.45   772.81
eigval :      777.55   778.54   784.63   794.10   798.99   813.73
eigval :      815.06   835.29   838.92   857.65   868.86   872.46
eigval :      874.10   874.31   877.97   884.79   897.78   904.16
eigval :      906.13   908.18   910.06   912.02   912.86   915.97
eigval :      916.06   918.24   922.66   925.66   925.92   926.94
eigval :      933.13   934.45   935.78   938.87   957.72   974.18
eigval :      994.81  1012.49  1013.05  1016.08  1019.76  1041.75
eigval :     1069.54  1076.03  1078.97  1081.22  1082.39  1085.58
eigval :     1090.40  1094.11  1094.26  1112.51  1117.27  1122.04
eigval :     1129.20  1136.01  1144.93  1151.46  1153.36  1157.16
eigval :     1170.70  1173.38  1177.53  1177.64  1178.42  1182.22
eigval :     1185.54  1194.38  1203.89  1211.79  1223.89  1228.73
eigval :     1232.89  1241.16  1248.89  1249.60  1250.88  1256.77
eigval :     1268.41  1274.89  1281.74  1285.94  1292.31  1295.13
eigval :     1305.69  1313.95  1315.21  1319.51  1323.21  1329.68
eigval :     1332.57  1340.00  1346.57  1350.86  1359.10  1374.28
eigval :     1375.47  1379.24  1392.43  1398.23  1400.01  1408.19
eigval :     1413.74  1415.44  1421.70  1426.74  1432.06  1434.23
eigval :     1440.96  1444.50  1447.09  1456.89  1460.94  1468.98
eigval :     1474.85  1475.58  1480.03  1483.43  1484.04  1494.39
eigval :     1499.05  1504.47  1507.43  1512.21  1539.75  1546.35
eigval :     1548.17  1564.23  1566.19  1569.43  1579.75  1580.51
eigval :     1585.21  1587.96  1590.36  1592.20  1607.67  3025.03
eigval :     3028.37  3043.70  3045.25  3046.56  3048.62  3054.87
eigval :     3058.48  3074.68  3075.45  3076.11  3076.76  3078.78
eigval :     3081.33  3081.57  3082.15  3083.24  3088.56  3089.13
eigval :     3089.62  3090.18  3090.50  3092.36  3093.52  3096.08
eigval :     3096.79  3098.62  3098.89  3099.18  3102.82  3106.59
eigval :     3107.95  3108.39  3115.70

   temp. (K)  partition function   enthalpy   heat capacity  entropy
                                   cal/mol     cal/K/mol   cal/K/mol   J/K/mol
 298.15  VIB  0.745E+20            26788.058    173.199    165.017
         ROT  0.167E+09              888.752      2.981     40.610
         INT  0.125E+29            27676.810    176.180    205.628
         TR   0.201E+29             1481.254      4.968     45.723
         TOT                       29158.0644   181.1477   251.3501  1051.6487

       T/K    H(0)-H(T)+PV         H(T)/Eh          T*S/Eh         G(T)/Eh
   ------------------------------------------------------------------------
    298.15    0.464663E-01    0.750830E+00    0.119425E+00    0.631405E+00
   ------------------------------------------------------------------------

         :::::::::::::::::::::::::::::::::::::::::::::::::::::
         ::                  THERMODYNAMIC                  ::
         :::::::::::::::::::::::::::::::::::::::::::::::::::::
         :: total free energy        -147.884184916972 Eh   ::
         ::.................................................::
         :: total energy             -148.515590124253 Eh   ::
         :: zero point energy           0.704363408827 Eh   ::
         :: G(RRHO) w/o ZPVE           -0.072958201547 Eh   ::
         :: G(RRHO) contrib.            0.631405207280 Eh   ::
         :::::::::::::::::::::::::::::::::::::::::::::::::::::

           -------------------------------------------------
          | TOTAL ENERGY             -148.515590124253 Eh   |
          | TOTAL ENTHALPY           -147.764760382126 Eh   |
          | TOTAL FREE ENERGY        -147.884184916972 Eh   |
          | GRADIENT NORM               0.000048648387 Eh/α |
          | HOMO-LUMO GAP               0.447268853932 eV   |
           -------------------------------------------------

 * finished run on 2025/09/08 at 09:27:07.823
