   * xtb version 6.7.1 (edcfbbe) compiled by 'albert@albert-system' on 2024-07-22

   ID    Z sym.   atoms
    1    6 C      1-7, 9, 11, 13-39
    2   15 P      8, 10, 12
    3    1 H      40-76

          program call               : xtb data2507/gas/dTolmp/dTolmp.xyz --gfn 2 --ohess vtight --parallel 40 --molden --ceasefiles --namespace data2507/gas/dTolmp/dTolmp_gas_S0_preOpt
          :  Hamiltonian                  GFN2-xTB          :
 * total energy  :  -103.4456477 Eh     change       -0.1169157E-07 Eh
 * total energy  :  -103.4591538 Eh     change       -0.1350607E-01 Eh
 * total energy  :  -103.4635002 Eh     change       -0.4346385E-02 Eh
 * total energy  :  -103.4662622 Eh     change       -0.2762039E-02 Eh
 * total energy  :  -103.4684211 Eh     change       -0.2158939E-02 Eh
 * total energy  :  -103.4697148 Eh     change       -0.1293686E-02 Eh
 * total energy  :  -103.4703856 Eh     change       -0.6707696E-03 Eh
 * total energy  :  -103.4708283 Eh     change       -0.4426795E-03 Eh
 * total energy  :  -103.4712369 Eh     change       -0.4085887E-03 Eh
 * total energy  :  -103.4716763 Eh     change       -0.4394104E-03 Eh
 * total energy  :  -103.4746596 Eh     change       -0.1807800E-05 Eh
 * total energy  :  -103.4746620 Eh     change       -0.2364612E-05 Eh
 * total energy  :  -103.4746648 Eh     change       -0.2841063E-05 Eh
 * total energy  :  -103.4746678 Eh     change       -0.3029902E-05 Eh
 * total energy  :  -103.4746708 Eh     change       -0.2934893E-05 Eh
 * total energy  :  -103.4746736 Eh     change       -0.2826602E-05 Eh
 * total energy  :  -103.4746762 Eh     change       -0.2645087E-05 Eh
 * total energy  :  -103.4746789 Eh     change       -0.2626629E-05 Eh
 * total energy  :  -103.4746789 Eh     change       -0.1615841E-07 Eh
   *** GEOMETRY OPTIMIZATION CONVERGED AFTER 94 ITERATIONS ***

 final structure:
================
76
 xtb: 6.7.1 (edcfbbe)
C           -3.10678979211993        2.65036216037294       -1.33066403669443
C           -3.47486200432244        1.31092824342482       -1.88918822886877
C           -3.90351862602254        1.22439050593278       -3.21000616863076
C           -4.29386173665665        0.01970347031767       -3.76120873091470
C           -4.26916662523859       -1.12979676549696       -2.98843744739544
C           -3.84247285766620       -1.06122635589908       -1.67752672312808
C           -3.43334409437320        0.14755661435262       -1.12040551479348
P           -2.85626390232319        0.18522007457518        0.63035444431143
C           -1.41731071486174       -0.97021380581298        0.41431600362649
P           -0.14026251195361       -0.05661159305844       -0.58811406373208
C            1.22236990290311       -1.30073749459815       -0.33078699717484
P            2.71167306643017       -0.75675384709978       -1.29931360136074
C            3.91506950569396       -2.08261137951437       -0.89016932783281
C            3.56144839587949       -3.28061484958876       -0.27888691606481
C            4.50668105297405       -4.26223820955892       -0.03999385161468
C            5.82073982980218       -4.06132344280095       -0.42064659790927
C            6.17779876942442       -2.88190916625392       -1.05060390553860
C            5.24165605589420       -1.89006585426558       -1.30007042608558
C            5.64702372349335       -0.62458297190154       -1.98724135418398
C            3.31130154424940        0.51279576605233       -0.10593680416738
C            3.78973531999206        0.13576633740605        1.14289289280835
C            4.22206772788553        1.08713937255532        2.04694187139714
C            4.17907560954132        2.42699064777968        1.70384037562312
C            3.71072071841119        2.80595341287867        0.45891900219256
C            3.27487286534871        1.86229515302793       -0.46059703144190
C            2.78867467059956        2.28016113546587       -1.81300579184368
C            0.28024137139286        1.23193839869212        0.64967782408893
C            0.16476705787705        2.55298919258568        0.23161342794420
C            0.42543272531712        3.59504393147697        1.10135988635080
C            0.81133340391322        3.32536761795541        2.40229819622122
C            0.93142228375737        2.01290265102700        2.82671060219719
C            0.66437897664252        0.97122491838714        1.95893949037864
C           -4.11971489736375       -0.94246405382297        1.33975940754762
C           -3.81063025190190       -2.18693997201096        1.87842846311341
C           -4.79309222726129       -2.98009883530442        2.44325080726024
C           -6.10055070518522       -2.53170569587292        2.48617299316476
C           -6.41269805882153       -1.28325073842330        1.97728559928557
C           -5.43839572661786       -0.47407642989962        1.41256424546547
C           -5.79773047632585        0.87548394696446        0.87597424519019
H           -4.00520704991010        3.25012302303484       -1.18017878917099
H           -2.59637184863391        2.54640166781797       -0.37508399421948
H           -2.45986532319201        3.18719237113613       -2.02203410468507
H           -3.93290961545271        2.12339381033872       -3.81009452733356
H           -4.62329349652041       -0.02397047128439       -4.78910463795297
H           -4.58397640299724       -2.07497936222566       -3.40644637982024
H           -3.84204030331366       -1.95715791646364       -1.07083307993591
H           -1.70617860494320       -1.87666633852320       -0.12764252761641
H           -1.00950483582662       -1.22925326261658        1.39688340625347
H            0.85932977661436       -2.22768240767236       -0.79101946112465
H            1.44736950113434       -1.46781274717882        0.72722420367420
H            2.53908708148163       -3.46157835114942        0.01828206126506
H            4.21396273944550       -5.18413151085137        0.44181925057128
H            6.56382044000633       -4.82303896802193       -0.23550430436175
H            7.20268185344541       -2.72999710660419       -1.35974058105445
H            5.75136747014831        0.18347044861731       -1.26144396799087
H            6.59589214926896       -0.74861753847474       -2.50430263110402
H            4.88408986425627       -0.32773948569379       -2.70880273580943
H            3.83254333033154       -0.91292646641696        1.40655182320833
H            4.59135156773844        0.78372988307081        3.01592608639851
H            4.51198961303594        3.17740733654753        2.40592032057297
H            3.68119565947154        3.85392508863987        0.19537377513091
H            2.56771906451263        3.34452439253418       -1.83436155536957
H            1.89027569282599        1.72379310638494       -2.08082954171519
H            3.54899031988973        2.06980802489770       -2.56607877634596
H           -0.12876314314831        2.75455584507158       -0.78889835334495
H            0.32852144200500        4.61737929994397        0.76492680529559
H            1.01929824965931        4.13504305323642        3.08640392340936
H            1.23386596246173        1.79966493860877        3.84202146381158
H            0.76397371647739       -0.04479523030066        2.31512685958913
H           -2.79392707497201       -2.55093297728303        1.86225351372528
H           -4.53504833482717       -3.94714359246718        2.85063184789171
H           -6.87327161038978       -3.14751317870763        2.92245781828308
H           -7.43230312473111       -0.92643104805553        2.02382804499768
H           -6.72163283619672        1.23732291346751        1.32198165027608
H           -4.99856344233180        1.58934907491487        1.08200252102743
H           -5.93229081527903        0.82829259181600       -0.20571268524908

          :  Hamiltonian                  GFN2-xTB          :
         :: gradient norm              0.000074942311 Eh/a0 ::
         :: HOMO-LUMO gap              3.388890476820 eV    ::
         :: SCC energy              -105.303632922014 Eh    ::
         :: -> dispersion             -0.114773509057 Eh    ::
         :: repulsion energy           1.828954038814 Eh    ::

    * Orbital Energies and Occupations

         #    Occupation            Energy/Eh            Energy/eV
      -------------------------------------------------------------
         1        2.0000           -0.6663381             -18.1320
       ...           ...                  ...                  ...
        86        2.0000           -0.4055894             -11.0366
        87        2.0000           -0.4034192             -10.9776
        88        2.0000           -0.4015179             -10.9259
        89        2.0000           -0.4002650             -10.8918
        90        2.0000           -0.3954367             -10.7604
        91        2.0000           -0.3941966             -10.7266
        92        2.0000           -0.3916957             -10.6586
        93        2.0000           -0.3909204             -10.6375
        94        2.0000           -0.3892546             -10.5922
        95        2.0000           -0.3857872             -10.4978
        96        2.0000           -0.3749091             -10.2018
        97        2.0000           -0.3636887              -9.8965
        98        2.0000           -0.3626126              -9.8672 (HOMO)
        99                         -0.2380732              -6.4783 (LUMO)
       100                         -0.2317067              -6.3051
       101                         -0.2312996              -6.2940
       102                         -0.2271429              -6.1809
       103                         -0.2253788              -6.1329
       104                         -0.2238817              -6.0921
       105                         -0.2182417              -5.9387
       106                         -0.2180525              -5.9335
       107                         -0.2163513              -5.8872
       108                         -0.2159135              -5.8753
       109                         -0.1775505              -4.8314
       ...                                ...                  ...
       208                          1.0480114              28.5178
      -------------------------------------------------------------
                  HL-Gap            0.1245394 Eh            3.3889 eV

     #   Z          covCN         q      C6AA      α(0)
     1   6 C        3.759    -0.107    22.587     6.775
     2   6 C        3.021     0.021    27.520     8.605
     3   6 C        2.926    -0.040    28.996     8.831
     4   6 C        2.918    -0.030    28.748     8.792
     5   6 C        2.919    -0.035    28.871     8.811
     6   6 C        2.989    -0.027    28.659     8.782
     7   6 C        2.920     0.015    27.672     8.626
     8  15 P        3.459    -0.161   167.607    23.256
     9   6 C        3.697    -0.031    21.295     6.601
    10  15 P        3.706    -0.125   165.899    23.137
    11   6 C        3.697    -0.033    21.330     6.606
    12  15 P        3.420    -0.146   166.889    23.206
    13   6 C        2.919     0.008    27.852     8.654
    14   6 C        2.964    -0.033    28.831     8.807
    15   6 C        2.919    -0.036    28.903     8.816
    16   6 C        2.918    -0.032    28.795     8.800
    17   6 C        2.924    -0.040    28.986     8.829
    18   6 C        3.054     0.017    27.580     8.613
    19   6 C        3.766    -0.104    22.525     6.764
    20   6 C        2.922     0.011    27.779     8.643
    21   6 C        2.981    -0.029    28.710     8.789
    22   6 C        2.919    -0.036    28.901     8.816
    23   6 C        2.919    -0.031    28.766     8.795
    24   6 C        2.925    -0.040    28.996     8.831
    25   6 C        3.032     0.018    27.575     8.613
    26   6 C        3.761    -0.106    22.569     6.772
    27   6 C        2.917     0.020    27.551     8.607
    28   6 C        3.024    -0.026    28.619     8.775
    29   6 C        2.919    -0.029    28.713     8.787
    30   6 C        2.921    -0.027    28.674     8.781
    31   6 C        2.920    -0.028    28.696     8.785
    32   6 C        2.962    -0.021    28.534     8.762
    33   6 C        2.919     0.009    27.815     8.649
    34   6 C        2.967    -0.033    28.823     8.806
    35   6 C        2.919    -0.036    28.903     8.816
    36   6 C        2.918    -0.032    28.798     8.800
    37   6 C        2.924    -0.040    28.990     8.830
    38   6 C        3.051     0.017    27.591     8.615
    39   6 C        3.765    -0.104    22.525     6.765
    40   1 H        0.924     0.046     2.366     2.406
    41   1 H        0.925     0.063     2.168     2.303
    42   1 H        0.925     0.045     2.379     2.412
    43   1 H        0.925     0.031     2.577     2.510
    44   1 H        0.926     0.029     2.599     2.521
    45   1 H        0.926     0.027     2.623     2.532
    46   1 H        0.925     0.032     2.553     2.498
    47   1 H        0.925     0.056     2.244     2.343
    48   1 H        0.925     0.053     2.279     2.361
    49   1 H        0.928     0.056     2.244     2.343
    50   1 H        0.925     0.058     2.225     2.333
    51   1 H        0.926     0.030     2.583     2.513
    52   1 H        0.926     0.026     2.646     2.544
    53   1 H        0.926     0.028     2.621     2.531
    54   1 H        0.925     0.028     2.613     2.528
    55   1 H        0.924     0.049     2.336     2.390
    56   1 H        0.925     0.042     2.426     2.436
    57   1 H        0.924     0.061     2.192     2.316
    58   1 H        0.925     0.032     2.563     2.503
    59   1 H        0.926     0.027     2.636     2.539
    60   1 H        0.926     0.028     2.620     2.531
    61   1 H        0.926     0.028     2.617     2.530
    62   1 H        0.925     0.041     2.436     2.441
    63   1 H        0.925     0.067     2.115     2.274
    64   1 H        0.924     0.054     2.271     2.356
    65   1 H        0.926     0.045     2.381     2.413
    66   1 H        0.926     0.030     2.583     2.513
    67   1 H        0.926     0.030     2.588     2.516
    68   1 H        0.926     0.029     2.607     2.525
    69   1 H        0.925     0.028     2.619     2.531
    70   1 H        0.926     0.030     2.583     2.513
    71   1 H        0.926     0.026     2.647     2.544
    72   1 H        0.926     0.027     2.623     2.532
    73   1 H        0.925     0.028     2.615     2.529
    74   1 H        0.925     0.042     2.427     2.436
    75   1 H        0.924     0.062     2.177     2.307
    76   1 H        0.924     0.049     2.337     2.391

molecular dipole:
                 x           y           z       tot (Debye)
 q only:        0.014       0.624      -0.126
   full:        0.087       0.087       0.441       1.164

 projected vibrational frequencies (cm⁻¹)
eigval :       -0.00    -0.00    -0.00     0.00     0.00     0.00
eigval :       -5.20     9.44    13.84    22.36    31.48    37.24
eigval :       39.67    41.96    47.56    57.25    62.82    67.94
eigval :       72.44    85.58    93.11   103.33   117.67   119.10
eigval :      134.75   142.45   146.82   152.93   157.20   162.91
eigval :      164.71   174.48   198.22   207.68   213.74   215.75
eigval :      225.47   232.40   247.45   250.25   277.83   284.84
eigval :      308.23   338.96   365.85   367.24   373.37   374.33
eigval :      376.67   401.50   404.12   406.50   417.34   417.67
eigval :      419.16   421.30   435.21   436.52   450.12   473.72
eigval :      476.74   494.70   494.92   533.58   533.98   537.52
eigval :      538.12   585.65   653.71   654.94   656.80   657.54
eigval :      659.53   667.10   668.97   676.60   678.55   680.55
eigval :      697.53   719.55   734.37   737.82   746.57   760.89
eigval :      762.73   766.00   768.12   774.34   787.98   808.43
eigval :      808.78   809.43   810.32   874.48   874.91   875.52
eigval :      881.10   883.06   903.29   908.87   909.06   914.18
eigval :      916.69   926.20   926.42   926.50   928.28   929.23
eigval :      934.30   969.24   993.22   996.37   998.89   999.01
eigval :      999.85  1020.70  1026.46  1027.64  1028.12  1031.32
eigval :     1042.04  1042.52  1047.13  1048.04  1071.06  1083.73
eigval :     1093.46  1101.89  1102.80  1108.71  1113.17  1119.35
eigval :     1124.31  1160.17  1161.89  1162.03  1162.45  1181.49
eigval :     1183.53  1184.26  1186.91  1187.50  1201.42  1230.32
eigval :     1232.36  1234.18  1234.81  1262.07  1264.29  1264.63
eigval :     1265.11  1276.86  1315.12  1315.34  1317.25  1317.45
eigval :     1320.10  1368.56  1378.05  1395.17  1396.12  1399.61
eigval :     1400.51  1422.27  1424.97  1425.41  1426.38  1426.73
eigval :     1454.19  1454.56  1458.85  1461.43  1462.75  1467.57
eigval :     1468.16  1472.22  1472.71  1474.04  1474.96  1476.69
eigval :     1481.92  1573.36  1573.44  1574.89  1577.99  1582.65
eigval :     1590.78  1591.11  1591.43  1592.13  1592.87  2891.70
eigval :     2897.83  2902.25  2906.32  2979.58  2981.25  2989.45
eigval :     2993.48  2993.83  2994.90  3000.37  3022.48  3022.70
eigval :     3030.99  3032.91  3037.96  3054.20  3054.78  3057.28
eigval :     3065.77  3065.94  3066.34  3066.70  3067.25  3070.16
eigval :     3070.42  3071.88  3074.44  3075.20  3077.85  3081.83
eigval :     3082.51  3086.45  3087.12  3088.66  3088.92  3089.38

   temp. (K)  partition function   enthalpy   heat capacity  entropy
                                   cal/mol     cal/K/mol   cal/K/mol   J/K/mol
 298.15  VIB  0.212E+20            23216.493    138.273    148.574
         ROT  0.461E+08              888.752      2.981     38.051
         INT  0.981E+27            24105.245    141.254    186.624
         TR   0.129E+29             1481.254      4.968     44.847
         TOT                       25586.4994   146.2218   231.4710   968.4748

       T/K    H(0)-H(T)+PV         H(T)/Eh          T*S/Eh         G(T)/Eh
   ------------------------------------------------------------------------
    298.15    0.407747E-01    0.646941E+00    0.109979E+00    0.536962E+00
   ------------------------------------------------------------------------

         :::::::::::::::::::::::::::::::::::::::::::::::::::::
         ::                  THERMODYNAMIC                  ::
         :::::::::::::::::::::::::::::::::::::::::::::::::::::
         :: total free energy        -102.937717336949 Eh   ::
         ::.................................................::
         :: total energy             -103.474678883200 Eh   ::
         :: zero point energy           0.606166217083 Eh   ::
         :: G(RRHO) w/o ZPVE           -0.069204670832 Eh   ::
         :: G(RRHO) contrib.            0.536961546251 Eh   ::
         :::::::::::::::::::::::::::::::::::::::::::::::::::::

           -------------------------------------------------
          | TOTAL ENERGY             -103.474678883200 Eh   |
          | TOTAL ENTHALPY           -102.827737983956 Eh   |
          | TOTAL FREE ENERGY        -102.937717336949 Eh   |
          | GRADIENT NORM               0.000074945848 Eh/α |
          | HOMO-LUMO GAP               3.388890890845 eV   |
           -------------------------------------------------

 * finished run on 2025/08/30 at 18:30:05.336
