   * xtb version 6.7.1 (edcfbbe) compiled by 'albert@albert-system' on 2024-07-22

   ID    Z sym.   atoms
    1    6 C      1-7, 9, 11, 13-39
    2   15 P      8, 10, 12
    3    1 H      40-76

          program call               : xtb data2507/gas/dTolmp/dTolmp_gas_T1_crest.xyz --gfn 2 --spinpol --tblite --uhf 2 --ohess vtight --parallel 40 --molden --ceasefiles --namespace data2507/gas/dTolmp/dTolmp_gas_T1_finalOpt
 * total energy  :  -103.3743151 Eh     change        0.1659548E-07 Eh
 * total energy  :  -103.3744221 Eh     change       -0.1070293E-03 Eh
 * total energy  :  -103.3744880 Eh     change       -0.6587064E-04 Eh
 * total energy  :  -103.3745392 Eh     change       -0.5119728E-04 Eh
 * total energy  :  -103.3745572 Eh     change       -0.1798381E-04 Eh
 * total energy  :  -103.3745873 Eh     change       -0.3014249E-04 Eh
 * total energy  :  -103.3746015 Eh     change       -0.1421935E-04 Eh
 * total energy  :  -103.3746278 Eh     change       -0.2626692E-04 Eh
 * total energy  :  -103.3746480 Eh     change       -0.2022824E-04 Eh
 * total energy  :  -103.3746694 Eh     change       -0.2134616E-04 Eh
 * total energy  :  -103.3749779 Eh     change       -0.2272647E-06 Eh
 * total energy  :  -103.3749779 Eh     change        0.8731604E-08 Eh
 * total energy  :  -103.3749780 Eh     change       -0.1442826E-06 Eh
 * total energy  :  -103.3749782 Eh     change       -0.1635763E-06 Eh
 * total energy  :  -103.3749784 Eh     change       -0.1896519E-06 Eh
 * total energy  :  -103.3749787 Eh     change       -0.3351246E-06 Eh
 * total energy  :  -103.3749787 Eh     change        0.5886564E-07 Eh
 * total energy  :  -103.3749789 Eh     change       -0.2492926E-06 Eh
 * total energy  :  -103.3749790 Eh     change       -0.6328453E-07 Eh
   *** GEOMETRY OPTIMIZATION CONVERGED AFTER 78 ITERATIONS ***

 final structure:
================
76
 xtb: 6.7.1 (edcfbbe)
C           -1.65321304170002       -2.66106664851667       -2.25070757958251
C           -1.23538707189196       -3.40085798478986       -1.01887475624017
C           -0.74428121825516       -4.69733235865926       -1.08691405524269
C           -0.38097607596616       -5.38455612686452        0.05927816256484
C           -0.49726056239195       -4.77718657035845        1.29810899234629
C           -0.98028368033111       -3.48449473886282        1.38035555561078
C           -1.32148511643159       -2.79341225384511        0.22901641086976
P           -2.28291521487865       -1.10552807142814        0.49165390943589
C           -0.75780200004325       -0.12028211960664        0.82635116369597
P           -0.23670693322287        0.59381921270925       -0.81890919997347
C            1.15429976574339        1.68982017112852       -0.21925506674353
P            2.65922867946431        0.89068625298270       -0.96537676616381
C            2.57968290509662       -0.65498150923531        0.03423865581278
C            2.78816295420732       -0.60830513225214        1.40845819842574
C            2.71858751491995       -1.75884833683883        2.17140018751603
C            2.44696691223333       -2.97013640200215        1.55835846966874
C            2.24727653691263       -3.02236422881710        0.19110181058907
C            2.30586269313307       -1.87490739965704       -0.58846972668775
C            2.10766270001365       -1.95811515383867       -2.06892409668275
C            4.01908600922959        1.73285742185410       -0.06697516428347
C            3.83519562377491        2.92928153815191        0.61797844365585
C            4.89713657129420        3.55949918253688        1.24134225293305
C            6.16199569040041        3.00375484601070        1.17646987109592
C            6.35959977610151        1.82986682716846        0.47037196972746
C            5.30669436698882        1.18937102682604       -0.16500538459081
C            5.54199731172184       -0.06987999430837       -0.93776451835880
C           -1.55547662179944        1.86216641447454       -0.97903985142170
C           -1.81444212525067        2.82374578637835       -0.00812291568013
C           -2.84087949910458        3.73077518448378       -0.18293443525922
C           -3.61351279138220        3.69606134684044       -1.33249140005735
C           -3.34407185622266        2.76296306055236       -2.31717155571422
C           -2.31686061264450        1.85264382047733       -2.14099584112005
C           -3.56168739087220        0.29742856387243        0.90818795843921
C           -3.49508296970444        0.96819995762881        2.12116031056422
C           -4.46790335254051        1.88754883101806        2.46558066597527
C           -5.52991846835643        2.11654231488983        1.60816993881410
C           -5.63071675698161        1.39800095715539        0.42937623732159
C           -4.66781556969470        0.46513533461943        0.07553631761010
C           -4.79978830843905       -0.34217346787865       -1.17696853505064
H           -2.74028340204657       -2.67512414005852       -2.34087639165516
H           -1.33352332957888       -1.62055483531867       -2.18756066187281
H           -1.22831049781984       -3.11151033188045       -3.14482391036203
H           -0.65196559703454       -5.17806190512200       -2.05200388552850
H           -0.01156113790223       -6.39744596798526       -0.01465134078730
H           -0.22010458113681       -5.31080898771912        2.19608453253141
H           -1.08538141482996       -2.99722563244902        2.34220748858239
H            0.03749906046266       -0.78255140356644        1.17586962092478
H           -0.93548635549798        0.68652460969788        1.53833193907915
H            1.20043204245528        1.74922093934167        0.87193250285221
H            1.03134748467798        2.68511715709786       -0.65638887031418
H            3.01736124529860        0.33719822245123        1.88299899619443
H            2.87992986453991       -1.71045223012816        3.23883310976662
H            2.39341497935223       -3.87538258572377        2.14466847545771
H            2.03752476545385       -3.97093134367628       -0.28088293070587
H            1.47687729941926       -1.14041928331458       -2.41514470995771
H            3.06748913306622       -1.88184392051873       -2.58089482133254
H            1.64381055583556       -2.90275276104654       -2.34022797600021
H            2.85591489006510        3.38315909662335        0.66526214515302
H            4.73562234508158        4.48540393281811        1.77449699166278
H            6.99492136758330        3.48851751119502        1.66425846298169
H            7.35197455468769        1.40562707205106        0.40487773173785
H            5.26306887866100       -0.94010209902134       -0.34167098858738
H            6.58909347145845       -0.16510518600129       -1.21668182057527
H            4.93065832706857       -0.07466529767847       -1.84179020409239
H           -1.21479280361654        2.86728511678347        0.89088161632320
H           -3.04337137838360        4.46684391263677        0.58164029277347
H           -4.41977718118026        4.40295519648926       -1.46116684845597
H           -3.93520470035701        2.74222703527877       -3.22125958684153
H           -2.09265850198241        1.12513383659211       -2.91071972598668
H           -2.67841164146550        0.77287763913106        2.80412591520615
H           -4.39871396767901        2.42069163121813        3.40329366013827
H           -6.28963740290231        2.83961012017284        1.86654243220759
H           -6.47605420086805        1.55943897298633       -0.22546463894514
H           -4.81468885677885       -1.40453023580945       -0.92884297298120
H           -5.71409002005264       -0.09083072199431       -1.70956554839443
H           -3.94890692137702       -0.16328408206609       -1.83217867244461

 projected vibrational frequencies (cm⁻¹)
eigval :       -0.00    -0.00    -0.00     0.00     0.00     0.00
eigval :       11.30    15.33    23.99    25.97    33.28    35.74
eigval :       39.94    41.91    46.53    53.19    60.02    68.71
eigval :       69.60    76.84    78.31    86.03    88.05    99.88
eigval :      110.75   121.09   132.49   141.21   146.50   152.20
eigval :      158.26   162.22   167.52   192.06   201.43   202.10
eigval :      220.44   228.67   233.00   245.52   262.90   279.75
eigval :      296.92   299.63   314.97   334.58   364.11   365.45
eigval :      370.81   372.02   390.25   399.78   403.92   409.63
eigval :      413.02   417.61   421.95   437.73   449.18   462.62
eigval :      476.48   485.99   494.72   510.90   517.44   534.55
eigval :      537.90   585.08   597.73   614.81   643.93   654.23
eigval :      656.34   657.58   658.00   669.59   673.49   679.69
eigval :      685.62   711.79   723.69   730.39   741.21   754.49
eigval :      759.78   763.49   766.78   768.20   781.33   805.49
eigval :      806.58   809.01   809.96   872.30   873.64   876.05
eigval :      876.15   882.40   902.06   904.14   904.55   909.61
eigval :      915.22   919.12   921.35   926.42   927.04   929.34
eigval :      931.96   964.68   969.09   989.02   989.61   996.39
eigval :      997.87   998.93   999.76  1015.87  1024.28  1025.66
eigval :     1027.24  1028.33  1044.31  1048.07  1072.00  1078.68
eigval :     1084.33  1092.29  1101.62  1102.32  1106.71  1118.54
eigval :     1121.54  1145.02  1150.08  1161.16  1161.78  1176.48
eigval :     1180.51  1181.63  1182.62  1185.75  1197.90  1223.72
eigval :     1227.12  1232.05  1233.97  1258.11  1260.86  1263.75
eigval :     1264.49  1275.58  1314.41  1316.20  1316.90  1318.00
eigval :     1319.17  1347.58  1372.51  1392.13  1393.07  1394.95
eigval :     1399.16  1409.89  1414.15  1422.73  1424.63  1425.93
eigval :     1449.31  1453.16  1454.50  1456.94  1460.26  1462.24
eigval :     1464.35  1466.31  1467.36  1471.34  1472.29  1475.31
eigval :     1479.55  1565.32  1568.64  1573.14  1574.60  1578.23
eigval :     1581.51  1582.51  1590.49  1590.71  1591.43  2901.14
eigval :     2925.77  2940.22  2951.76  2979.20  2985.93  2986.07
eigval :     2992.75  2993.70  2996.44  3008.51  3017.80  3032.19
eigval :     3032.60  3032.85  3033.47  3041.88  3045.47  3048.18
eigval :     3051.25  3053.60  3057.37  3060.77  3065.71  3066.73
eigval :     3067.28  3069.49  3072.21  3073.50  3078.77  3079.40
eigval :     3079.82  3081.41  3084.83  3088.23  3091.15  3092.00

   temp. (K)  partition function   enthalpy   heat capacity  entropy
                                   cal/mol     cal/K/mol   cal/K/mol   J/K/mol
 298.15  VIB  0.255E+20            23824.892    139.720    152.608
         ROT  0.406E+08              888.752      2.981     37.798
         INT  0.103E+28            24713.644    142.700    190.407
         TR   0.129E+29             1481.254      4.968     44.847
         TOT                       26194.8980   147.6686   235.2533   984.2997

       T/K    H(0)-H(T)+PV         H(T)/Eh          T*S/Eh         G(T)/Eh
   ------------------------------------------------------------------------
    298.15    0.417442E-01    0.645014E+00    0.111776E+00    0.533237E+00
   ------------------------------------------------------------------------

         :::::::::::::::::::::::::::::::::::::::::::::::::::::
         ::                  THERMODYNAMIC                  ::
         :::::::::::::::::::::::::::::::::::::::::::::::::::::
         :: total free energy        -102.841741906063 Eh   ::
         ::.................................................::
         :: total energy             -103.374979013957 Eh   ::
         :: zero point energy           0.603269305694 Eh   ::
         :: G(RRHO) w/o ZPVE           -0.070032197800 Eh   ::
         :: G(RRHO) contrib.            0.533237107894 Eh   ::
         :::::::::::::::::::::::::::::::::::::::::::::::::::::

           -------------------------------------------------
          | TOTAL ENERGY             -103.374979013957 Eh   |
          | TOTAL ENTHALPY           -102.729965481107 Eh   |
          | TOTAL FREE ENERGY        -102.841741906063 Eh   |
          | GRADIENT NORM               0.000093118460 Eh/α |
           -------------------------------------------------

 * finished run on 2025/08/30 at 18:38:59.406
