   * xtb version 6.7.1 (edcfbbe) compiled by 'albert@albert-system' on 2024-07-22

   ID    Z sym.   atoms
    1    6 C      1-7, 9, 11, 13-39
    2   15 P      8, 10, 12
    3    1 H      40-76

          program call               : xtb data2507/gas/dTolmp/dTolmp_gas_S0_crest.xyz --gfn 2 --ohess vtight --parallel 40 --molden --ceasefiles --namespace data2507/gas/dTolmp/dTolmp_gas_S0_finalOpt
          :  Hamiltonian                  GFN2-xTB          :
 * total energy  :  -103.4782401 Eh     change       -0.2665956E-09 Eh
 * total energy  :  -103.4782413 Eh     change       -0.1240444E-05 Eh
 * total energy  :  -103.4782427 Eh     change       -0.1398957E-05 Eh
 * total energy  :  -103.4782454 Eh     change       -0.2665535E-05 Eh
 * total energy  :  -103.4782471 Eh     change       -0.1732354E-05 Eh
 * total energy  :  -103.4782486 Eh     change       -0.1498261E-05 Eh
 * total energy  :  -103.4782501 Eh     change       -0.1457845E-05 Eh
 * total energy  :  -103.4782512 Eh     change       -0.1175069E-05 Eh
 * total energy  :  -103.4782522 Eh     change       -0.9566129E-06 Eh
 * total energy  :  -103.4782532 Eh     change       -0.1010614E-05 Eh
 * total energy  :  -103.4782584 Eh     change       -0.1213736E-05 Eh
 * total energy  :  -103.4782594 Eh     change       -0.1037456E-05 Eh
 * total energy  :  -103.4782604 Eh     change       -0.9525078E-06 Eh
 * total energy  :  -103.4782614 Eh     change       -0.1035689E-05 Eh
 * total energy  :  -103.4782627 Eh     change       -0.1298122E-05 Eh
 * total energy  :  -103.4782643 Eh     change       -0.1532246E-05 Eh
 * total energy  :  -103.4782657 Eh     change       -0.1445000E-05 Eh
 * total energy  :  -103.4782668 Eh     change       -0.1129198E-05 Eh
 * total energy  :  -103.4782668 Eh     change       -0.8510156E-08 Eh
   *** GEOMETRY OPTIMIZATION CONVERGED AFTER 22 ITERATIONS ***

 final structure:
================
76
 xtb: 6.7.1 (edcfbbe)
C           -5.13402825377997       -2.36176477711521       -0.29132158760812
C           -5.25846071358626       -1.41640082652076        0.86170142931498
C           -6.45348743454986       -1.31139371918499        1.55688005470042
C           -6.58309670675098       -0.44874425846236        2.63152516786613
C           -5.50251453618779        0.31723860152481        3.02963786530307
C           -4.30481460081181        0.22882740248487        2.34325856228705
C           -4.17418652222113       -0.61540903554734        1.24563635063511
P           -2.59281468416171       -0.83762040735376        0.34636726478408
C           -1.62028904971143        0.64215486953265        0.91623680991252
P           -0.16874111245931        0.72683982519818       -0.24890413858206
C            0.77887756810098       -0.70205472631737        0.46173836136946
P            2.14669509262642       -1.02795951523087       -0.74979035788267
C            3.06133765177425       -2.38477639502205        0.08027498657215
C            2.52453231756311       -3.13127849910565        1.12370471846143
C            3.23345943640470       -4.17955958631582        1.68260343641532
C            4.48709993926731       -4.50133243782025        1.19534274545420
C            5.01787719565428       -3.78034847210878        0.13979804094979
C            4.31819568404876       -2.73007793872194       -0.43438491924622
C            4.90333788200423       -1.96735141824540       -1.58075702438024
C            3.20840953606650        0.38490161413228       -0.22924463548255
C            3.82120489306331        0.38625467439596        1.01748714444388
C            4.57569127939762        1.46884055301919        1.42802092218387
C            4.72088171663749        2.55976573552234        0.58932920470588
C            4.12129456196776        2.55736748856160       -0.65720702290008
C            3.36351340243550        1.47670433994449       -1.08530288311545
C            2.72493916204839        1.47365658288513       -2.43871129001422
C            0.65428680164537        2.18295609338692        0.51249011561267
C            0.72554672094488        3.32444346345413       -0.27923027569401
C            1.30819947412180        4.48206773088494        0.20108438174883
C            1.82814768139581        4.51011626092504        1.48333437767048
C            1.74847124577886        3.38304469056013        2.28373000345020
C            1.16012015549513        2.22739780913822        1.80556803846597
C           -3.06308778367291       -0.12713919224199       -1.28483074096577
C           -3.98668199847040        0.90996493823670       -1.35471517138167
C           -4.32726311142453        1.46902242870125       -2.57137224464512
C           -3.74169156846868        0.99197143457950       -3.73177808455033
C           -2.82518136893724       -0.04129357241277       -3.66698927959624
C           -2.47374963177363       -0.61780516020484       -2.45267174036893
C           -1.47061730194181       -1.72609688304349       -2.41125384357158
H           -5.22031671996881       -1.82237560707606       -1.23573403479842
H           -4.15810985578051       -2.85001382410478       -0.27636327135397
H           -5.91058511237692       -3.12256766125081       -0.25670050071808
H           -7.29448050163355       -1.92033203959406        1.25529263198931
H           -7.52188240249828       -0.38213287961562        3.16155241372516
H           -5.58905277464549        0.98337054036140        3.87600675636299
H           -3.46807778875359        0.82794574220988        2.67152975218640
H           -1.27803767254256        0.51125352915945        1.94841581239422
H           -2.20488483759825        1.56290037132616        0.82331583007126
H            0.09108687048638       -1.55560482881262        0.44167623105033
H            1.14000985335555       -0.52870717502536        1.47884304944422
H            1.54254554001643       -2.90132045365829        1.50992676532393
H            2.80369462372355       -4.74515193065127        2.49680997586750
H            5.04668074481918       -5.31716862866847        1.62896165468177
H            5.99186104210793       -4.04160052485943       -0.25033085024831
H            4.12959017513321       -1.74396274567276       -2.31728980892836
H            5.31676033533531       -1.01891640261072       -1.23415399910646
H            5.69737923999447       -2.53435411437423       -2.06150907985535
H            3.71170428421218       -0.47077359865760        1.66925869877791
H            5.04685217160162        1.46179455763488        2.40030377391163
H            5.30331352183676        3.41285049844227        0.90543488270730
H            4.24084506665953        3.41147004524397       -1.30900325638711
H            1.66107569522743        1.24678684866110       -2.35243755467036
H            3.17805321919281        0.70727494546423       -3.06800038519377
H            2.84083413933838        2.43828063077326       -2.92664023425160
H            0.32002939041485        3.29256444637530       -1.28180601610035
H            1.36051430595759        5.36130746202884       -0.42476759044594
H            2.29266504398985        5.40903701282527        1.86144552372958
H            2.14753967734435        3.40488340007934        3.28784292911034
H            1.10320656364546        1.36204452548864        2.45128059401506
H           -4.45114509989982        1.27483023170795       -0.44798047838030
H           -5.04782680565748        2.27298137240876       -2.61383713092226
H           -4.00224979419360        1.42342947417061       -4.68739884996359
H           -2.37183166263626       -0.41148079915374       -4.57592252830467
H           -0.48729285459144       -1.32982083451032       -2.14357846985350
H           -1.74540045123077       -2.46943380260123       -1.66395774956778
H           -1.38573012722231       -2.21196906745813       -3.38030451140992

          :  Hamiltonian                  GFN2-xTB          :
         :: gradient norm              0.000074041280 Eh/a0 ::
         :: HOMO-LUMO gap              3.346803792358 eV    ::
         :: SCC energy              -105.307353426557 Eh    ::
         :: -> dispersion             -0.114802499882 Eh    ::
         :: repulsion energy           1.829086591900 Eh    ::

    * Orbital Energies and Occupations

         #    Occupation            Energy/Eh            Energy/eV
      -------------------------------------------------------------
         1        2.0000           -0.6677091             -18.1693
       ...           ...                  ...                  ...
        86        2.0000           -0.4067788             -11.0690
        87        2.0000           -0.4039414             -10.9918
        88        2.0000           -0.4005839             -10.9004
        89        2.0000           -0.3999373             -10.8828
        90        2.0000           -0.3953303             -10.7575
        91        2.0000           -0.3937341             -10.7140
        92        2.0000           -0.3922851             -10.6746
        93        2.0000           -0.3912274             -10.6458
        94        2.0000           -0.3880541             -10.5595
        95        2.0000           -0.3865927             -10.5197
        96        2.0000           -0.3739643             -10.1761
        97        2.0000           -0.3648183              -9.9272
        98        2.0000           -0.3628802              -9.8745 (HOMO)
        99                         -0.2398874              -6.5277 (LUMO)
       100                         -0.2315594              -6.3011
       101                         -0.2307348              -6.2786
       102                         -0.2276531              -6.1948
       103                         -0.2261902              -6.1549
       104                         -0.2256299              -6.1397
       105                         -0.2180719              -5.9340
       106                         -0.2176135              -5.9216
       107                         -0.2161118              -5.8807
       108                         -0.2153392              -5.8597
       109                         -0.1731037              -4.7104
       ...                                ...                  ...
       208                          1.1063130              30.1043
      -------------------------------------------------------------
                  HL-Gap            0.1229928 Eh            3.3468 eV

     #   Z          covCN         q      C6AA      α(0)
     1   6 C        3.765    -0.102    22.495     6.760
     2   6 C        3.051     0.017    27.578     8.613
     3   6 C        2.924    -0.040    28.990     8.830
     4   6 C        2.918    -0.032    28.790     8.799
     5   6 C        2.919    -0.036    28.896     8.815
     6   6 C        2.970    -0.033    28.814     8.805
     7   6 C        2.919     0.010    27.786     8.644
     8  15 P        3.526    -0.167   167.867    23.274
     9   6 C        3.697    -0.025    21.190     6.584
    10  15 P        3.866    -0.147   166.908    23.207
    11   6 C        3.698    -0.028    21.234     6.591
    12  15 P        3.523    -0.156   167.372    23.240
    13   6 C        2.919     0.009    27.820     8.649
    14   6 C        2.968    -0.033    28.825     8.806
    15   6 C        2.919    -0.036    28.896     8.815
    16   6 C        2.918    -0.032    28.792     8.799
    17   6 C        2.924    -0.040    28.991     8.830
    18   6 C        3.051     0.017    27.583     8.613
    19   6 C        3.765    -0.103    22.504     6.762
    20   6 C        2.922     0.013    27.735     8.636
    21   6 C        2.981    -0.029    28.708     8.789
    22   6 C        2.919    -0.036    28.904     8.816
    23   6 C        2.919    -0.031    28.769     8.796
    24   6 C        2.925    -0.040    28.996     8.831
    25   6 C        3.034     0.018    27.568     8.612
    26   6 C        3.762    -0.105    22.553     6.770
    27   6 C        2.917     0.015    27.668     8.626
    28   6 C        3.027    -0.026    28.631     8.777
    29   6 C        2.918    -0.029    28.715     8.787
    30   6 C        2.921    -0.028    28.697     8.785
    31   6 C        2.920    -0.029    28.725     8.789
    32   6 C        2.959    -0.025    28.614     8.774
    33   6 C        2.922     0.017    27.640     8.622
    34   6 C        2.984    -0.028    28.690     8.786
    35   6 C        2.919    -0.036    28.894     8.815
    36   6 C        2.918    -0.031    28.763     8.795
    37   6 C        2.925    -0.040    28.983     8.829
    38   6 C        3.030     0.023    27.467     8.597
    39   6 C        3.760    -0.107    22.591     6.776
    40   1 H        0.924     0.050     2.320     2.382
    41   1 H        0.924     0.059     2.214     2.327
    42   1 H        0.925     0.042     2.426     2.436
    43   1 H        0.925     0.028     2.612     2.527
    44   1 H        0.926     0.027     2.622     2.532
    45   1 H        0.926     0.026     2.646     2.544
    46   1 H        0.926     0.031     2.568     2.506
    47   1 H        0.925     0.052     2.289     2.366
    48   1 H        0.925     0.054     2.266     2.354
    49   1 H        0.927     0.072     2.061     2.245
    50   1 H        0.925     0.057     2.233     2.337
    51   1 H        0.926     0.034     2.536     2.490
    52   1 H        0.926     0.027     2.636     2.539
    53   1 H        0.926     0.027     2.625     2.534
    54   1 H        0.925     0.028     2.621     2.532
    55   1 H        0.924     0.059     2.211     2.325
    56   1 H        0.924     0.048     2.339     2.392
    57   1 H        0.925     0.041     2.431     2.438
    58   1 H        0.925     0.032     2.554     2.499
    59   1 H        0.926     0.026     2.645     2.543
    60   1 H        0.926     0.027     2.633     2.538
    61   1 H        0.926     0.027     2.627     2.535
    62   1 H        0.924     0.069     2.101     2.267
    63   1 H        0.924     0.055     2.257     2.349
    64   1 H        0.925     0.040     2.451     2.448
    65   1 H        0.925     0.040     2.442     2.444
    66   1 H        0.926     0.031     2.575     2.510
    67   1 H        0.926     0.030     2.585     2.514
    68   1 H        0.926     0.029     2.605     2.524
    69   1 H        0.925     0.029     2.600     2.522
    70   1 H        0.925     0.031     2.570     2.507
    71   1 H        0.926     0.026     2.646     2.544
    72   1 H        0.926     0.028     2.616     2.529
    73   1 H        0.926     0.031     2.570     2.507
    74   1 H        0.924     0.074     2.040     2.233
    75   1 H        0.925     0.056     2.241     2.341
    76   1 H        0.925     0.043     2.406     2.426

molecular dipole:
                 x           y           z       tot (Debye)
 q only:        0.185       0.036      -0.374
   full:        0.188       0.509       0.386       1.693

 projected vibrational frequencies (cm⁻¹)
eigval :       -0.00    -0.00    -0.00    -0.00     0.00     0.00
eigval :       10.00    15.22    21.13    25.26    33.38    38.41
eigval :       39.73    43.91    49.77    57.13    60.79    64.90
eigval :       68.09    79.37    93.40   111.68   120.61   125.72
eigval :      133.90   139.25   143.00   151.24   158.36   159.46
eigval :      166.33   178.28   192.95   204.01   210.36   222.68
eigval :      224.18   238.10   242.03   247.22   254.09   287.30
eigval :      315.00   329.36   365.56   367.44   367.70   373.17
eigval :      374.68   402.48   404.78   411.49   417.05   417.35
eigval :      420.41   421.41   437.03   438.66   448.41   477.04
eigval :      477.68   493.98   494.68   533.90   534.69   537.98
eigval :      538.12   585.43   653.83   654.53   656.66   657.28
eigval :      657.39   669.75   671.55   677.14   680.44   682.12
eigval :      703.21   719.26   726.54   740.79   745.94   754.97
eigval :      763.20   766.15   766.70   772.32   794.40   808.28
eigval :      808.99   809.09   809.25   872.68   875.69   875.90
eigval :      880.95   881.20   898.27   909.69   909.80   914.27
eigval :      914.97   925.08   926.79   926.82   927.28   928.57
eigval :      932.19   968.99   988.02   995.88   997.47   998.53
eigval :      999.07  1000.25  1020.36  1025.12  1025.89  1027.40
eigval :     1043.51  1043.90  1046.67  1046.98  1071.93  1078.04
eigval :     1085.75  1101.51  1101.83  1107.05  1108.72  1117.13
eigval :     1124.57  1161.41  1162.02  1162.06  1162.43  1181.41
eigval :     1183.52  1184.17  1186.37  1186.82  1201.45  1231.84
eigval :     1232.27  1233.63  1234.26  1263.35  1264.18  1264.30
eigval :     1264.64  1277.26  1314.12  1315.32  1316.31  1317.42
eigval :     1318.59  1362.18  1380.17  1392.85  1394.81  1398.85
eigval :     1399.86  1422.91  1424.07  1425.25  1425.93  1426.26
eigval :     1453.99  1454.46  1458.19  1458.78  1462.94  1467.28
eigval :     1467.98  1468.45  1470.79  1472.30  1473.66  1475.20
eigval :     1475.99  1572.60  1573.41  1574.17  1577.89  1581.51
eigval :     1590.70  1590.95  1591.31  1591.39  1592.84  2894.31
eigval :     2897.83  2908.65  2911.51  2954.01  2978.35  2979.08
eigval :     2979.12  2993.52  2995.15  2999.95  3009.06  3032.83
eigval :     3033.06  3037.05  3038.75  3053.74  3055.45  3056.23
eigval :     3058.73  3065.69  3066.11  3066.70  3067.10  3070.73
eigval :     3071.18  3071.31  3074.01  3074.63  3077.22  3081.28
eigval :     3082.77  3086.13  3086.41  3088.75  3089.07  3089.61

   temp. (K)  partition function   enthalpy   heat capacity  entropy
                                   cal/mol     cal/K/mol   cal/K/mol   J/K/mol
 298.15  VIB  0.418E+19            23216.747    138.481    147.298
         ROT  0.446E+08              888.752      2.981     37.984
         INT  0.187E+27            24105.499    141.462    185.282
         TR   0.129E+29             1481.254      4.968     44.847
         TOT                       25586.7531   146.4300   230.1287   962.8587

       T/K    H(0)-H(T)+PV         H(T)/Eh          T*S/Eh         G(T)/Eh
   ------------------------------------------------------------------------
    298.15    0.407751E-01    0.646575E+00    0.109342E+00    0.537233E+00
   ------------------------------------------------------------------------

         :::::::::::::::::::::::::::::::::::::::::::::::::::::
         ::                  THERMODYNAMIC                  ::
         :::::::::::::::::::::::::::::::::::::::::::::::::::::
         :: total free energy        -102.941033660376 Eh   ::
         ::.................................................::
         :: total energy             -103.478266834657 Eh   ::
         :: zero point energy           0.605799682551 Eh   ::
         :: G(RRHO) w/o ZPVE           -0.068566508270 Eh   ::
         :: G(RRHO) contrib.            0.537233174281 Eh   ::
         :::::::::::::::::::::::::::::::::::::::::::::::::::::

           -------------------------------------------------
          | TOTAL ENERGY             -103.478266834657 Eh   |
          | TOTAL ENTHALPY           -102.831692065552 Eh   |
          | TOTAL FREE ENERGY        -102.941033660376 Eh   |
          | GRADIENT NORM               0.000074041550 Eh/α |
          | HOMO-LUMO GAP               3.346803238348 eV   |
           -------------------------------------------------

 * finished run on 2025/08/30 at 18:35:19.603
