   * xtb version 6.7.1 (edcfbbe) compiled by 'albert@albert-system' on 2024-07-22

   ID    Z sym.   atoms
    1    6 C      1-7, 9, 11, 13-39
    2   15 P      8, 10, 12
    3    1 H      40-76

          program call               : xtb data2507/gas/dTolmp/dTolmp_gas_S0_finalOpt.xtbopt.xyz --gfn 2 --spinpol --tblite --uhf 2 --ohess vtight --parallel 40 --molden --ceasefiles --namespace data2507/gas/dTolmp/dTolmp_gas_T1_preOpt
 * total energy  :  -103.3486781 Eh     change        0.3292911E-08 Eh
 * total energy  :  -103.3551991 Eh     change       -0.6520991E-02 Eh
 * total energy  :  -103.3564677 Eh     change       -0.1268678E-02 Eh
 * total energy  :  -103.3572883 Eh     change       -0.8205598E-03 Eh
 * total energy  :  -103.3589202 Eh     change       -0.1631917E-02 Eh
 * total energy  :  -103.3600339 Eh     change       -0.1113678E-02 Eh
 * total energy  :  -103.3614781 Eh     change       -0.1444169E-02 Eh
 * total energy  :  -103.3631854 Eh     change       -0.1707303E-02 Eh
 * total energy  :  -103.3637785 Eh     change       -0.5931720E-03 Eh
 * total energy  :  -103.3641246 Eh     change       -0.3460906E-03 Eh
 * total energy  :  -103.3738074 Eh     change       -0.5283066E-06 Eh
 * total energy  :  -103.3738081 Eh     change       -0.6877048E-06 Eh
 * total energy  :  -103.3738086 Eh     change       -0.5066092E-06 Eh
 * total energy  :  -103.3738091 Eh     change       -0.5595841E-06 Eh
 * total energy  :  -103.3738095 Eh     change       -0.3861513E-06 Eh
 * total energy  :  -103.3738098 Eh     change       -0.3055938E-06 Eh
 * total energy  :  -103.3738101 Eh     change       -0.2486422E-06 Eh
 * total energy  :  -103.3738103 Eh     change       -0.2083216E-06 Eh
 * total energy  :  -103.3738104 Eh     change       -0.9370939E-07 Eh
   *** GEOMETRY OPTIMIZATION CONVERGED AFTER 215 ITERATIONS ***

 final structure:
================
76
 xtb: 6.7.1 (edcfbbe)
C           -2.11886643379246       -3.16848109510875       -0.32475049476641
C           -2.74496874184284       -2.72322834935059        0.95949473983163
C           -2.93182739584041       -3.61818149716471        2.00503751068274
C           -3.51478814858224       -3.21735055683694        3.19461685810820
C           -3.93510695459951       -1.90687402992261        3.35242263587118
C           -3.74889871884494       -1.00156867438266        2.32486231577544
C           -3.12199865422146       -1.39352493642847        1.15001195728770
P           -3.05380020541359       -0.11896173286190       -0.33627370519465
C           -2.21664864859232        1.23885833613690        0.60271989260148
P           -0.52980513191498        1.21996451658221       -0.19603121602785
C            0.11028162441172       -0.27027288710385        0.71467027723250
P            1.27628193013559       -1.04245808685136       -0.50461301786255
C            2.12740103681373       -2.27829351724491        0.55079992283884
C            1.54744950387124       -2.76831688872918        1.71697093228621
C            2.17788352414021       -3.74683804728229        2.46396028628422
C            3.39459467612657       -4.25520281218304        2.04640729959177
C            3.96151261587968       -3.79736455824666        0.86970756542043
C            3.33760796823715       -2.82404891410646        0.10396577377321
C            3.95433988006436       -2.36065945138438       -1.17822099621819
C            2.49620227287482        0.33747814298335       -0.41930615052396
C            3.17523860381294        0.59254642603661        0.76691306192626
C            4.03722340946616        1.66661040364255        0.86924090949574
C            4.23279753043513        2.49266795400337       -0.22402448146804
C            3.57301604483147        2.23304121326371       -1.41079730139074
C            2.69839130851511        1.16024715049565       -1.52893003282722
C            1.97595430154979        0.91298481624141       -2.81605589532040
C            0.29881671156986        2.55529362044569        0.75605643114397
C            0.88901826406166        3.57651495065705        0.02104467723677
C            1.56360172130849        4.60193815576677        0.65737319731454
C            1.64787416915421        4.61864209836083        2.03854219402666
C            1.04414792579956        3.61568343976409        2.77961091646679
C            0.37053862456752        2.58996444386805        2.14406135128693
C           -3.27577885507962        0.98848307107865       -1.92873064963200
C           -4.22716129546416        1.99444152951280       -1.87510242235927
C           -4.50406459219823        2.75061243904830       -2.99898858129323
C           -3.84142068495491        2.47829761312495       -4.18380034166224
C           -2.91980295582556        1.44761817225082       -4.24138630055804
C           -2.63624201824002        0.67329347833099       -3.12330406609831
C           -1.67075142926380       -0.46638125304502       -3.20651933097532
H           -2.64485492366833       -2.71965171875967       -1.16710326779670
H           -1.07318469000134       -2.85550823863398       -0.38190715658595
H           -2.15117533124669       -4.25161928665985       -0.41689434964208
H           -2.61892385825077       -4.64584968082014        1.88011705278441
H           -3.65427763205315       -3.93060534919867        3.99375476487275
H           -4.41067991851511       -1.59258821583211        4.27059577875082
H           -4.09142046554628        0.01999974462631        2.43292099018923
H           -2.15823849884156        1.04704589517334        1.67537038114440
H           -2.68984894072705        2.20169758123274        0.40112400395266
H           -0.73066852675288       -0.94141176475176        0.90546774096119
H            0.61263005720867       -0.00560014726131        1.64845553071095
H            0.59071152058900       -2.39203480438124        2.04998412354325
H            1.71578035404704       -4.11207428157810        3.36974656845768
H            3.89543039780104       -5.01528572164422        2.62796808620177
H            4.90303146166607       -4.20940145918337        0.53368034131745
H            3.18026879399598       -2.19042435835383       -1.92822325135287
H            4.48607195036318       -1.42003035826924       -1.02835916662861
H            4.65877227678997       -3.09714591746294       -1.55858415508196
H            3.03414787683360       -0.06417550703723        1.61580872408902
H            4.55451936946894        1.85867682744118        1.79797877797864
H            4.90345429923335        3.33644406525558       -0.15221925892380
H            3.73511763381783        2.87766000561511       -2.26367859505981
H            0.94487197054926        1.26053148112501       -2.73378612888378
H            1.94866975749473       -0.15149840991760       -3.04425641938427
H            2.45358354309328        1.44094662843181       -3.63822621364715
H            0.81971480422457        3.55434376440900       -1.05774299867306
H            2.02666864310780        5.38613897450256        0.07637769642100
H            2.17927353226298        5.41409505619156        2.54031911694541
H            1.10028467947275        3.63377100040522        3.85895324001519
H           -0.10002406348362        1.81693450734507        2.73735523527594
H           -4.74597781064069        2.18923546053065       -0.94431115196804
H           -5.23448126576329        3.54558455248974       -2.95083237271386
H           -4.05008519060712        3.06408282449738       -5.06723319834067
H           -2.41292534467267        1.23338655276976       -5.17254036113802
H           -1.06589004552698       -0.52517634806876       -2.29978598059216
H           -2.21497125219410       -1.40605379969032       -3.30880039035333
H           -1.01287486116914       -0.35919009173543       -4.06569760638807

 projected vibrational frequencies (cm⁻¹)
eigval :       -0.00    -0.00    -0.00     0.00     0.00     0.00
eigval :       11.94    16.11    18.29    22.32    25.99    37.14
eigval :       39.46    41.81    46.19    51.34    58.54    59.35
eigval :       71.35    77.25    86.91    92.86    99.61   102.57
eigval :      123.38   135.55   142.44   143.87   149.27   152.96
eigval :      162.98   167.30   170.15   193.33   201.67   206.06
eigval :      214.61   228.69   239.99   245.05   265.31   274.97
eigval :      291.47   313.22   324.10   334.65   362.78   367.54
eigval :      367.83   374.26   392.21   401.13   404.84   413.19
eigval :      417.89   418.99   421.10   437.48   446.23   459.45
eigval :      475.47   484.85   495.06   511.53   518.02   534.78
eigval :      537.58   584.96   598.74   615.84   643.91   653.37
eigval :      655.79   656.78   657.66   670.67   676.80   680.10
eigval :      683.45   710.68   721.38   737.99   741.78   757.46
eigval :      760.33   763.84   766.47   774.74   791.43   805.97
eigval :      806.89   808.85   809.40   873.80   874.42   875.70
eigval :      877.51   881.73   899.84   905.77   907.37   911.09
eigval :      914.84   921.39   921.88   925.83   927.08   927.57
eigval :      931.98   963.31   968.77   988.38   990.29   994.39
eigval :      997.39   997.64   998.85  1008.34  1022.35  1025.10
eigval :     1026.84  1029.47  1045.13  1047.50  1055.38  1081.15
eigval :     1088.74  1094.02  1096.77  1102.55  1110.75  1116.17
eigval :     1123.38  1145.21  1149.24  1161.38  1162.08  1177.91
eigval :     1178.69  1181.47  1183.82  1186.16  1199.02  1223.02
eigval :     1227.45  1231.86  1234.51  1256.84  1258.52  1264.03
eigval :     1264.90  1276.08  1312.40  1314.34  1315.22  1317.04
eigval :     1318.84  1353.36  1360.45  1390.07  1396.03  1398.33
eigval :     1401.74  1407.89  1412.90  1423.40  1424.45  1425.30
eigval :     1445.93  1452.30  1455.32  1455.87  1456.27  1460.93
eigval :     1463.40  1468.23  1472.07  1472.99  1473.74  1475.65
eigval :     1478.66  1561.69  1565.92  1572.70  1576.00  1576.72
eigval :     1580.43  1583.46  1589.13  1590.16  1592.51  2916.41
eigval :     2935.84  2939.58  2950.20  2960.60  2972.62  2980.92
eigval :     2984.29  2992.98  2995.54  3003.22  3013.91  3031.57
eigval :     3033.73  3033.88  3036.28  3036.46  3039.79  3049.87
eigval :     3050.91  3059.95  3062.05  3064.12  3064.84  3065.62
eigval :     3069.40  3069.55  3069.78  3070.07  3074.51  3078.51
eigval :     3078.77  3084.05  3085.74  3086.86  3088.44  3089.63

   temp. (K)  partition function   enthalpy   heat capacity  entropy
                                   cal/mol     cal/K/mol   cal/K/mol   J/K/mol
 298.15  VIB  0.272E+20            23735.009    139.411    151.557
         ROT  0.391E+08              888.752      2.981     37.723
         INT  0.106E+28            24623.761    142.392    189.280
         TR   0.129E+29             1481.254      4.968     44.847
         TOT                       26105.0150   147.3600   234.1266   979.5856

       T/K    H(0)-H(T)+PV         H(T)/Eh          T*S/Eh         G(T)/Eh
   ------------------------------------------------------------------------
    298.15    0.416010E-01    0.644957E+00    0.111241E+00    0.533716E+00
   ------------------------------------------------------------------------

         :::::::::::::::::::::::::::::::::::::::::::::::::::::
         ::                  THERMODYNAMIC                  ::
         :::::::::::::::::::::::::::::::::::::::::::::::::::::
         :: total free energy        -102.840094782477 Eh   ::
         ::.................................................::
         :: total energy             -103.373810374277 Eh   ::
         :: zero point energy           0.603355696197 Eh   ::
         :: G(RRHO) w/o ZPVE           -0.069640104397 Eh   ::
         :: G(RRHO) contrib.            0.533715591800 Eh   ::
         :::::::::::::::::::::::::::::::::::::::::::::::::::::

           -------------------------------------------------
          | TOTAL ENERGY             -103.373810374277 Eh   |
          | TOTAL ENTHALPY           -102.728853688674 Eh   |
          | TOTAL FREE ENERGY        -102.840094782477 Eh   |
          | GRADIENT NORM               0.000059789069 Eh/α |
           -------------------------------------------------

 * finished run on 2025/08/30 at 18:35:42.508
