   * xtb version 6.7.1 (edcfbbe) compiled by 'albert@albert-system' on 2024-07-22

   ID    Z sym.   atoms
    1    6 C      1-4, 6-13, 15, 16, 18-31
    2   15 P      5, 17
    3   16 S      14
    4    1 H      32-53

          program call               : xtb data2507/toluene/1G-F1/1G-F1_toluene_T1_crest.xyz --gfn 2 --uhf 2 --gbsa toluene --ohess vtight --parallel 40 --molden --ceasefiles --namespace data2507/toluene/1G-F1/1G-F1_toluene_T1_finalOpt
      * Solvation model:               GBSA
        Solvent                        toluene
        Solvent mass                       9.2140E+01 g/mol
          :  Hamiltonian                  GFN2-xTB          :
 * total energy  :   -79.3276464 Eh     change       -0.7382070E-08 Eh
 * total energy  :   -79.3276849 Eh     change       -0.3847446E-04 Eh
 * total energy  :   -79.3277169 Eh     change       -0.3201062E-04 Eh
 * total energy  :   -79.3277344 Eh     change       -0.1747941E-04 Eh
 * total energy  :   -79.3277577 Eh     change       -0.2335326E-04 Eh
 * total energy  :   -79.3277756 Eh     change       -0.1782207E-04 Eh
 * total energy  :   -79.3277937 Eh     change       -0.1809211E-04 Eh
 * total energy  :   -79.3278080 Eh     change       -0.1431891E-04 Eh
 * total energy  :   -79.3278152 Eh     change       -0.7213068E-05 Eh
 * total energy  :   -79.3278208 Eh     change       -0.5607013E-05 Eh
 * total energy  :   -79.3278502 Eh     change       -0.2374921E-06 Eh
 * total energy  :   -79.3278504 Eh     change       -0.2247723E-06 Eh
 * total energy  :   -79.3278507 Eh     change       -0.2561641E-06 Eh
 * total energy  :   -79.3278509 Eh     change       -0.2175909E-06 Eh
 * total energy  :   -79.3278511 Eh     change       -0.2014318E-06 Eh
 * total energy  :   -79.3278514 Eh     change       -0.2594639E-06 Eh
 * total energy  :   -79.3278518 Eh     change       -0.4218407E-06 Eh
 * total energy  :   -79.3278521 Eh     change       -0.3454132E-06 Eh
 * total energy  :   -79.3278522 Eh     change       -0.9357315E-07 Eh
   *** GEOMETRY OPTIMIZATION CONVERGED AFTER 32 ITERATIONS ***

 final structure:
================
53
 xtb: 6.7.1 (edcfbbe)
C            1.88406670105068        4.11009083522759       -0.43193741566673
C            1.69471663325918        3.68366306023575        0.87603009552307
C            1.55914349686174        2.34059845835333        1.15394295587657
C            1.63559028144582        1.39743328395880        0.12236009979632
P            1.29731921609230       -0.34368324222356        0.49096939366545
C            2.93962346763886       -1.08859084572596        0.80950287280116
C            3.05559237958383       -2.47698524160615        0.74643795531031
C            4.25845699938176       -3.08372045775305        1.04768533297595
C            5.34161254317027       -2.31485979594369        1.45201784414019
C            5.21707182127025       -0.93729521423542        1.55232587100840
C            4.01716611079575       -0.32181033913046        1.24909566770066
C            0.71352897923915       -1.15110068086321       -0.99278717751547
C            1.25897321071533       -1.64462794151831       -2.14428832131104
S            0.00510921174864       -2.12394094543493       -3.27186645798819
C           -1.25179899551094       -1.64781691979251       -2.14637661345868
C           -0.70949113306719       -1.15290132340897       -0.99399991562189
P           -1.29803928257819       -0.34751167746293        0.48889109830646
C           -1.64087419399066        1.39269348344717        0.12018027317416
C           -1.81057252816021        1.82926276061371       -1.19725921299225
C           -1.94324327894866        3.17538400766048       -1.46298330381431
C           -1.89604986077264        4.10527471307545       -0.43151750633163
C           -1.71393549075876        3.67751800768199        0.87701980628570
C           -1.57502917238762        2.33452248592875        1.15373024076688
C           -2.93846094818435       -1.09765416508938        0.80496547486098
C           -4.01958615406479       -0.33476087527078        1.24252595539330
C           -5.21764512335992       -0.95470481129757        1.54404466859544
C           -5.33692731441577       -2.33274003684518        1.44388249497274
C           -4.25026027258222       -3.09766300731314        1.04148147539529
C           -3.04919268639165       -2.48649680843813        0.74208222969325
C            1.81262957708340        1.83257021698789       -1.19462382000697
C            1.94179057039273        3.17879055102628       -1.46158606977118
H            1.98261793060115        5.16296078158140       -0.64976034306557
H            1.65006194480894        4.40672072786951        1.67778287632687
H            1.40969328804524        1.99910087884317        2.16962234213391
H            2.20130191888227       -3.06550400528620        0.43788029161085
H            4.35393767738433       -4.15746877337421        0.97451762165647
H            6.27936717135665       -2.79135068144739        1.69684222739372
H            6.05921176485862       -0.34015075582941        1.87128817291369
H            3.91641551482809        0.75233241939408        1.31894619777837
H            2.28589025861943       -1.78703004327926       -2.41509738968614
H           -2.27793263537222       -1.79278988281038       -2.41879179776353
H           -1.84346705264932        1.10392768369015       -1.99898168176649
H           -2.08383816133938        3.50750770490014       -2.48194391422770
H           -1.99717176525684        5.15809813934617       -0.64837615680897
H           -1.67744054180614        4.39947677549009        1.68018166202974
H           -1.43093665223805        1.99201740009563        2.16986235223140
H           -3.92313131727275        0.73978418304195        1.31218204026549
H           -6.06251563178079       -0.36064147226800        1.86153762791266
H           -6.27329353516505       -2.81264671085317        1.68736058950197
H           -4.34160594630218       -4.17176469041333        0.96825335377201
H           -2.19220746496919       -3.07190278306962        0.43505338194486
H            1.85397877516048        1.10605027983535       -1.99488614036678
H            2.08818819985192        3.50986177049282       -2.48007898624358

          :  Hamiltonian                  GFN2-xTB          :
         :: gradient norm              0.000032334142 Eh/a0 ::
         :: HOMO-LUMO gap              0.429944342304 eV    ::
         :: SCC energy               -80.747864650607 Eh    ::
         :: -> dispersion             -0.083557655396 Eh    ::
         :: -> Gsolv                  -0.033592086448 Eh    ::
         :: repulsion energy           1.420012432687 Eh    ::

    * Orbital Energies and Occupations

         #    Occupation            Energy/Eh            Energy/eV
      -------------------------------------------------------------
         1        2.0000           -0.7197835             -19.5863
       ...           ...                  ...                  ...
        64        2.0000           -0.4206226             -11.4457
        65        2.0000           -0.4173955             -11.3579
        66        2.0000           -0.4143878             -11.2761
        67        2.0000           -0.4143738             -11.2757
        68        2.0000           -0.4135733             -11.2539
        69        2.0000           -0.4055098             -11.0345
        70        2.0000           -0.4031341             -10.9698
        71        2.0000           -0.4019318             -10.9371
        72        2.0000           -0.3992839             -10.8651
        73        2.0000           -0.3892428             -10.5918
        74        2.0000           -0.3856842             -10.4950
        75        1.0000           -0.3477900              -9.4638
        76        0.9998           -0.2638947              -7.1809 (HOMO)
        77        0.0002           -0.2480945              -6.7510 (LUMO)
        78                         -0.2404147              -6.5420
        79                         -0.2376342              -6.4664
        80                         -0.2349229              -6.3926
        81                         -0.2328822              -6.3370
        82                         -0.2325812              -6.3289
        83                         -0.2298392              -6.2542
        84                         -0.2205642              -6.0019
        85                         -0.2065650              -5.6209
        86                         -0.2040751              -5.5532
        87                         -0.1810339              -4.9262
       ...                                ...                  ...
       161                          1.4758091              40.1588
      -------------------------------------------------------------
                  HL-Gap            0.0158003 Eh            0.4299 eV

     #   Z          covCN         q      C6AA      α(0)
     1   6 C        2.919    -0.035    28.879     8.812
     2   6 C        2.917    -0.029    28.727     8.789
     3   6 C        3.001    -0.028    28.676     8.784
     4   6 C        2.918     0.017    27.636     8.621
     5  15 P        4.200    -0.077   163.698    22.983
     6   6 C        2.919     0.021    27.535     8.605
     7   6 C        3.002    -0.022    28.539     8.763
     8   6 C        2.918    -0.026    28.652     8.778
     9   6 C        2.920    -0.026    28.643     8.776
    10   6 C        2.918    -0.025    28.638     8.776
    11   6 C        2.974    -0.025    28.611     8.774
    12   6 C        3.317     0.000    25.925     8.112
    13   6 C        2.941    -0.033    28.826     8.806
    14  16 S        2.268    -0.127   146.399    20.364
    15   6 C        2.941    -0.033    28.826     8.806
    16   6 C        3.317     0.000    25.922     8.111
    17  15 P        4.200    -0.077   163.694    22.983
    18   6 C        2.918     0.017    27.635     8.621
    19   6 C        2.985    -0.027    28.666     8.783
    20   6 C        2.918    -0.029    28.731     8.790
    21   6 C        2.919    -0.035    28.878     8.812
    22   6 C        2.917    -0.029    28.726     8.789
    23   6 C        3.001    -0.028    28.676     8.784
    24   6 C        2.919     0.021    27.536     8.605
    25   6 C        2.974    -0.025    28.612     8.774
    26   6 C        2.918    -0.025    28.638     8.776
    27   6 C        2.920    -0.026    28.643     8.776
    28   6 C        2.918    -0.026    28.653     8.778
    29   6 C        3.002    -0.022    28.539     8.763
    30   6 C        2.986    -0.027    28.668     8.783
    31   6 C        2.918    -0.029    28.731     8.790
    32   1 H        0.926     0.033     2.550     2.497
    33   1 H        0.926     0.035     2.515     2.480
    34   1 H        0.925     0.038     2.481     2.463
    35   1 H        0.925     0.043     2.409     2.427
    36   1 H        0.926     0.042     2.419     2.432
    37   1 H        0.926     0.043     2.406     2.426
    38   1 H        0.926     0.043     2.412     2.429
    39   1 H        0.926     0.043     2.407     2.426
    40   1 H        0.926     0.028     2.612     2.527
    41   1 H        0.926     0.028     2.611     2.527
    42   1 H        0.925     0.028     2.617     2.530
    43   1 H        0.926     0.032     2.559     2.502
    44   1 H        0.926     0.033     2.549     2.497
    45   1 H        0.926     0.035     2.515     2.480
    46   1 H        0.925     0.038     2.480     2.463
    47   1 H        0.926     0.043     2.407     2.426
    48   1 H        0.926     0.043     2.412     2.429
    49   1 H        0.926     0.043     2.406     2.426
    50   1 H        0.926     0.042     2.419     2.432
    51   1 H        0.925     0.043     2.409     2.427
    52   1 H        0.925     0.028     2.616     2.530
    53   1 H        0.926     0.032     2.560     2.502

molecular dipole:
                 x           y           z       tot (Debye)
 q only:       -0.003       0.237       1.243
   full:       -0.003       0.387       1.132       3.041

 projected vibrational frequencies (cm⁻¹)
eigval :       -0.00    -0.00    -0.00    -0.00     0.00     0.00
eigval :       16.98    21.61    25.83    30.53    38.85    40.45
eigval :       43.72    54.07    55.79    57.17    63.45    78.18
eigval :      133.64   151.15   161.94   162.12   181.32   183.76
eigval :      193.08   214.03   224.89   231.38   252.41   294.33
eigval :      349.82   352.70   357.62   360.27   362.93   364.08
eigval :      375.33   405.91   410.30   424.89   428.23   430.97
eigval :      461.53   473.08   474.52   504.35   580.33   580.53
eigval :      582.17   582.63   622.27   634.09   634.49   640.86
eigval :      641.96   645.33   661.52   672.87   686.62   688.33
eigval :      710.77   718.98   728.03   732.46   733.38   782.81
eigval :      786.15   857.09   863.04   865.23   865.97   873.81
eigval :      877.87   893.32   893.67   914.44   915.53   916.95
eigval :      921.46   921.90   922.49   930.01   930.78   940.83
eigval :      961.30   961.68   962.23   963.36  1061.83  1062.17
eigval :     1068.35  1070.19  1071.93  1073.14  1073.89  1080.53
eigval :     1087.92  1091.06  1111.99  1112.58  1112.86  1113.85
eigval :     1174.38  1174.59  1174.98  1177.25  1187.34  1187.93
eigval :     1191.07  1194.61  1264.48  1264.84  1267.98  1268.97
eigval :     1303.51  1319.55  1319.92  1323.18  1324.61  1402.18
eigval :     1412.94  1416.26  1416.30  1416.97  1428.05  1429.04
eigval :     1431.82  1432.20  1443.89  1517.89  1526.36  1546.82
eigval :     1551.24  1554.02  1555.40  1560.69  1569.00  3049.83
eigval :     3049.94  3050.67  3053.06  3057.66  3058.33  3067.77
eigval :     3067.83  3069.93  3070.71  3073.23  3073.57  3073.71
eigval :     3074.61  3077.96  3078.08  3088.70  3090.06  3090.22
eigval :     3090.43  3156.18  3156.40

   temp. (K)  partition function   enthalpy   heat capacity  entropy
                                   cal/mol     cal/K/mol   cal/K/mol   J/K/mol
 298.15  VIB  0.240E+14            16533.674     99.232    104.150
         ROT  0.214E+08              888.752      2.981     36.526
         INT  0.515E+21            17422.426    102.212    140.676
         TR   0.931E+28             1481.254      4.968     44.198
         TOT                       18903.6804   107.1806   184.8734   773.5103

       T/K    H(0)-H(T)+PV         H(T)/Eh          T*S/Eh         G(T)/Eh
   ------------------------------------------------------------------------
    298.15    0.301249E-01    0.424904E+00    0.878393E-01    0.337065E+00
   ------------------------------------------------------------------------

         :::::::::::::::::::::::::::::::::::::::::::::::::::::
         ::                  THERMODYNAMIC                  ::
         :::::::::::::::::::::::::::::::::::::::::::::::::::::
         :: total free energy         -78.990787077184 Eh   ::
         ::.................................................::
         :: total energy              -79.327852218759 Eh   ::
         :: zero point energy           0.394779523083 Eh   ::
         :: G(RRHO) w/o ZPVE           -0.057714381508 Eh   ::
         :: G(RRHO) contrib.            0.337065141575 Eh   ::
         :::::::::::::::::::::::::::::::::::::::::::::::::::::

           -------------------------------------------------
          | TOTAL ENERGY              -79.327852218759 Eh   |
          | TOTAL ENTHALPY            -78.902947763446 Eh   |
          | TOTAL FREE ENERGY         -78.990787077184 Eh   |
          | GRADIENT NORM               0.000032811098 Eh/α |
          | HOMO-LUMO GAP               0.429946711622 eV   |
           -------------------------------------------------

 * finished run on 2025/09/12 at 12:04:15.195
