   * xtb version 6.7.1 (edcfbbe) compiled by 'albert@albert-system' on 2024-07-22

   ID    Z sym.   atoms
    1    6 C      1-4, 6-13, 15, 16, 18-31
    2   15 P      5, 17
    3   16 S      14
    4    1 H      32-53

          program call               : xtb data2507/toluene/1G-F1/1G-F1_toluene_S0_crest.xyz --gfn 2 --gbsa toluene --ohess vtight --parallel 40 --molden --ceasefiles --namespace data2507/toluene/1G-F1/1G-F1_toluene_S0_finalOpt
      * Solvation model:               GBSA
        Solvent                        toluene
        Solvent mass                       9.2140E+01 g/mol
          :  Hamiltonian                  GFN2-xTB          :
 * total energy  :   -79.4265485 Eh     change       -0.1806427E-08 Eh
 * total energy  :   -79.4265929 Eh     change       -0.4431740E-04 Eh
 * total energy  :   -79.4266250 Eh     change       -0.3215735E-04 Eh
 * total energy  :   -79.4266521 Eh     change       -0.2711921E-04 Eh
 * total energy  :   -79.4266749 Eh     change       -0.2276669E-04 Eh
 * total energy  :   -79.4266920 Eh     change       -0.1710450E-04 Eh
 * total energy  :   -79.4267025 Eh     change       -0.1050427E-04 Eh
 * total energy  :   -79.4267097 Eh     change       -0.7139200E-05 Eh
 * total energy  :   -79.4267150 Eh     change       -0.5353645E-05 Eh
 * total energy  :   -79.4267180 Eh     change       -0.2942161E-05 Eh
 * total energy  :   -79.4267512 Eh     change       -0.2843254E-06 Eh
 * total energy  :   -79.4267516 Eh     change       -0.4235348E-06 Eh
 * total energy  :   -79.4267518 Eh     change       -0.1699594E-06 Eh
 * total energy  :   -79.4267518 Eh     change        0.1396941E-08 Eh
 * total energy  :   -79.4267519 Eh     change       -0.1269790E-06 Eh
 * total energy  :   -79.4267520 Eh     change       -0.1582147E-06 Eh
 * total energy  :   -79.4267522 Eh     change       -0.1376821E-06 Eh
 * total energy  :   -79.4267523 Eh     change       -0.1220171E-06 Eh
 * total energy  :   -79.4267523 Eh     change       -0.3704565E-07 Eh
   *** GEOMETRY OPTIMIZATION CONVERGED AFTER 53 ITERATIONS ***

 final structure:
================
53
 xtb: 6.7.1 (edcfbbe)
C            1.40646913243258        3.95640827969738       -0.55151319561994
C            1.05088751194411        3.65796689251502        0.75249322034376
C            1.11183751110383        2.35096356774035        1.20258626771261
C            1.53273893873950        1.33652570579479        0.35155859161644
P            1.57004575772964       -0.37909689286864        1.00164685552152
C            3.33324521784782       -0.81349893742537        0.73732192271060
C            3.66959415837973       -2.16547212772597        0.78450953400987
C            4.98749418946088       -2.56579356981245        0.67418621428939
C            5.98975620956285       -1.61743395055215        0.53868326204111
C            5.66641318030167       -0.27108388036748        0.52485191879099
C            4.34635432989377        0.13235770120381        0.63133264088405
C            0.82753251627740       -1.19697566310526       -0.44280160026460
C            1.35790391907342       -1.89093205913338       -1.48120353422341
S            0.13362362425619       -2.49135139651016       -2.54317318847238
C           -1.10879198941401       -1.78834000574394       -1.57393317456746
C           -0.59889458667033       -1.13469991477375       -0.49841549063991
P           -1.41173800406914       -0.26087900358319        0.86971720263869
C           -1.78172982995041        1.36189007511852        0.10378467895253
C           -1.51614047362978        1.68849990694184       -1.21916195833060
C           -1.80602407522158        2.95686642909837       -1.69072093326020
C           -2.35908210036833        3.90716140486317       -0.84946637052247
C           -2.61945591105633        3.59019377596633        0.47437123636425
C           -2.32431254185387        2.32705692025875        0.94973485721056
C           -3.05809295936034       -1.07132794482216        0.75862483576108
C           -4.23619417496339       -0.43463096889728        0.38977705630542
C           -5.42811690774885       -1.13956673042793        0.37148540758748
C           -5.45705244805298       -2.47758343683680        0.72613431523242
C           -4.28683344820634       -3.11523804165827        1.10885538612583
C           -3.09726451117003       -2.41354803653826        1.13290838234921
C            1.89055722686171        1.64172219075138       -0.95750081999329
C            1.82758383620540        2.94783942573067       -1.40437485467672
H            1.35536419228923        4.97554403155320       -0.90620571731068
H            0.72233337788706        4.44308751479568        1.41778114116421
H            0.83174415849541        2.10526720814698        2.21817086175886
H            2.88429378425511       -2.90124518611742        0.90450077318780
H            5.23599970791975       -3.61739290353174        0.69944490194075
H            7.02094682661543       -1.92813918383027        0.45350599470551
H            6.44649179368837        0.47143924956478        0.43312106718064
H            4.10259556629156        1.18565453810172        0.62736466113841
H            2.38619129429724       -2.10919664993463       -1.69545372583819
H           -2.13489308188052       -1.91707886304511       -1.85986105537153
H           -1.08182270317436        0.95425165926413       -1.88264065818799
H           -1.59848785636623        3.20300876215141       -2.72233453145471
H           -2.58334059634623        4.89545258991821       -1.22366311555280
H           -3.04690778652327        4.33038858623024        1.13557624655363
H           -2.51578939218341        2.07203795892582        1.98448202870826
H           -4.22404388817405        0.60896692380237        0.10983376747574
H           -6.33938210352092       -0.63871954026199        0.07660598474094
H           -6.38959860177540       -3.02260676530482        0.70882577430356
H           -4.30511593167681       -4.15768599430719        1.39315186277239
H           -2.18010693246924       -2.90230514161131        1.43749776998889
H            2.22167706449434        0.85333010247438       -1.62051975623017
H            2.10622633402838        3.18123261001290       -2.42234604434072

          :  Hamiltonian                  GFN2-xTB          :
         :: gradient norm              0.000087530080 Eh/a0 ::
         :: HOMO-LUMO gap              2.902378824511 eV    ::
         :: SCC energy               -80.852885990188 Eh    ::
         :: -> dispersion             -0.085579713409 Eh    ::
         :: -> Gsolv                  -0.032197029846 Eh    ::
         :: repulsion energy           1.426133647241 Eh    ::

    * Orbital Energies and Occupations

         #    Occupation            Energy/Eh            Energy/eV
      -------------------------------------------------------------
         1        2.0000           -0.7369600             -20.0537
       ...           ...                  ...                  ...
        63        2.0000           -0.4175621             -11.3624
        64        2.0000           -0.4143365             -11.2747
        65        2.0000           -0.4127385             -11.2312
        66        2.0000           -0.4116527             -11.2016
        67        2.0000           -0.4086078             -11.1188
        68        2.0000           -0.4077433             -11.0953
        69        2.0000           -0.4066399             -11.0652
        70        2.0000           -0.4051670             -11.0252
        71        2.0000           -0.4040232             -10.9940
        72        2.0000           -0.3981194             -10.8334
        73        2.0000           -0.3977596             -10.8236
        74        2.0000           -0.3793108             -10.3216
        75        2.0000           -0.3664862              -9.9726 (HOMO)
        76                         -0.2598258              -7.0702 (LUMO)
        77                         -0.2454796              -6.6798
        78                         -0.2386420              -6.4938
        79                         -0.2363393              -6.4311
        80                         -0.2343975              -6.3783
        81                         -0.2300803              -6.2608
        82                         -0.2270969              -6.1796
        83                         -0.2267689              -6.1707
        84                         -0.2251737              -6.1273
        85                         -0.2155246              -5.8647
        86                         -0.2041942              -5.5564
       ...                                ...                  ...
       161                          1.1314642              30.7887
      -------------------------------------------------------------
                  HL-Gap            0.1066604 Eh            2.9024 eV

     #   Z          covCN         q      C6AA      α(0)
     1   6 C        2.921    -0.027    28.683     8.783
     2   6 C        2.919    -0.029    28.713     8.787
     3   6 C        3.005    -0.024    28.594     8.772
     4   6 C        2.918     0.023    27.484     8.597
     5  15 P        3.606    -0.125   165.891    23.137
     6   6 C        2.916     0.016    27.657     8.624
     7   6 C        3.012    -0.028    28.679     8.785
     8   6 C        2.918    -0.030    28.745     8.792
     9   6 C        2.920    -0.030    28.746     8.792
    10   6 C        2.919    -0.029    28.732     8.790
    11   6 C        2.966    -0.028    28.700     8.787
    12   6 C        3.204     0.005    27.319     8.514
    13   6 C        2.958    -0.022    28.548     8.764
    14  16 S        2.304    -0.039   142.670    20.103
    15   6 C        2.961    -0.019    28.470     8.752
    16   6 C        3.220     0.004    27.212     8.482
    17  15 P        3.614    -0.114   165.378    23.101
    18   6 C        2.918     0.021    27.545     8.606
    19   6 C        2.961    -0.026    28.643     8.778
    20   6 C        2.920    -0.029    28.717     8.788
    21   6 C        2.920    -0.029    28.721     8.788
    22   6 C        2.918    -0.029    28.728     8.789
    23   6 C        3.027    -0.026    28.611     8.774
    24   6 C        2.917     0.016    27.656     8.624
    25   6 C        2.957    -0.029    28.734     8.792
    26   6 C        2.919    -0.029    28.730     8.790
    27   6 C        2.920    -0.030    28.737     8.791
    28   6 C        2.918    -0.029    28.727     8.789
    29   6 C        3.026    -0.027    28.637     8.778
    30   6 C        2.972    -0.024    28.603     8.773
    31   6 C        2.919    -0.029    28.726     8.789
    32   1 H        0.926     0.036     2.502     2.473
    33   1 H        0.926     0.036     2.507     2.476
    34   1 H        0.925     0.044     2.398     2.422
    35   1 H        0.925     0.034     2.525     2.485
    36   1 H        0.926     0.034     2.530     2.487
    37   1 H        0.926     0.034     2.524     2.484
    38   1 H        0.926     0.033     2.537     2.491
    39   1 H        0.926     0.032     2.560     2.502
    40   1 H        0.926     0.046     2.369     2.407
    41   1 H        0.926     0.045     2.387     2.416
    42   1 H        0.926     0.027     2.633     2.537
    43   1 H        0.926     0.033     2.538     2.491
    44   1 H        0.926     0.037     2.495     2.470
    45   1 H        0.926     0.037     2.482     2.464
    46   1 H        0.925     0.040     2.447     2.446
    47   1 H        0.926     0.034     2.529     2.487
    48   1 H        0.926     0.035     2.519     2.482
    49   1 H        0.926     0.036     2.507     2.476
    50   1 H        0.926     0.036     2.508     2.476
    51   1 H        0.925     0.036     2.501     2.473
    52   1 H        0.925     0.033     2.543     2.494
    53   1 H        0.926     0.035     2.516     2.480

molecular dipole:
                 x           y           z       tot (Debye)
 q only:       -0.169       0.527      -0.275
   full:       -0.169       0.658      -0.646       2.384

 projected vibrational frequencies (cm⁻¹)
eigval :       -0.00    -0.00     0.00     0.00     0.00     0.00
eigval :        8.53    23.11    26.23    33.83    39.41    43.99
eigval :       49.15    52.76    55.74    63.55    69.50    76.44
eigval :       96.99   166.66   170.28   184.98   191.12   196.56
eigval :      211.61   218.36   237.03   240.60   281.55   323.47
eigval :      359.51   363.39   365.55   369.51   377.06   387.76
eigval :      404.33   416.30   422.15   434.32   440.44   461.03
eigval :      477.17   491.77   492.34   585.03   585.48   585.73
eigval :      586.24   600.41   654.17   655.84   656.81   657.69
eigval :      676.39   682.65   689.77   693.02   694.39   735.10
eigval :      737.91   739.54   742.91   746.45   760.49   836.40
eigval :      838.76   871.63   872.31   874.42   878.31   896.45
eigval :      898.03   899.05   900.69   924.84   925.92   926.95
eigval :      930.14   930.63   931.68   932.74   933.50   943.27
eigval :      967.01   967.72   968.03   968.62  1078.94  1080.40
eigval :     1080.63  1081.10  1089.46  1108.12  1109.33  1112.09
eigval :     1113.93  1114.97  1116.59  1117.31  1117.62  1119.30
eigval :     1177.89  1179.02  1180.36  1180.75  1191.92  1196.54
eigval :     1197.45  1199.20  1272.54  1274.08  1276.43  1276.57
eigval :     1302.79  1314.21  1314.64  1316.24  1316.95  1419.67
eigval :     1420.22  1421.99  1423.84  1445.85  1450.27  1450.76
eigval :     1451.83  1452.16  1507.81  1574.79  1575.48  1577.65
eigval :     1578.75  1584.19  1584.81  1586.08  1586.70  3045.22
eigval :     3045.52  3047.01  3056.23  3057.95  3062.89  3066.71
eigval :     3067.79  3068.81  3069.03  3071.08  3072.08  3073.27
eigval :     3075.60  3076.77  3078.31  3085.68  3086.33  3086.97
eigval :     3087.31  3148.03  3149.83

   temp. (K)  partition function   enthalpy   heat capacity  entropy
                                   cal/mol     cal/K/mol   cal/K/mol   J/K/mol
 298.15  VIB  0.166E+14            16050.872     97.071    101.912
         ROT  0.210E+08              888.752      2.981     36.489
         INT  0.349E+21            16939.624    100.052    138.401
         TR   0.931E+28             1481.254      4.968     44.198
         TOT                       18420.8783   105.0199   182.5991   763.9946

       T/K    H(0)-H(T)+PV         H(T)/Eh          T*S/Eh         G(T)/Eh
   ------------------------------------------------------------------------
    298.15    0.293555E-01    0.428458E+00    0.867587E-01    0.341699E+00
   ------------------------------------------------------------------------

         :::::::::::::::::::::::::::::::::::::::::::::::::::::
         ::                  THERMODYNAMIC                  ::
         :::::::::::::::::::::::::::::::::::::::::::::::::::::
         :: total free energy         -79.085052868708 Eh   ::
         ::.................................................::
         :: total energy              -79.426752339510 Eh   ::
         :: zero point energy           0.399102655161 Eh   ::
         :: G(RRHO) w/o ZPVE           -0.057403184358 Eh   ::
         :: G(RRHO) contrib.            0.341699470803 Eh   ::
         :::::::::::::::::::::::::::::::::::::::::::::::::::::

           -------------------------------------------------
          | TOTAL ENERGY              -79.426752339510 Eh   |
          | TOTAL ENTHALPY            -78.998294146213 Eh   |
          | TOTAL FREE ENERGY         -79.085052868708 Eh   |
          | GRADIENT NORM               0.000087534355 Eh/α |
          | HOMO-LUMO GAP               2.902378356622 eV   |
           -------------------------------------------------

 * finished run on 2025/09/12 at 12:02:22.677
