   * xtb version 6.7.1 (edcfbbe) compiled by 'albert@albert-system' on 2024-07-22

   ID    Z sym.   atoms
    1    6 C      1-4, 6-13, 15, 16, 18-31
    2   15 P      5, 17
    3   16 S      14
    4    1 H      32-53

          program call               : xtb data2507/toluene/1G-F1/1G-F1_toluene_S0_finalOpt.xtbopt.xyz --gfn 2 --uhf 2 --gbsa toluene --ohess vtight --parallel 40 --molden --ceasefiles --namespace data2507/toluene/1G-F1/1G-F1_toluene_T1_preOpt
      * Solvation model:               GBSA
        Solvent                        toluene
        Solvent mass                       9.2140E+01 g/mol
          :  Hamiltonian                  GFN2-xTB          :
 * total energy  :   -79.3097927 Eh     change       -0.9699477E-09 Eh
 * total energy  :   -79.3176637 Eh     change       -0.7871013E-02 Eh
 * total energy  :   -79.3197801 Eh     change       -0.2116391E-02 Eh
 * total energy  :   -79.3205826 Eh     change       -0.8024913E-03 Eh
 * total energy  :   -79.3218620 Eh     change       -0.1279414E-02 Eh
 * total energy  :   -79.3225933 Eh     change       -0.7313178E-03 Eh
 * total energy  :   -79.3230525 Eh     change       -0.4591317E-03 Eh
 * total energy  :   -79.3235325 Eh     change       -0.4800725E-03 Eh
 * total energy  :   -79.3240427 Eh     change       -0.5101652E-03 Eh
 * total energy  :   -79.3245511 Eh     change       -0.5083923E-03 Eh
 * total energy  :   -79.3278456 Eh     change       -0.5818959E-06 Eh
 * total energy  :   -79.3278460 Eh     change       -0.4439601E-06 Eh
 * total energy  :   -79.3278463 Eh     change       -0.3315964E-06 Eh
 * total energy  :   -79.3278467 Eh     change       -0.3614023E-06 Eh
 * total energy  :   -79.3278471 Eh     change       -0.3981830E-06 Eh
 * total energy  :   -79.3278475 Eh     change       -0.3689688E-06 Eh
 * total energy  :   -79.3278478 Eh     change       -0.3286761E-06 Eh
 * total energy  :   -79.3278481 Eh     change       -0.2528702E-06 Eh
 * total energy  :   -79.3278481 Eh     change       -0.2449688E-07 Eh
   *** GEOMETRY OPTIMIZATION CONVERGED AFTER 54 ITERATIONS ***

 final structure:
================
53
 xtb: 6.7.1 (edcfbbe)
C            1.55413833719007        4.23645798631518       -0.71809850694643
C            1.35348665916356        3.85406155521357        0.60196567017360
C            1.32084213279898        2.51824148521040        0.93886663574940
C            1.51388596759538        1.54001250092358       -0.04386345805529
P            1.30341282699162       -0.20482906488028        0.39424620495965
C            2.98778503487172       -0.80387725821255        0.79005001639385
C            3.21193819088860       -2.18035953986714        0.79372041945122
C            4.44968995051060       -2.67728753868301        1.14960416335679
C            5.45893054705803       -1.80880534639864        1.54328886111794
C            5.22544131231559       -0.44228754505128        1.57886267786435
C            3.99014883216466        0.06365551770876        1.21980492820108
C            0.82631926841326       -1.11928175588098       -1.06536653821323
C            1.43953675104822       -1.62286923723241       -2.17797005064107
S            0.25742264130504       -2.24765283035471       -3.31181116958269
C           -1.06308655662985       -1.81633188030816       -2.24259896454481
C           -0.59201143109521       -1.22883275431332       -1.10257727805908
P           -1.28200746062841       -0.40712781080745        0.32628109148900
C           -1.74618703254834        1.28281892661859       -0.13139902388371
C           -1.86714120639566        1.66077024567570       -1.47202145496163
C           -2.09538599788581        2.98105566577760       -1.79579485439589
C           -2.19200993218033        3.94437531814728       -0.79897634420078
C           -2.05721564741777        3.57656185173033        0.53329555601913
C           -1.82321928655599        2.26024374405397        0.86813736515106
C           -2.86682184143272       -1.27186090428393        0.63590632162791
C           -4.02943944081565       -0.58233505971568        0.97434568628476
C           -5.18122011530726       -1.28719931632758        1.27029764821666
C           -5.17472792475059       -2.67389665930195        1.26236248960635
C           -4.00773232652949       -3.36251523409126        0.95954781245500
C           -2.85229514656216       -2.66609031914857        0.66718939904108
C            1.70170269588971        1.92966045784054       -1.37375410237705
C            1.72721684383513        3.26866594106895       -1.70005180920925
H            1.57205095353018        5.28318277645980       -0.98220564205207
H            1.21891661069366        4.60591864241993        1.36628968843012
H            1.16273044573311        2.21050795835451        1.96400527174525
H            2.41371977996243       -2.84656450841008        0.49311824545064
H            4.63001204063915       -3.74237849459454        1.12723151222121
H            6.42380686661852       -2.19919699729742        1.83119221898771
H            6.01035990488600        0.23190419435430        1.89028241357788
H            3.80447542950896        1.12861782163831        1.23856206011636
H            2.48142737851491       -1.69847448816893       -2.41643155792647
H           -2.06757318785016       -2.05025158674460       -2.53322655656362
H           -1.78818587100311        0.90994701238385       -2.24652044645035
H           -2.19826431450609        3.26673007142009       -2.83317352206867
H           -2.36733876450414        4.97698617129136       -1.06097214607576
H           -2.13182945095649        4.32485910653392        1.30927703207725
H           -1.71372844981981        1.96475614641660        1.90324439656213
H           -4.03138433510985        0.49861488217789        0.97104988522634
H           -6.08884095802740       -0.75236219171994        1.51048005569301
H           -6.07577169482627       -3.21935022726932        1.50077416247116
H           -4.00127812241600       -4.44293868515142        0.95902755507380
H           -1.93324509815692       -3.18993995317201        0.43792789607848
H            1.83304967032986        1.17407707969869       -2.13650514026065
H            1.88226057018850        3.56551330666378       -2.72780041382601

          :  Hamiltonian                  GFN2-xTB          :
         :: gradient norm              0.000132437009 Eh/a0 ::
         :: HOMO-LUMO gap              0.425555819505 eV    ::
         :: SCC energy               -80.747903098475 Eh    ::
         :: -> dispersion             -0.083643730467 Eh    ::
         :: -> Gsolv                  -0.033579773474 Eh    ::
         :: repulsion energy           1.420055013429 Eh    ::

    * Orbital Energies and Occupations

         #    Occupation            Energy/Eh            Energy/eV
      -------------------------------------------------------------
         1        2.0000           -0.7197646             -19.5858
       ...           ...                  ...                  ...
        64        2.0000           -0.4204985             -11.4423
        65        2.0000           -0.4174569             -11.3596
        66        2.0000           -0.4144773             -11.2785
        67        2.0000           -0.4144095             -11.2767
        68        2.0000           -0.4135481             -11.2532
        69        2.0000           -0.4057116             -11.0400
        70        2.0000           -0.4031364             -10.9699
        71        2.0000           -0.4018747             -10.9356
        72        2.0000           -0.3993372             -10.8665
        73        2.0000           -0.3891980             -10.5906
        74        2.0000           -0.3856725             -10.4947
        75        1.0000           -0.3476628              -9.4604
        76        0.9997           -0.2637935              -7.1782 (HOMO)
        77        0.0003           -0.2481547              -6.7526 (LUMO)
        78                         -0.2404129              -6.5420
        79                         -0.2376822              -6.4677
        80                         -0.2350217              -6.3953
        81                         -0.2329387              -6.3386
        82                         -0.2325733              -6.3286
        83                         -0.2298065              -6.2534
        84                         -0.2205470              -6.0014
        85                         -0.2065366              -5.6201
        86                         -0.2040248              -5.5518
        87                         -0.1810164              -4.9257
       ...                                ...                  ...
       161                          1.4768822              40.1880
      -------------------------------------------------------------
                  HL-Gap            0.0156388 Eh            0.4256 eV

     #   Z          covCN         q      C6AA      α(0)
     1   6 C        2.919    -0.036    28.885     8.813
     2   6 C        2.917    -0.029    28.730     8.790
     3   6 C        3.001    -0.028    28.679     8.785
     4   6 C        2.918     0.017    27.642     8.622
     5  15 P        4.203    -0.078   163.716    22.984
     6   6 C        2.919     0.021    27.529     8.604
     7   6 C        3.002    -0.022    28.538     8.763
     8   6 C        2.918    -0.026    28.651     8.778
     9   6 C        2.920    -0.026    28.641     8.776
    10   6 C        2.919    -0.025    28.637     8.775
    11   6 C        2.974    -0.024    28.607     8.773
    12   6 C        3.317     0.000    25.938     8.116
    13   6 C        2.941    -0.033    28.831     8.806
    14  16 S        2.268    -0.127   146.398    20.364
    15   6 C        2.941    -0.033    28.825     8.805
    16   6 C        3.319     0.000    25.882     8.101
    17  15 P        4.202    -0.077   163.702    22.984
    18   6 C        2.918     0.017    27.631     8.620
    19   6 C        2.985    -0.027    28.658     8.781
    20   6 C        2.918    -0.029    28.729     8.789
    21   6 C        2.919    -0.035    28.872     8.811
    22   6 C        2.917    -0.029    28.724     8.789
    23   6 C        3.002    -0.028    28.675     8.784
    24   6 C        2.919     0.021    27.535     8.605
    25   6 C        2.972    -0.025    28.614     8.774
    26   6 C        2.919    -0.025    28.638     8.776
    27   6 C        2.920    -0.026    28.643     8.776
    28   6 C        2.918    -0.026    28.653     8.778
    29   6 C        3.005    -0.022    28.535     8.763
    30   6 C        2.986    -0.027    28.671     8.783
    31   6 C        2.918    -0.029    28.732     8.790
    32   1 H        0.926     0.032     2.554     2.499
    33   1 H        0.926     0.035     2.520     2.482
    34   1 H        0.925     0.037     2.485     2.465
    35   1 H        0.925     0.043     2.407     2.426
    36   1 H        0.926     0.042     2.417     2.431
    37   1 H        0.926     0.043     2.404     2.425
    38   1 H        0.926     0.043     2.411     2.428
    39   1 H        0.926     0.043     2.407     2.426
    40   1 H        0.926     0.028     2.613     2.528
    41   1 H        0.926     0.028     2.612     2.527
    42   1 H        0.925     0.028     2.619     2.530
    43   1 H        0.926     0.032     2.559     2.502
    44   1 H        0.926     0.033     2.547     2.496
    45   1 H        0.926     0.035     2.512     2.478
    46   1 H        0.925     0.038     2.481     2.463
    47   1 H        0.926     0.043     2.406     2.426
    48   1 H        0.926     0.043     2.411     2.428
    49   1 H        0.926     0.043     2.406     2.425
    50   1 H        0.926     0.042     2.419     2.432
    51   1 H        0.925     0.043     2.409     2.427
    52   1 H        0.925     0.028     2.618     2.530
    53   1 H        0.926     0.032     2.562     2.503

molecular dipole:
                 x           y           z       tot (Debye)
 q only:       -0.062       0.280       1.232
   full:       -0.070       0.426       1.116       3.043

 projected vibrational frequencies (cm⁻¹)
eigval :       -0.00    -0.00    -0.00    -0.00     0.00     0.00
eigval :       15.83    21.10    24.13    31.51    36.89    39.25
eigval :       42.25    50.21    52.34    55.71    58.86    69.92
eigval :      132.73   150.55   160.63   161.84   181.96   184.08
eigval :      192.47   213.16   223.98   230.96   251.64   294.37
eigval :      349.10   351.55   358.55   359.93   361.48   364.34
eigval :      373.90   404.79   410.36   423.77   428.41   430.84
eigval :      460.76   473.12   474.15   505.41   580.32   580.64
eigval :      581.72   582.24   616.71   633.01   634.10   637.74
eigval :      639.42   643.06   661.34   672.68   686.69   688.36
eigval :      710.74   720.39   728.27   732.30   733.57   782.36
eigval :      785.88   858.68   863.84   865.50   866.18   874.37
eigval :      878.14   893.71   894.71   916.21   917.66   917.97
eigval :      920.50   922.33   922.78   928.51   929.80   940.88
eigval :      961.25   961.63   962.16   963.21  1061.71  1062.59
eigval :     1066.81  1070.03  1071.20  1073.74  1075.09  1080.51
eigval :     1087.19  1088.74  1111.26  1112.66  1113.13  1113.74
eigval :     1173.56  1175.89  1176.08  1176.38  1188.02  1189.03
eigval :     1189.92  1193.30  1265.29  1265.85  1267.37  1268.24
eigval :     1303.40  1319.28  1319.66  1323.11  1324.62  1401.93
eigval :     1412.23  1416.44  1416.53  1416.57  1427.23  1428.79
eigval :     1431.94  1432.49  1444.04  1517.36  1525.80  1546.33
eigval :     1551.33  1554.32  1555.54  1560.64  1568.55  3049.17
eigval :     3049.77  3050.21  3052.70  3057.43  3058.24  3064.15
eigval :     3067.04  3069.41  3070.42  3072.42  3073.50  3073.85
eigval :     3074.17  3077.45  3078.21  3088.79  3089.52  3090.19
eigval :     3090.79  3155.82  3156.04

   temp. (K)  partition function   enthalpy   heat capacity  entropy
                                   cal/mol     cal/K/mol   cal/K/mol   J/K/mol
 298.15  VIB  0.421E+14            16584.725     98.901    104.633
         ROT  0.214E+08              888.752      2.981     36.525
         INT  0.900E+21            17473.477    101.882    141.158
         TR   0.931E+28             1481.254      4.968     44.198
         TOT                       18954.7309   106.8503   185.3554   775.5269

       T/K    H(0)-H(T)+PV         H(T)/Eh          T*S/Eh         G(T)/Eh
   ------------------------------------------------------------------------
    298.15    0.302063E-01    0.424838E+00    0.880683E-01    0.336769E+00
   ------------------------------------------------------------------------

         :::::::::::::::::::::::::::::::::::::::::::::::::::::
         ::                  THERMODYNAMIC                  ::
         :::::::::::::::::::::::::::::::::::::::::::::::::::::
         :: total free energy         -78.991078717158 Eh   ::
         ::.................................................::
         :: total energy              -79.327848085293 Eh   ::
         :: zero point energy           0.394631407175 Eh   ::
         :: G(RRHO) w/o ZPVE           -0.057862039040 Eh   ::
         :: G(RRHO) contrib.            0.336769368136 Eh   ::
         :::::::::::::::::::::::::::::::::::::::::::::::::::::

           -------------------------------------------------
          | TOTAL ENERGY              -79.327848085293 Eh   |
          | TOTAL ENTHALPY            -78.903010391646 Eh   |
          | TOTAL FREE ENERGY         -78.991078717158 Eh   |
          | GRADIENT NORM               0.000131853905 Eh/α |
          | HOMO-LUMO GAP               0.425552712785 eV   |
           -------------------------------------------------

 * finished run on 2025/09/12 at 12:02:26.988
