   * xtb version 6.7.1 (edcfbbe) compiled by 'albert@albert-system' on 2024-07-22

   ID    Z sym.   atoms
    1    6 C      1-4, 6-13, 15, 16, 18-31
    2   15 P      5, 17
    3   16 S      14
    4    1 H      32-53

          program call               : xtb data2507/toluene/1G-F1/1G-F1.xyz --gfn 2 --gbsa toluene --ohess vtight --parallel 40 --molden --ceasefiles --namespace data2507/toluene/1G-F1/1G-F1_toluene_S0_preOpt
      * Solvation model:               GBSA
        Solvent                        toluene
        Solvent mass                       9.2140E+01 g/mol
          :  Hamiltonian                  GFN2-xTB          :
 * total energy  :   -79.4091348 Eh     change       -0.1672475E-08 Eh
 * total energy  :   -79.4180005 Eh     change       -0.8865668E-02 Eh
 * total energy  :   -79.4207810 Eh     change       -0.2780529E-02 Eh
 * total energy  :   -79.4223767 Eh     change       -0.1595700E-02 Eh
 * total energy  :   -79.4233907 Eh     change       -0.1013985E-02 Eh
 * total energy  :   -79.4240571 Eh     change       -0.6664134E-03 Eh
 * total energy  :   -79.4245426 Eh     change       -0.4854989E-03 Eh
 * total energy  :   -79.4249073 Eh     change       -0.3647187E-03 Eh
 * total energy  :   -79.4251498 Eh     change       -0.2424867E-03 Eh
 * total energy  :   -79.4252982 Eh     change       -0.1483304E-03 Eh
 * total energy  :   -79.4266992 Eh     change       -0.2092675E-06 Eh
 * total energy  :   -79.4266994 Eh     change       -0.2287265E-06 Eh
 * total energy  :   -79.4266997 Eh     change       -0.2825904E-06 Eh
 * total energy  :   -79.4267000 Eh     change       -0.3224645E-06 Eh
 * total energy  :   -79.4267003 Eh     change       -0.3469055E-06 Eh
 * total energy  :   -79.4267007 Eh     change       -0.3643558E-06 Eh
 * total energy  :   -79.4267011 Eh     change       -0.3822560E-06 Eh
 * total energy  :   -79.4267015 Eh     change       -0.3819626E-06 Eh
 * total energy  :   -79.4267015 Eh     change       -0.1639506E-08 Eh
   *** GEOMETRY OPTIMIZATION CONVERGED AFTER 94 ITERATIONS ***

 final structure:
================
53
 xtb: 6.7.1 (edcfbbe)
C            1.95608398157635        3.85011769421482       -0.20890042214517
C            2.23749802059149        3.35648615180142        1.05493776430775
C            2.07826833569385        2.00947199860337        1.31830210354879
C            1.65168020327980        1.13889325661005        0.31791944873647
P            1.46666544410380       -0.61913778389436        0.80317841196378
C            3.17970984094159       -1.22247033992421        0.51704713069122
C            3.36676563756143       -2.60035998250518        0.61523925167662
C            4.62059588138406       -3.15335455778546        0.44087274901728
C            5.70820267494029       -2.33266154711647        0.18387400393024
C            5.53299182534748       -0.96146258589271        0.10695658676479
C            4.27643790343303       -0.40454650437559        0.27663595935639
C            0.68807211632825       -1.31784164690880       -0.68061767160906
C            1.22288741449789       -1.77960787332685       -1.84031351727705
S            0.01085171121747       -2.38941029780461       -2.90628808660115
C           -1.23504110278281       -2.01135068440181       -1.77031660876357
C           -0.73360525930769       -1.45497659884488       -0.63857788843072
P           -1.51665349340821       -0.89205541244158        0.90299174785497
C           -1.63863206958084        0.89130050826534        0.48471961558934
C           -2.01577362225912        1.33394938070065       -0.77876584634846
C           -2.08265777155373        2.68833796454223       -1.04518415162794
C           -1.77389818630240        3.60938167447688       -0.05620250996239
C           -1.39975622260929        3.17389795399667        1.20327784271940
C           -1.33016029183348        1.81850184950410        1.47253734888963
C           -3.24332859644762       -1.42965594309496        0.58944925635352
C           -4.33006010220329       -0.56378121308603        0.63155121949355
C           -5.61512659704617       -1.05131700101894        0.46626244710765
C           -5.83004001951892       -2.40560304450190        0.27370248478033
C           -4.75377762502588       -3.27939858056713        0.26234038643886
C           -3.47056055001596       -2.79580253422945        0.43166790913933
C            1.36658600272011        1.64104716368520       -0.94480575122615
C            1.51903645260919        2.99177617072900       -1.20346480077830
H            2.07348497984933        4.90357582638612       -0.41723193856274
H            2.57519211758514        4.02313157987500        1.83556075451499
H            2.28752750450842        1.61600214050667        2.30490821077628
H            2.51432239338167       -3.23506965611845        0.82288024163574
H            4.75303248261120       -4.22369963096761        0.50957150661541
H            6.69023516268313       -2.76195368219669        0.04858383134026
H            6.37934919145091       -0.31810538696070       -0.08793689746940
H            4.15032812914887        0.66680916618684        0.21424388284204
H            2.25254007281693       -1.81552460592041       -2.13975899120446
H           -2.25299925298746       -2.24409734105338       -2.01646481054677
H           -2.25927264165265        0.61446573737970       -1.54930239262605
H           -2.37614243527458        3.02827680247778       -2.02832785963417
H           -1.82443648872077        4.66711019530261       -0.26999178687948
H           -1.15878836562199        3.88998800388613        1.97543910519451
H           -1.03403133447984        1.46797189569424        2.45196796994972
H           -4.17103948992261        0.49425109421376        0.78678072852870
H           -6.45265670548325       -0.36856022356468        0.48993807669306
H           -6.83406800155799       -2.78187668355182        0.14184761343509
H           -4.91729976358100       -4.33921058555407        0.12719756666585
H           -2.62821446823066       -3.47592421533562        0.43661438353711
H            1.02394226850078        0.97928541607558       -1.72753454427268
H            1.29573070866241        3.37478651785501       -2.18900906414100

          :  Hamiltonian                  GFN2-xTB          :
         :: gradient norm              0.000033675425 Eh/a0 ::
         :: HOMO-LUMO gap              2.907552566211 eV    ::
         :: SCC energy               -80.852839498462 Eh    ::
         :: -> dispersion             -0.085711246460 Eh    ::
         :: -> Gsolv                  -0.032106864544 Eh    ::
         :: repulsion energy           1.426138032311 Eh    ::

    * Orbital Energies and Occupations

         #    Occupation            Energy/Eh            Energy/eV
      -------------------------------------------------------------
         1        2.0000           -0.7369884             -20.0545
       ...           ...                  ...                  ...
        63        2.0000           -0.4178310             -11.3698
        64        2.0000           -0.4144961             -11.2790
        65        2.0000           -0.4130152             -11.2387
        66        2.0000           -0.4119366             -11.2094
        67        2.0000           -0.4085480             -11.1172
        68        2.0000           -0.4078543             -11.0983
        69        2.0000           -0.4064735             -11.0607
        70        2.0000           -0.4047647             -11.0142
        71        2.0000           -0.4037478             -10.9865
        72        2.0000           -0.3987301             -10.8500
        73        2.0000           -0.3978508             -10.8261
        74        2.0000           -0.3791346             -10.3168
        75        2.0000           -0.3666918              -9.9782 (HOMO)
        76                         -0.2598412              -7.0706 (LUMO)
        77                         -0.2456387              -6.6842
        78                         -0.2381189              -6.4795
        79                         -0.2360768              -6.4240
        80                         -0.2348395              -6.3903
        81                         -0.2304008              -6.2695
        82                         -0.2271069              -6.1799
        83                         -0.2268068              -6.1717
        84                         -0.2249704              -6.1218
        85                         -0.2157802              -5.8717
        86                         -0.2038975              -5.5483
       ...                                ...                  ...
       161                          1.1470748              31.2135
      -------------------------------------------------------------
                  HL-Gap            0.1068506 Eh            2.9076 eV

     #   Z          covCN         q      C6AA      α(0)
     1   6 C        2.920    -0.029    28.718     8.788
     2   6 C        2.918    -0.029    28.729     8.789
     3   6 C        3.026    -0.026    28.615     8.775
     4   6 C        2.917     0.021    27.540     8.606
     5  15 P        3.594    -0.113   165.358    23.099
     6   6 C        2.917     0.016    27.663     8.625
     7   6 C        3.022    -0.027    28.647     8.779
     8   6 C        2.918    -0.029    28.731     8.790
     9   6 C        2.920    -0.030    28.740     8.791
    10   6 C        2.919    -0.029    28.731     8.790
    11   6 C        2.958    -0.029    28.733     8.792
    12   6 C        3.216     0.004    27.251     8.492
    13   6 C        2.962    -0.019    28.480     8.753
    14  16 S        2.303    -0.039   142.667    20.103
    15   6 C        2.959    -0.021    28.539     8.762
    16   6 C        3.204     0.004    27.337     8.517
    17  15 P        3.586    -0.121   165.713    23.124
    18   6 C        2.918     0.022    27.506     8.600
    19   6 C        2.972    -0.024    28.609     8.774
    20   6 C        2.919    -0.029    28.726     8.789
    21   6 C        2.920    -0.027    28.685     8.783
    22   6 C        2.919    -0.029    28.715     8.787
    23   6 C        3.005    -0.025    28.604     8.773
    24   6 C        2.916     0.016    27.664     8.625
    25   6 C        2.967    -0.028    28.700     8.787
    26   6 C        2.919    -0.029    28.731     8.790
    27   6 C        2.920    -0.030    28.746     8.792
    28   6 C        2.918    -0.030    28.745     8.792
    29   6 C        3.010    -0.028    28.681     8.785
    30   6 C        2.961    -0.026    28.638     8.778
    31   6 C        2.920    -0.029    28.717     8.788
    32   1 H        0.926     0.037     2.495     2.470
    33   1 H        0.926     0.038     2.482     2.464
    34   1 H        0.925     0.040     2.444     2.445
    35   1 H        0.925     0.036     2.508     2.476
    36   1 H        0.926     0.035     2.510     2.478
    37   1 H        0.926     0.036     2.508     2.477
    38   1 H        0.926     0.035     2.521     2.483
    39   1 H        0.926     0.034     2.533     2.489
    40   1 H        0.926     0.045     2.389     2.417
    41   1 H        0.926     0.046     2.369     2.407
    42   1 H        0.925     0.033     2.543     2.494
    43   1 H        0.926     0.035     2.514     2.479
    44   1 H        0.926     0.036     2.498     2.472
    45   1 H        0.926     0.036     2.505     2.475
    46   1 H        0.925     0.043     2.411     2.428
    47   1 H        0.926     0.032     2.561     2.502
    48   1 H        0.926     0.034     2.535     2.490
    49   1 H        0.926     0.035     2.522     2.483
    50   1 H        0.926     0.034     2.527     2.486
    51   1 H        0.925     0.034     2.525     2.485
    52   1 H        0.926     0.027     2.631     2.536
    53   1 H        0.926     0.033     2.539     2.492

molecular dipole:
                 x           y           z       tot (Debye)
 q only:        0.085       0.583      -0.205
   full:        0.072       0.772      -0.555       2.424

 projected vibrational frequencies (cm⁻¹)
eigval :       -0.00    -0.00    -0.00     0.00     0.00     0.00
eigval :        9.20    21.75    30.51    34.63    37.14    44.66
eigval :       48.37    53.10    56.90    63.38    66.92    74.10
eigval :       95.21   165.41   169.57   182.86   191.17   196.16
eigval :      210.67   218.75   235.26   241.17   282.72   323.76
eigval :      358.96   360.64   362.26   364.73   377.87   387.24
eigval :      403.15   416.83   423.56   433.55   440.79   460.08
eigval :      476.92   491.40   493.32   584.66   585.21   585.30
eigval :      585.77   600.97   654.19   654.88   656.60   657.08
eigval :      676.33   682.10   689.65   692.64   693.56   733.83
eigval :      737.66   739.40   741.21   744.47   759.47   837.28
eigval :      839.41   870.45   873.24   873.62   875.11   895.45
eigval :      897.26   898.08   899.58   923.24   925.63   926.04
eigval :      926.38   930.34   930.98   931.58   933.52   943.52
eigval :      966.59   967.50   967.77   968.50  1079.03  1080.04
eigval :     1080.56  1081.02  1089.98  1108.10  1109.00  1111.37
eigval :     1114.09  1114.82  1116.28  1116.58  1117.47  1117.78
eigval :     1177.34  1178.10  1179.09  1180.20  1192.12  1195.03
eigval :     1196.73  1197.82  1271.81  1273.37  1274.96  1275.81
eigval :     1303.16  1314.02  1314.69  1315.90  1316.66  1419.23
eigval :     1419.46  1421.48  1423.51  1445.01  1450.08  1450.25
eigval :     1451.62  1452.28  1507.29  1574.75  1575.59  1577.56
eigval :     1578.79  1583.92  1584.38  1586.19  1586.83  3043.62
eigval :     3047.72  3048.58  3056.22  3060.22  3064.66  3065.68
eigval :     3066.93  3069.73  3069.98  3071.23  3071.48  3074.49
eigval :     3075.75  3076.53  3078.36  3085.86  3087.02  3087.44
eigval :     3088.04  3148.27  3149.75

   temp. (K)  partition function   enthalpy   heat capacity  entropy
                                   cal/mol     cal/K/mol   cal/K/mol   J/K/mol
 298.15  VIB  0.159E+14            16072.704     97.142    102.042
         ROT  0.210E+08              888.752      2.981     36.487
         INT  0.335E+21            16961.456    100.123    138.529
         TR   0.931E+28             1481.254      4.968     44.198
         TOT                       18442.7103   105.0909   182.7263   764.5270

       T/K    H(0)-H(T)+PV         H(T)/Eh          T*S/Eh         G(T)/Eh
   ------------------------------------------------------------------------
    298.15    0.293903E-01    0.428365E+00    0.868192E-01    0.341545E+00
   ------------------------------------------------------------------------

         :::::::::::::::::::::::::::::::::::::::::::::::::::::
         ::                  THERMODYNAMIC                  ::
         :::::::::::::::::::::::::::::::::::::::::::::::::::::
         :: total free energy         -79.085156129472 Eh   ::
         ::.................................................::
         :: total energy              -79.426701463790 Eh   ::
         :: zero point energy           0.398974179120 Eh   ::
         :: G(RRHO) w/o ZPVE           -0.057428844802 Eh   ::
         :: G(RRHO) contrib.            0.341545334318 Eh   ::
         :::::::::::::::::::::::::::::::::::::::::::::::::::::

           -------------------------------------------------
          | TOTAL ENERGY              -79.426701463790 Eh   |
          | TOTAL ENTHALPY            -78.998336954993 Eh   |
          | TOTAL FREE ENERGY         -79.085156129472 Eh   |
          | GRADIENT NORM               0.000033682205 Eh/α |
          | HOMO-LUMO GAP               2.907552591430 eV   |
           -------------------------------------------------

 * finished run on 2025/09/12 at 12:00:35.981
