   * xtb version 6.7.1 (edcfbbe) compiled by 'albert@albert-system' on 2024-07-22

   ID    Z sym.   atoms
    1    6 C      1-23, 25-29, 33, 34
    2    7 N      24
    3    9 F      30-32
    4    1 H      35-68

          program call               : xtb data2507/toluene/4-Ac/4-Ac_toluene_S0_finalOpt.xtbopt.xyz --gfn 2 --uhf 2 --gbsa toluene --ohess vtight --parallel 40 --molden --ceasefiles --namespace data2507/toluene/4-Ac/4-Ac_toluene_T1_preOpt
      * Solvation model:               GBSA
        Solvent                        toluene
        Solvent mass                       9.2140E+01 g/mol
          :  Hamiltonian                  GFN2-xTB          :
 * total energy  :   -98.6965777 Eh     change       -0.5954661E-08 Eh
 * total energy  :   -98.7020171 Eh     change       -0.5439404E-02 Eh
 * total energy  :   -98.7032269 Eh     change       -0.1209753E-02 Eh
 * total energy  :   -98.7035032 Eh     change       -0.2763251E-03 Eh
 * total energy  :   -98.7037349 Eh     change       -0.2317489E-03 Eh
 * total energy  :   -98.7038587 Eh     change       -0.1237940E-03 Eh
 * total energy  :   -98.7039570 Eh     change       -0.9823472E-04 Eh
 * total energy  :   -98.7040369 Eh     change       -0.7996172E-04 Eh
 * total energy  :   -98.7041065 Eh     change       -0.6953432E-04 Eh
 * total energy  :   -98.7041807 Eh     change       -0.7428623E-04 Eh
 * total energy  :   -98.7049836 Eh     change       -0.1026460E-05 Eh
 * total energy  :   -98.7049845 Eh     change       -0.8848039E-06 Eh
 * total energy  :   -98.7049855 Eh     change       -0.9820090E-06 Eh
 * total energy  :   -98.7049867 Eh     change       -0.1207684E-05 Eh
 * total energy  :   -98.7049877 Eh     change       -0.9835601E-06 Eh
 * total energy  :   -98.7049882 Eh     change       -0.5050872E-06 Eh
 * total energy  :   -98.7049885 Eh     change       -0.3554100E-06 Eh
 * total energy  :   -98.7049888 Eh     change       -0.2571580E-06 Eh
 * total energy  :   -98.7049888 Eh     change       -0.7415906E-07 Eh
   *** GEOMETRY OPTIMIZATION CONVERGED AFTER 41 ITERATIONS ***

 final structure:
================
68
 xtb: 6.7.1 (edcfbbe)
C            4.50710593974335        4.20131636976742       -0.66428365230152
C            3.09005700835012        4.63031585384202       -0.25175305734166
C            3.12004856589713        5.21707115028425        1.16918587627743
C            2.62501013690078        5.72977833301922       -1.21131742610851
C            2.17505847865421        3.42006824827649       -0.26443110978502
C            1.04681272869490        3.32261321433539       -1.08198622932184
C            0.22946433606206        2.21776605427237       -1.04066367173407
C            0.50955698164543        1.15523890695944       -0.16744216275577
C            1.68764050627837        1.19898414190530        0.61482890684009
C            2.47308267438307        2.32652033299972        0.56076968926266
C            1.96896348168750       -0.00719293053500        1.48786797585784
C            0.99111433658441       -0.00329309484204        2.68412448144194
C            3.39346648933898       -0.01362069050936        2.04470346481331
C            1.67721307747899       -1.21023278479135        0.61391759599155
C            2.45262312488541       -2.34468149057156        0.55936702513752
C            2.14522550912951       -3.43492770529762       -0.26674850880342
C            3.04912834402249       -4.65349852964780       -0.25412998759099
C            3.07498210737803       -5.23993813366827        1.16701424647505
C            4.46964953494460       -4.23731768901449       -0.66779219479875
C            2.57330634999916       -5.74920621280451       -1.21271676194029
C            1.01882278265870       -3.32643456369947       -1.08542988978399
C            0.21127445524993       -2.21442997256272       -1.04358862777946
C            0.49993377295610       -1.15550490856899       -0.16880394583176
N           -0.26595633891986        0.00308854509089       -0.13947368323192
C           -1.64191628267026        0.00860747544429       -0.14245382515354
C           -2.39252788843611       -1.21388316182517       -0.08022007384669
C           -3.74385584642961       -1.21006721597223       -0.20800379536469
C           -4.44971003155143        0.01987717680516       -0.37257151748772
C           -5.91111895880884        0.02498827815149       -0.45892620554620
F           -6.42434296439373        1.10979934906273       -1.08102980077881
F           -6.56154187075508        0.01915531432100        0.76859789590284
F           -6.43083755355174       -1.04964495136233       -1.09394916876178
C           -3.73425886913595        1.24391442187849       -0.20605285565609
C           -2.38290344313472        1.23689565519382       -0.07839370602740
H            4.49188841893851        3.75980749060111       -1.65881963799873
H            4.92053895808590        3.47211358336693        0.02662644480210
H            5.16716497258452        5.06596212971824       -0.68085460648296
H            2.11618170344854        5.49803233289526        1.48174257878067
H            3.51426227911036        4.50329061935537        1.88693337881191
H            3.74877221479647        6.10461755215868        1.19207363475913
H            3.30724728180981        6.57540570627333       -1.15092719989883
H            1.62984895602947        6.08303630175577       -0.95050675140811
H            2.62089819291943        5.37703787068029       -2.24027238937542
H            0.80196283540963        4.10831319741835       -1.77687660997759
H           -0.60256217671986        2.13280553033343       -1.72316670843764
H            3.35379038439870        2.37593165389211        1.17736169803263
H            1.16049957478715        0.88051658615008        3.29532471664379
H           -0.04518191195212        0.00111617806005        2.35617655838769
H            1.15304531143045       -0.88867344532620        3.29506569394678
H            4.12559560541379       -0.01679512124531        1.24048532995154
H            3.54580724922396       -0.88888011131845        2.67063321302703
H            3.55364687625465        0.86005059404390        2.67090100882434
H            3.33259355578178       -2.40240455301531        1.17629086819572
H            3.47600231083493       -4.52952660842867        1.88431396634005
H            3.69581340609976       -6.13302520037496        1.18981159374118
H            2.06887783393896       -5.51186333888965        1.48032418238367
H            5.12191211368863       -5.10782890067776       -0.68498256370546
H            4.89015410488084       -3.51184427880543        0.02281104770407
H            4.45752684661081       -3.79563895304330       -1.66229532510247
H            2.57285675723515       -5.39747299675988       -2.24200883914727
H            3.24698849668655       -6.60162658325681       -1.15143752347135
H            1.57460187437831       -6.09225410958669       -0.95173595399976
H            0.76773378006016       -4.10909443121748       -1.78152037826738
H           -0.61937743322876       -2.12135035311298       -1.72672008420969
H           -1.88157407003383       -2.14141846726173        0.11809244950284
H           -4.30889337317392       -2.12832023896980       -0.15606624478464
H           -4.29194937627888        2.16655875517120       -0.15260297481215
H           -1.86467010347371        2.16006142091843        0.12137813365342

          :  Hamiltonian                  GFN2-xTB          :
         :: gradient norm              0.000173893634 Eh/a0 ::
         :: HOMO-LUMO gap              0.579212562719 eV    ::
         :: SCC energy              -100.146713737638 Eh    ::
         :: -> dispersion             -0.081852097116 Eh    ::
         :: -> Gsolv                  -0.039588216574 Eh    ::
         :: repulsion energy           1.441724887590 Eh    ::

    * Orbital Energies and Occupations

         #    Occupation            Energy/Eh            Energy/eV
      -------------------------------------------------------------
         1        2.0000           -0.8686266             -23.6365
       ...           ...                  ...                  ...
        79        2.0000           -0.4317728             -11.7491
        80        2.0000           -0.4289789             -11.6731
        81        2.0000           -0.4262875             -11.5999
        82        2.0000           -0.4191033             -11.4044
        83        2.0000           -0.4154435             -11.3048
        84        2.0000           -0.4141803             -11.2704
        85        2.0000           -0.4119507             -11.2097
        86        2.0000           -0.4046117             -11.0100
        87        2.0000           -0.4034390             -10.9781
        88        2.0000           -0.4006410             -10.9020
        89        2.0000           -0.3934113             -10.7053
        90        1.0000           -0.3599977              -9.7960
        91        1.0000           -0.2516284              -6.8472 (HOMO)
        92        0.0000           -0.2303426              -6.2679 (LUMO)
        93        0.0000           -0.2284814              -6.2173
        94                         -0.2235793              -6.0839
        95                         -0.2197384              -5.9794
        96                         -0.2158231              -5.8728
        97                         -0.1208390              -3.2882
        98                         -0.1028047              -2.7975
        99                         -0.1001906              -2.7263
       100                          0.0047703               0.1298
       101                          0.0257471               0.7006
       102                          0.0316340               0.8608
       ...                                ...                  ...
       170                          0.6690137              18.2048
      -------------------------------------------------------------
                  HL-Gap            0.0212858 Eh            0.5792 eV

     #   Z          covCN         q      C6AA      α(0)
     1   6 C        3.761    -0.107    22.596     6.776
     2   6 C        3.902     0.027    20.057     6.366
     3   6 C        3.761    -0.106    22.580     6.774
     4   6 C        3.761    -0.109    22.628     6.781
     5   6 C        2.971     0.006    27.889     8.662
     6   6 C        2.920    -0.042    29.042     8.837
     7   6 C        2.914    -0.045    29.119     8.849
     8   6 C        2.963     0.038    27.154     8.547
     9   6 C        2.984    -0.004    28.109     8.697
    10   6 C        2.926    -0.043    29.072     8.842
    11   6 C        3.911     0.024    20.120     6.376
    12   6 C        3.761    -0.101    22.483     6.759
    13   6 C        3.759    -0.109    22.632     6.782
    14   6 C        2.984    -0.004    28.109     8.697
    15   6 C        2.926    -0.043    29.072     8.842
    16   6 C        2.971     0.006    27.889     8.662
    17   6 C        3.902     0.027    20.057     6.366
    18   6 C        3.761    -0.106    22.580     6.774
    19   6 C        3.761    -0.107    22.595     6.776
    20   6 C        3.761    -0.109    22.627     6.781
    21   6 C        2.920    -0.042    29.042     8.837
    22   6 C        2.914    -0.045    29.119     8.849
    23   6 C        2.963     0.038    27.154     8.547
    24   7 N        2.751     0.030    20.729     6.762
    25   6 C        2.910     0.014    27.689     8.629
    26   6 C        2.910    -0.042    29.054     8.839
    27   6 C        2.908    -0.039    28.968     8.825
    28   6 C        2.968    -0.081    30.024     8.988
    29   6 C        3.335     0.479    17.395     6.607
    30   9 F        0.790    -0.232    11.567     4.017
    31   9 F        0.788    -0.263    11.903     4.075
    32   9 F        0.790    -0.232    11.570     4.018
    33   6 C        2.908    -0.039    28.968     8.825
    34   6 C        2.910    -0.042    29.055     8.839
    35   1 H        0.925     0.035     2.522     2.484
    36   1 H        0.925     0.041     2.435     2.440
    37   1 H        0.925     0.041     2.437     2.441
    38   1 H        0.925     0.034     2.527     2.486
    39   1 H        0.925     0.040     2.444     2.445
    40   1 H        0.925     0.041     2.436     2.441
    41   1 H        0.925     0.039     2.463     2.454
    42   1 H        0.925     0.037     2.493     2.469
    43   1 H        0.925     0.037     2.489     2.467
    44   1 H        0.926     0.047     2.355     2.400
    45   1 H        0.926     0.042     2.420     2.432
    46   1 H        0.926     0.054     2.271     2.357
    47   1 H        0.925     0.045     2.379     2.412
    48   1 H        0.925     0.035     2.519     2.482
    49   1 H        0.925     0.045     2.379     2.412
    50   1 H        0.925     0.045     2.386     2.416
    51   1 H        0.925     0.047     2.352     2.398
    52   1 H        0.925     0.047     2.352     2.398
    53   1 H        0.926     0.054     2.271     2.357
    54   1 H        0.925     0.040     2.444     2.445
    55   1 H        0.925     0.041     2.436     2.441
    56   1 H        0.925     0.034     2.527     2.486
    57   1 H        0.925     0.041     2.436     2.441
    58   1 H        0.925     0.041     2.435     2.440
    59   1 H        0.925     0.035     2.523     2.484
    60   1 H        0.925     0.037     2.489     2.467
    61   1 H        0.925     0.039     2.463     2.454
    62   1 H        0.925     0.037     2.494     2.469
    63   1 H        0.926     0.047     2.355     2.400
    64   1 H        0.926     0.042     2.420     2.432
    65   1 H        0.926     0.051     2.304     2.374
    66   1 H        0.926     0.031     2.579     2.511
    67   1 H        0.926     0.031     2.578     2.511
    68   1 H        0.926     0.051     2.304     2.373

molecular dipole:
                 x           y           z       tot (Debye)
 q only:        5.606      -0.020       0.554
   full:        5.256      -0.019       0.482      13.416

 projected vibrational frequencies (cm⁻¹)
eigval :       -0.00    -0.00     0.00     0.00     0.00     0.00
eigval :       20.82    22.02    25.61    26.53    35.09    39.36
eigval :       48.07    78.37    96.39    99.56   114.06   129.27
eigval :      134.21   146.64   151.41   152.98   172.30   177.25
eigval :      188.98   199.49   204.03   218.69   219.64   245.42
eigval :      255.33   269.70   276.45   277.30   282.16   310.51
eigval :      314.71   316.15   322.75   327.36   337.71   341.41
eigval :      353.92   361.08   367.03   371.64   378.45   386.77
eigval :      391.50   396.31   427.69   430.01   447.81   450.84
eigval :      468.39   480.21   488.38   491.42   508.48   509.72
eigval :      545.73   560.54   564.00   579.40   587.92   588.40
eigval :      601.67   625.43   628.99   659.64   672.97   684.93
eigval :      698.34   708.93   752.51   781.76   784.10   801.44
eigval :      822.07   824.53   839.81   855.55   867.40   875.92
eigval :      877.16   884.58   888.90   902.52   917.11   927.71
eigval :      929.90   941.80   946.85   957.90   957.91   961.11
eigval :      961.57   962.51   962.89   969.23   990.27  1006.31
eigval :     1015.16  1031.34  1031.88  1034.88  1035.12  1066.26
eigval :     1075.24  1109.00  1129.82  1141.32  1144.80  1152.26
eigval :     1153.90  1167.42  1186.10  1197.43  1205.50  1218.74
eigval :     1218.85  1227.01  1228.02  1244.57  1248.47  1251.33
eigval :     1257.75  1258.01  1280.60  1290.92  1300.89  1325.06
eigval :     1327.77  1338.73  1356.29  1390.84  1395.88  1399.74
eigval :     1401.20  1401.43  1401.66  1404.08  1407.80  1423.36
eigval :     1425.38  1427.30  1430.24  1431.46  1450.62  1473.73
eigval :     1478.52  1486.57  1487.93  1488.17  1488.31  1489.06
eigval :     1489.50  1495.65  1496.37  1500.58  1501.60  1502.05
eigval :     1510.80  1510.97  1515.92  1516.09  1519.13  1522.66
eigval :     1542.29  1621.26  3021.63  3021.74  3023.13  3023.22
eigval :     3026.27  3026.28  3027.16  3027.27  3029.11  3029.97
eigval :     3030.08  3030.49  3032.42  3032.47  3034.62  3035.40
eigval :     3037.27  3037.49  3045.89  3046.52  3046.63  3049.91
eigval :     3050.12  3050.46  3083.17  3084.53  3085.06  3086.05
eigval :     3109.23  3110.89  3119.34  3119.67  3125.99  3126.62

   temp. (K)  partition function   enthalpy   heat capacity  entropy
                                   cal/mol     cal/K/mol   cal/K/mol   J/K/mol
 298.15  VIB  0.117E+15            19759.099    123.388    119.655
         ROT  0.385E+08              888.752      2.981     37.690
         INT  0.451E+22            20647.851    126.368    157.345
         TR   0.972E+28             1481.254      4.968     44.283
         TOT                       22129.1053   131.3366   201.6275   843.6093

       T/K    H(0)-H(T)+PV         H(T)/Eh          T*S/Eh         G(T)/Eh
   ------------------------------------------------------------------------
    298.15    0.352650E-01    0.588154E+00    0.957997E-01    0.492354E+00
   ------------------------------------------------------------------------

         :::::::::::::::::::::::::::::::::::::::::::::::::::::
         ::                  THERMODYNAMIC                  ::
         :::::::::::::::::::::::::::::::::::::::::::::::::::::
         :: total free energy         -98.212634443633 Eh   ::
         ::.................................................::
         :: total energy              -98.704988849872 Eh   ::
         :: zero point energy           0.552889143581 Eh   ::
         :: G(RRHO) w/o ZPVE           -0.060534737343 Eh   ::
         :: G(RRHO) contrib.            0.492354406239 Eh   ::
         :::::::::::::::::::::::::::::::::::::::::::::::::::::

           -------------------------------------------------
          | TOTAL ENERGY              -98.704988849872 Eh   |
          | TOTAL ENTHALPY            -98.116834732280 Eh   |
          | TOTAL FREE ENERGY         -98.212634443633 Eh   |
          | GRADIENT NORM               0.000173655718 Eh/α |
          | HOMO-LUMO GAP               0.579215638649 eV   |
           -------------------------------------------------

 * finished run on 2025/09/12 at 08:40:42.765
