   * xtb version 6.7.1 (edcfbbe) compiled by 'albert@albert-system' on 2024-07-22

   ID    Z sym.   atoms
    1    6 C      1-23, 25-29, 33, 34
    2    7 N      24
    3    9 F      30-32
    4    1 H      35-68

          program call               : xtb data2507/toluene/4-Ac/4-Ac_toluene_S0_crest.xyz --gfn 2 --gbsa toluene --ohess vtight --parallel 40 --molden --ceasefiles --namespace data2507/toluene/4-Ac/4-Ac_toluene_S0_finalOpt
      * Solvation model:               GBSA
        Solvent                        toluene
        Solvent mass                       9.2140E+01 g/mol
          :  Hamiltonian                  GFN2-xTB          :
 * total energy  :   -98.8164024 Eh     change       -0.4034931E-08 Eh
 * total energy  :   -98.8164919 Eh     change       -0.8948541E-04 Eh
 * total energy  :   -98.8165267 Eh     change       -0.3477913E-04 Eh
 * total energy  :   -98.8165308 Eh     change       -0.4156553E-05 Eh
 * total energy  :   -98.8165336 Eh     change       -0.2801050E-05 Eh
 * total energy  :   -98.8165355 Eh     change       -0.1891830E-05 Eh
 * total energy  :   -98.8165368 Eh     change       -0.1336295E-05 Eh
 * total energy  :   -98.8165379 Eh     change       -0.1027879E-05 Eh
 * total energy  :   -98.8165390 Eh     change       -0.1102177E-05 Eh
 * total energy  :   -98.8165403 Eh     change       -0.1296924E-05 Eh
 * total energy  :   -98.8165415 Eh     change       -0.1209112E-05 Eh
 * total energy  :   -98.8165423 Eh     change       -0.7877994E-06 Eh
 * total energy  :   -98.8165426 Eh     change       -0.3792910E-06 Eh
 * total energy  :   -98.8165428 Eh     change       -0.1979646E-06 Eh
 * total energy  :   -98.8165430 Eh     change       -0.1200168E-06 Eh
 * total energy  :   -98.8165430 Eh     change        0.2166118E-08 Eh
 * total energy  :   -98.8165430 Eh     change       -0.8551028E-07 Eh
   *** GEOMETRY OPTIMIZATION CONVERGED AFTER 17 ITERATIONS ***

 final structure:
================
68
 xtb: 6.7.1 (edcfbbe)
C            4.57955439974695        4.15010066175272       -0.53295137932245
C            3.14137631442281        4.60523671339991       -0.24312386216587
C            3.05873959347057        5.19946690828761        1.17111396705512
C            2.77936429363938        5.70718963116432       -1.24367106957562
C            2.20987667651362        3.40526187148656       -0.33262518731940
C            1.16470623988330        3.32465450824594       -1.24304775285891
C            0.33897873786800        2.21514089246924       -1.28101180946035
C            0.52712308739946        1.17167378701306       -0.38829640062645
C            1.59571861601287        1.20636411293037        0.51148537161470
C            2.41194622070151        2.32345617276308        0.52216844473081
C            1.78774224394416       -0.00522324297375        1.40953370231068
C            0.69764249197815       -0.00043992881405        2.50096534362256
C            3.14980675365871       -0.01159144646341        2.10435584359262
C            1.58465734618831       -1.21463356596519        0.51095097855727
C            2.39043385811861       -2.33928647632728        0.52162677808363
C            2.17824527838414       -3.41919678861873       -0.33311824401805
C            3.09768745614425       -4.62838123456822       -0.24286899939732
C            3.01401821280903       -5.21744308956531        1.17349219023078
C            4.53933853503788       -4.18872570379568       -0.53911039491477
C            2.72083125161770       -5.72978081122116       -1.23851503228911
C            1.13478611733140       -3.32816767495564       -1.24450718741067
C            0.31972727281049       -2.21079418863110       -1.28279879933237
C            0.51671856408474       -1.16971428814532       -0.38920036383409
N           -0.26987658586299        0.00452446853535       -0.43197160509650
C           -1.63256509349067        0.01064776389200       -0.30507846601728
C           -2.36059514871853       -1.18808326589900       -0.20305971377269
C           -3.72989852763297       -1.18095420714591       -0.07916478003144
C           -4.42646897215148        0.02416711191209       -0.03939259247987
C           -5.90785875024493        0.01716721981017        0.10823328088869
F           -6.50001123051895        1.15692455639512       -0.29614103224842
F           -6.31414773395926       -0.15598785983743        1.39499523228562
F           -6.51019615107965       -0.97567380021735       -0.58041535929226
C           -3.71903799490933        1.22213092300869       -0.07321758603089
C           -2.34929472886127        1.21542852078116       -0.19782271014889
H            4.63960921032113        3.69841567963297       -1.52133405348900
H            4.92109906592413        3.42087593051491        0.19633535917826
H            5.25437132399826        5.00305147055415       -0.50201808030364
H            2.03675429946918        5.50009503488483        1.39416824592919
H            3.37511725127732        4.48259568814334        1.92364312212856
H            3.69959312006665        6.07553078384993        1.24632829643938
H            3.46887067084042        6.54121389841087       -1.12822018530767
H            1.77186917908544        6.07876809886270       -1.07037200189910
H            2.85710203332472        5.34853796292266       -2.26759410014947
H            0.98109082777761        4.11735436475555       -1.94895786545120
H           -0.44624963442754        2.15396484876067       -2.02004206558853
H            3.23406833790392        2.36061207637866        1.21596070430067
H            0.80615959936460        0.88324848000705        3.12660552168120
H           -0.30214788478096        0.00462460995952        2.07562369908329
H            0.79750994982087       -0.88569271583769        3.12583200493663
H            3.95983959142819       -0.01521583771242        1.37829904209458
H            3.23950644026596       -0.88649964522206        2.74335916957834
H            3.24755449026622        0.86230174065310        2.74357145987489
H            3.21206359879459       -2.38417220658755        1.21554763791404
H            3.34434521916223       -4.50309994575360        1.92239941720024
H            3.64300732483374       -6.10212478501839        1.24790889937277
H            1.98912552549285       -5.50321654065885        1.40264389922483
H            5.20628583652334       -5.04769035870000       -0.50388605907845
H            4.88917809784964       -3.45763207984214        0.18436515519610
H            4.60123248270247       -3.74436844710300       -1.53069642976588
H            2.79977181873798       -5.37580269853010       -2.26395709130105
H            3.40134739094004       -6.57101448897696       -1.12194577487468
H            1.70969852723402       -6.08945318052741       -1.06115569780120
H            0.94418073515101       -4.11882303764974       -1.95085944266401
H           -0.46401180863317       -2.14183754243765       -2.02273680900194
H           -1.84284850623510       -2.13273513687688       -0.19562642643700
H           -4.27058174886861       -2.11306948483435       -0.01068990205046
H           -4.24867132465305        2.15996750298590        0.00025890506889
H           -1.82235188719421        2.15498470228894       -0.18653698016916

          :  Hamiltonian                  GFN2-xTB          :
         :: gradient norm              0.000055904341 Eh/a0 ::
         :: HOMO-LUMO gap              3.063277928027 eV    ::
         :: SCC energy              -100.279764578282 Eh    ::
         :: -> dispersion             -0.082171150904 Eh    ::
         :: -> Gsolv                  -0.034738523443 Eh    ::
         :: repulsion energy           1.463221532548 Eh    ::

    * Orbital Energies and Occupations

         #    Occupation            Energy/Eh            Energy/eV
      -------------------------------------------------------------
         1        2.0000           -0.8791875             -23.9239
       ...           ...                  ...                  ...
        78        2.0000           -0.4335161             -11.7966
        79        2.0000           -0.4324646             -11.7680
        80        2.0000           -0.4314077             -11.7392
        81        2.0000           -0.4231802             -11.5153
        82        2.0000           -0.4216545             -11.4738
        83        2.0000           -0.4148196             -11.2878
        84        2.0000           -0.4139362             -11.2638
        85        2.0000           -0.4108579             -11.1800
        86        2.0000           -0.4030791             -10.9683
        87        2.0000           -0.3984230             -10.8416
        88        2.0000           -0.3966881             -10.7944
        89        2.0000           -0.3907821             -10.6337
        90        2.0000           -0.3587294              -9.7615 (HOMO)
        91                         -0.2461561              -6.6982 (LUMO)
        92                         -0.2372989              -6.4572
        93                         -0.2255803              -6.1384
        94                         -0.2201609              -5.9909
        95                         -0.2167750              -5.8987
        96                         -0.2128941              -5.7931
        97                         -0.1152954              -3.1373
        98                         -0.0974014              -2.6504
        99                         -0.0914886              -2.4895
       100                          0.0012976               0.0353
       101                          0.0280072               0.7621
       ...                                ...                  ...
       170                          0.6778022              18.4439
      -------------------------------------------------------------
                  HL-Gap            0.1125734 Eh            3.0633 eV

     #   Z          covCN         q      C6AA      α(0)
     1   6 C        3.761    -0.106    22.574     6.773
     2   6 C        3.903     0.026    20.085     6.370
     3   6 C        3.761    -0.106    22.569     6.772
     4   6 C        3.761    -0.108    22.611     6.779
     5   6 C        2.972     0.005    27.914     8.666
     6   6 C        2.925    -0.044    29.092     8.845
     7   6 C        2.918    -0.050    29.245     8.868
     8   6 C        2.951     0.049    26.906     8.508
     9   6 C        2.985    -0.007    28.197     8.710
    10   6 C        2.931    -0.045    29.125     8.851
    11   6 C        3.911     0.023    20.130     6.377
    12   6 C        3.761    -0.099    22.446     6.754
    13   6 C        3.759    -0.107    22.591     6.776
    14   6 C        2.985    -0.007    28.197     8.710
    15   6 C        2.931    -0.045    29.125     8.851
    16   6 C        2.972     0.005    27.914     8.666
    17   6 C        3.903     0.026    20.085     6.370
    18   6 C        3.761    -0.106    22.569     6.772
    19   6 C        3.761    -0.106    22.574     6.773
    20   6 C        3.761    -0.108    22.610     6.778
    21   6 C        2.925    -0.044    29.092     8.845
    22   6 C        2.918    -0.050    29.245     8.868
    23   6 C        2.951     0.049    26.906     8.508
    24   7 N        2.753    -0.060    22.405     7.030
    25   6 C        2.910     0.078    26.258     8.403
    26   6 C        2.923    -0.056    29.396     8.891
    27   6 C        2.919    -0.025    28.623     8.773
    28   6 C        2.974    -0.055    29.352     8.887
    29   6 C        3.336     0.484    17.309     6.588
    30   9 F        0.791    -0.223    11.473     4.001
    31   9 F        0.790    -0.235    11.601     4.023
    32   9 F        0.791    -0.226    11.506     4.007
    33   6 C        2.918    -0.025    28.638     8.776
    34   6 C        2.924    -0.056    29.402     8.892
    35   1 H        0.925     0.033     2.541     2.493
    36   1 H        0.925     0.039     2.462     2.454
    37   1 H        0.925     0.039     2.458     2.452
    38   1 H        0.925     0.033     2.544     2.494
    39   1 H        0.925     0.038     2.471     2.458
    40   1 H        0.925     0.039     2.461     2.453
    41   1 H        0.925     0.038     2.478     2.462
    42   1 H        0.925     0.036     2.503     2.474
    43   1 H        0.925     0.036     2.501     2.473
    44   1 H        0.926     0.042     2.417     2.431
    45   1 H        0.926     0.036     2.504     2.474
    46   1 H        0.926     0.048     2.350     2.397
    47   1 H        0.925     0.041     2.439     2.442
    48   1 H        0.925     0.032     2.557     2.500
    49   1 H        0.925     0.041     2.440     2.443
    50   1 H        0.925     0.041     2.441     2.443
    51   1 H        0.925     0.043     2.410     2.428
    52   1 H        0.925     0.043     2.410     2.428
    53   1 H        0.926     0.048     2.350     2.397
    54   1 H        0.925     0.038     2.471     2.458
    55   1 H        0.925     0.039     2.461     2.453
    56   1 H        0.925     0.033     2.544     2.494
    57   1 H        0.925     0.039     2.458     2.452
    58   1 H        0.925     0.039     2.462     2.454
    59   1 H        0.925     0.033     2.541     2.493
    60   1 H        0.925     0.036     2.501     2.473
    61   1 H        0.925     0.038     2.478     2.462
    62   1 H        0.925     0.036     2.503     2.474
    63   1 H        0.926     0.042     2.417     2.431
    64   1 H        0.926     0.036     2.504     2.474
    65   1 H        0.926     0.055     2.260     2.351
    66   1 H        0.926     0.045     2.379     2.412
    67   1 H        0.926     0.047     2.354     2.399
    68   1 H        0.926     0.055     2.259     2.351

molecular dipole:
                 x           y           z       tot (Debye)
 q only:        3.849       0.018       0.107
   full:        3.574       0.017       0.074       9.086

 projected vibrational frequencies (cm⁻¹)
eigval :       -0.00    -0.00     0.00     0.00     0.00     0.00
eigval :       17.43    22.35    25.82    27.60    34.10    35.72
eigval :       51.25    86.94    92.98   103.97   111.97   132.68
eigval :      137.83   146.92   154.44   165.80   169.38   172.52
eigval :      183.32   196.78   200.56   210.95   215.57   248.90
eigval :      261.77   274.07   280.30   285.81   296.71   312.24
eigval :      318.85   324.01   329.91   342.55   343.14   360.30
eigval :      364.76   366.60   373.67   380.22   382.94   391.61
eigval :      415.93   429.30   432.28   443.87   448.91   454.31
eigval :      469.13   480.22   491.33   514.43   516.19   544.79
eigval :      547.74   572.12   572.64   581.38   604.61   620.29
eigval :      635.28   644.27   672.24   677.23   686.70   705.86
eigval :      725.89   743.99   804.76   807.86   829.25   838.66
eigval :      842.24   860.50   885.14   886.21   894.27   897.79
eigval :      906.31   913.04   924.35   934.57   937.14   941.81
eigval :      954.67   956.71   959.06   959.63   959.71   960.64
eigval :      960.83   962.20   971.04   994.07  1009.62  1021.16
eigval :     1033.59  1033.98  1034.02  1034.81  1069.27  1081.33
eigval :     1090.33  1146.19  1149.54  1157.49  1162.54  1165.20
eigval :     1184.82  1199.07  1217.05  1225.19  1225.35  1226.47
eigval :     1231.35  1237.25  1250.12  1255.07  1259.11  1267.30
eigval :     1272.77  1286.94  1301.84  1303.17  1328.72  1330.39
eigval :     1344.23  1360.97  1396.80  1399.46  1399.85  1402.12
eigval :     1402.25  1412.61  1415.46  1421.92  1426.16  1426.44
eigval :     1430.27  1464.30  1479.73  1488.22  1488.41  1489.05
eigval :     1489.69  1491.27  1493.20  1496.54  1496.86  1499.19
eigval :     1501.96  1502.74  1506.03  1510.24  1510.55  1516.13
eigval :     1516.23  1523.56  1551.27  1568.37  1576.09  1591.22
eigval :     1593.68  1603.42  3019.83  3019.92  3020.56  3021.22
eigval :     3024.28  3024.54  3024.57  3024.95  3025.60  3026.98
eigval :     3028.36  3028.59  3028.74  3031.44  3031.54  3032.35
eigval :     3036.33  3036.39  3044.42  3044.98  3045.13  3048.57
eigval :     3048.65  3053.05  3083.69  3084.35  3089.38  3092.27
eigval :     3117.90  3118.07  3119.56  3120.52  3124.48  3124.91

   temp. (K)  partition function   enthalpy   heat capacity  entropy
                                   cal/mol     cal/K/mol   cal/K/mol   J/K/mol
 298.15  VIB  0.858E+14            19370.780    120.782    117.542
         ROT  0.381E+08              888.752      2.981     37.670
         INT  0.327E+22            20259.533    123.763    155.212
         TR   0.972E+28             1481.254      4.968     44.283
         TOT                       21740.7868   128.7309   199.4948   834.6863

       T/K    H(0)-H(T)+PV         H(T)/Eh          T*S/Eh         G(T)/Eh
   ------------------------------------------------------------------------
    298.15    0.346461E-01    0.593099E+00    0.947864E-01    0.498312E+00
   ------------------------------------------------------------------------

         :::::::::::::::::::::::::::::::::::::::::::::::::::::
         ::                  THERMODYNAMIC                  ::
         :::::::::::::::::::::::::::::::::::::::::::::::::::::
         :: total free energy         -98.318230929878 Eh   ::
         ::.................................................::
         :: total energy              -98.816543045886 Eh   ::
         :: zero point energy           0.558452388829 Eh   ::
         :: G(RRHO) w/o ZPVE           -0.060140272822 Eh   ::
         :: G(RRHO) contrib.            0.498312116007 Eh   ::
         :::::::::::::::::::::::::::::::::::::::::::::::::::::

           -------------------------------------------------
          | TOTAL ENERGY              -98.816543045886 Eh   |
          | TOTAL ENTHALPY            -98.223444508009 Eh   |
          | TOTAL FREE ENERGY         -98.318230929878 Eh   |
          | GRADIENT NORM               0.000056020280 Eh/α |
          | HOMO-LUMO GAP               3.063276875014 eV   |
           -------------------------------------------------

 * finished run on 2025/09/12 at 08:40:38.065
