   * xtb version 6.7.1 (edcfbbe) compiled by 'albert@albert-system' on 2024-07-22

   ID    Z sym.   atoms
    1    6 C      1-23, 25-29, 33, 34
    2    7 N      24
    3    9 F      30-32
    4    1 H      35-68

          program call               : xtb data2507/toluene/4-Ac/4-Ac_toluene_T1_crest.xyz --gfn 2 --uhf 2 --gbsa toluene --ohess vtight --parallel 40 --molden --ceasefiles --namespace data2507/toluene/4-Ac/4-Ac_toluene_T1_finalOpt
      * Solvation model:               GBSA
        Solvent                        toluene
        Solvent mass                       9.2140E+01 g/mol
          :  Hamiltonian                  GFN2-xTB          :
 * total energy  :   -98.7122881 Eh     change       -0.5783932E-08 Eh
 * total energy  :   -98.7126120 Eh     change       -0.3238219E-03 Eh
 * total energy  :   -98.7128423 Eh     change       -0.2303005E-03 Eh
 * total energy  :   -98.7128677 Eh     change       -0.2547285E-04 Eh
 * total energy  :   -98.7128836 Eh     change       -0.1587412E-04 Eh
 * total energy  :   -98.7128887 Eh     change       -0.5050015E-05 Eh
 * total energy  :   -98.7128927 Eh     change       -0.4024312E-05 Eh
 * total energy  :   -98.7128943 Eh     change       -0.1629752E-05 Eh
 * total energy  :   -98.7128969 Eh     change       -0.2572454E-05 Eh
 * total energy  :   -98.7129000 Eh     change       -0.3112933E-05 Eh
 * total energy  :   -98.7129113 Eh     change       -0.1419716E-05 Eh
 * total energy  :   -98.7129122 Eh     change       -0.9791544E-06 Eh
 * total energy  :   -98.7129130 Eh     change       -0.8027040E-06 Eh
 * total energy  :   -98.7129135 Eh     change       -0.4232006E-06 Eh
 * total energy  :   -98.7129138 Eh     change       -0.3297347E-06 Eh
 * total energy  :   -98.7129141 Eh     change       -0.2938914E-06 Eh
 * total energy  :   -98.7129144 Eh     change       -0.2648396E-06 Eh
 * total energy  :   -98.7129145 Eh     change       -0.1716244E-06 Eh
 * total energy  :   -98.7129145 Eh     change       -0.9216976E-08 Eh
   *** GEOMETRY OPTIMIZATION CONVERGED AFTER 22 ITERATIONS ***

 final structure:
================
68
 xtb: 6.7.1 (edcfbbe)
C            4.09223039382041        4.97958467858511        0.16657160295809
C            2.57276623483070        5.06570342183134       -0.00683220903688
C            2.00003662620601        5.86704473045108        1.17378076178757
C            2.27910802087941        5.80464814855898       -1.32286799534020
C            1.90464026664977        3.70698073489928       -0.04528142318827
C            0.50531678465505        3.62060155443715       -0.17867385479255
C           -0.13351921077231        2.41322277962037       -0.19137222624747
C            0.58642919585621        1.20436541782685       -0.05700186040051
C            2.00240775836540        1.26603001682391        0.00127184361209
C            2.61077485398652        2.50743965027842        0.01781740247624
C            2.84789631213553        0.01512921749108        0.00155154579750
C            3.73364593021211        0.00434127831272        1.26523154140570
C            3.73493796124083        0.03045694740558       -1.26120793196990
C            2.00895207638955       -1.24013053982255        0.00067857328184
C            2.62340342649094       -2.47837699686439       -0.01156295724612
C            1.92288582177498       -3.68146432693559        0.05078285033279
C            2.59770144960230       -5.03694409120026        0.01700106259965
C            4.11862441413518       -4.94348873915433       -0.13897540540281
C            2.04157903836974       -5.83750514847839       -1.17210770781522
C            2.29306185609296       -5.78123851464138        1.32753032359984
C            0.52236557597457       -3.60170274235665        0.17760466594560
C           -0.12250567472304       -2.39765920900347        0.18520272707225
C            0.59212647270513       -1.18519664402511        0.05200975991285
N           -0.07880374311173        0.00771061270469       -0.00623849670545
C           -1.49116251963614        0.00375800243215       -0.01495638809761
C           -2.19902705075941       -0.57720970630323       -1.09865619431758
C           -3.56041059087372       -0.58045234823226       -1.11141541939274
C           -4.28924266423048       -0.00136107868781       -0.03425145129305
C           -5.74680493810295       -0.05735532895965       -0.01157002312599
F           -6.33908153786200        0.96700506395459        0.64848396208768
F           -6.27584033865291       -1.18311362825868        0.62502412059125
F           -6.32901095265026       -0.09667166251950       -1.23214775172838
C           -3.57698498307226        0.56075476503024        1.06327612019743
C           -2.21574450185485        0.57294133066094        1.06378122060058
H            4.55546223535615        4.46607685729321       -0.67276875749000
H            4.35281951094745        4.46978814850823        1.09129498552403
H            4.50687410632136        5.98451647522111        0.21096237671229
H            0.92888571502068        6.01654781143137        1.07158822102557
H            2.18399439948362        5.34316685687219        2.10972376412176
H            2.47598374940130        6.84386027643938        1.22555067334276
H            2.76484432805942        6.77798164402888       -1.31846485590429
H            1.21277448024991        5.95760399286554       -1.46363548690723
H            2.65685351887302        5.23325553838778       -2.16842816676143
H           -0.08541945818035        4.51688609925162       -0.28159091902999
H           -1.20392430875425        2.37325408922024       -0.31448850705752
H            3.68466290321153        2.54300149125984        0.07344015274163
H            4.37910882384931        0.87676729641484        1.28985779294156
H            3.10915934950311        0.01012451297669        2.15644321158808
H            4.35799932080838       -0.88341888255838        1.28820697362700
H            3.11153534195527        0.02010518254954       -2.15314965613436
H            4.38561599635376       -0.83814988787416       -1.28433062378608
H            4.35385783585546        0.92203795864688       -1.28414302100642
H            3.69767387785136       -2.50882023647708       -0.06281076480007
H            4.53863105279922       -5.94642881246774       -0.17766168449066
H            4.56936416304685       -4.42691214316632        0.70527761415521
H            4.38756038205536       -4.43329729609665       -1.06107191984101
H            2.52055608179483       -6.81304190541248       -1.21984785727175
H            2.23567458551882       -5.31134492071549       -2.10472347282866
H            0.96956194289166       -5.98954468537973       -1.08319881592993
H            1.22622386053097       -5.94181778732952        1.45526401697864
H            2.78515766019247       -6.75138621385989        1.32640113541322
H            2.65688843029490       -5.20973484372555        2.17909667190732
H           -0.06440372648377       -4.50072309402489        0.27952394442349
H           -1.19360754095786       -2.36296143068516        0.30407845421046
H           -1.63966322893950       -0.99472701575401       -1.92255253933742
H           -4.10675453198821       -1.00944764308848       -1.93780352482443
H           -4.13676271483583        0.97856160274906        1.88646072865567
H           -1.66910230945795        0.98862237143489        1.89707503957461

          :  Hamiltonian                  GFN2-xTB          :
         :: gradient norm              0.000046335862 Eh/a0 ::
         :: HOMO-LUMO gap              0.055121711348 eV    ::
         :: SCC energy              -100.155599726688 Eh    ::
         :: -> dispersion             -0.081489197547 Eh    ::
         :: -> Gsolv                  -0.043542307547 Eh    ::
         :: repulsion energy           1.442685193763 Eh    ::

    * Orbital Energies and Occupations

         #    Occupation            Energy/Eh            Energy/eV
      -------------------------------------------------------------
         1        2.0000           -0.8634532             -23.4958
       ...           ...                  ...                  ...
        79        2.0000           -0.4338394             -11.8054
        80        2.0000           -0.4279384             -11.6448
        81        2.0000           -0.4230004             -11.5104
        82        2.0000           -0.4222794             -11.4908
        83        2.0000           -0.4149989             -11.2927
        84        2.0000           -0.4129425             -11.2367
        85        2.0000           -0.4117893             -11.2054
        86        2.0000           -0.4054438             -11.0327
        87        2.0000           -0.4053349             -11.0297
        88        2.0000           -0.4032315             -10.9725
        89        2.0000           -0.3953736             -10.7587
        90        1.0000           -0.3566471              -9.7049
        91        0.7438           -0.2446440              -6.6571 (HOMO)
        92        0.2562           -0.2426184              -6.6020 (LUMO)
        93        0.0000           -0.2285833              -6.2201
        94                         -0.2278590              -6.2004
        95                         -0.2174112              -5.9161
        96                         -0.2052774              -5.5859
        97                         -0.1146360              -3.1194
        98                         -0.1103388              -3.0025
        99                         -0.0947999              -2.5796
       100                          0.0049484               0.1347
       101                          0.0261943               0.7128
       102                          0.0289122               0.7867
       ...                                ...                  ...
       170                          0.6576660              17.8960
      -------------------------------------------------------------
                  HL-Gap            0.0020255 Eh            0.0551 eV

     #   Z          covCN         q      C6AA      α(0)
     1   6 C        3.761    -0.111    22.664     6.787
     2   6 C        3.902     0.029    20.037     6.363
     3   6 C        3.762    -0.107    22.588     6.775
     4   6 C        3.761    -0.107    22.586     6.775
     5   6 C        2.971     0.012    27.736     8.639
     6   6 C        2.920    -0.034    28.856     8.809
     7   6 C        2.915    -0.044    29.101     8.846
     8   6 C        2.934     0.046    26.971     8.517
     9   6 C        2.974    -0.000    28.032     8.685
    10   6 C        2.926    -0.045    29.111     8.848
    11   6 C        3.910     0.025    20.092     6.371
    12   6 C        3.761    -0.107    22.590     6.775
    13   6 C        3.761    -0.107    22.589     6.775
    14   6 C        2.974    -0.000    28.033     8.685
    15   6 C        2.926    -0.045    29.112     8.848
    16   6 C        2.971     0.012    27.741     8.639
    17   6 C        3.902     0.029    20.037     6.363
    18   6 C        3.761    -0.111    22.664     6.787
    19   6 C        3.762    -0.107    22.586     6.775
    20   6 C        3.761    -0.107    22.586     6.775
    21   6 C        2.920    -0.034    28.856     8.809
    22   6 C        2.915    -0.044    29.100     8.846
    23   6 C        2.934     0.046    26.978     8.518
    24   7 N        2.751     0.030    20.718     6.760
    25   6 C        2.930     0.004    27.938     8.668
    26   6 C        2.911    -0.045    29.105     8.846
    27   6 C        2.911    -0.042    29.036     8.836
    28   6 C        2.969    -0.098    30.464     9.053
    29   6 C        3.335     0.476    17.422     6.612
    30   9 F        0.790    -0.238    11.631     4.029
    31   9 F        0.788    -0.273    12.012     4.094
    32   9 F        0.790    -0.236    11.612     4.025
    33   6 C        2.912    -0.042    29.032     8.835
    34   6 C        2.910    -0.044    29.104     8.846
    35   1 H        0.925     0.040     2.444     2.445
    36   1 H        0.925     0.040     2.442     2.444
    37   1 H        0.925     0.041     2.440     2.443
    38   1 H        0.925     0.039     2.468     2.457
    39   1 H        0.925     0.036     2.498     2.471
    40   1 H        0.925     0.043     2.413     2.429
    41   1 H        0.925     0.043     2.408     2.427
    42   1 H        0.925     0.038     2.470     2.458
    43   1 H        0.925     0.037     2.492     2.469
    44   1 H        0.926     0.042     2.423     2.434
    45   1 H        0.926     0.045     2.383     2.414
    46   1 H        0.926     0.060     2.196     2.317
    47   1 H        0.925     0.055     2.261     2.352
    48   1 H        0.925     0.038     2.473     2.459
    49   1 H        0.925     0.054     2.272     2.357
    50   1 H        0.925     0.038     2.473     2.459
    51   1 H        0.925     0.055     2.262     2.352
    52   1 H        0.925     0.054     2.272     2.357
    53   1 H        0.926     0.060     2.197     2.318
    54   1 H        0.925     0.041     2.440     2.443
    55   1 H        0.925     0.040     2.443     2.444
    56   1 H        0.925     0.041     2.442     2.444
    57   1 H        0.925     0.043     2.413     2.429
    58   1 H        0.925     0.036     2.497     2.471
    59   1 H        0.925     0.038     2.470     2.458
    60   1 H        0.925     0.038     2.471     2.458
    61   1 H        0.925     0.043     2.409     2.427
    62   1 H        0.925     0.037     2.493     2.469
    63   1 H        0.926     0.042     2.428     2.437
    64   1 H        0.926     0.044     2.391     2.418
    65   1 H        0.926     0.034     2.526     2.485
    66   1 H        0.926     0.024     2.676     2.558
    67   1 H        0.926     0.023     2.685     2.562
    68   1 H        0.926     0.034     2.525     2.485

molecular dipole:
                 x           y           z       tot (Debye)
 q only:        6.780       0.188      -0.067
   full:        6.370       0.177      -0.065      16.198

 projected vibrational frequencies (cm⁻¹)
eigval :       -0.00    -0.00    -0.00     0.00     0.00     0.00
eigval :       13.59    21.45    22.47    25.90    27.57    40.20
eigval :       41.08    63.52    84.25    87.71    98.15   105.40
eigval :      115.93   135.99   148.18   159.99   164.38   172.26
eigval :      173.02   192.37   205.14   207.68   216.88   219.28
eigval :      220.56   227.46   248.94   257.75   302.89   307.53
eigval :      310.76   314.53   320.49   329.29   337.57   340.76
eigval :      343.28   349.84   359.80   364.51   378.67   381.35
eigval :      394.10   400.80   412.73   434.46   437.89   445.69
eigval :      446.33   477.77   482.43   485.61   506.50   534.52
eigval :      543.04   553.77   573.00   577.24   591.54   594.87
eigval :      602.87   618.87   629.72   652.58   676.99   678.19
eigval :      681.88   687.55   747.01   766.57   801.52   804.74
eigval :      809.97   817.89   845.19   866.05   878.56   879.80
eigval :      882.30   883.88   884.96   904.02   913.17   913.80
eigval :      924.33   944.48   954.18   956.17   956.79   958.61
eigval :      961.33   961.72   963.06   963.40   979.01  1007.89
eigval :     1017.85  1030.09  1030.36  1032.58  1032.95  1069.45
eigval :     1073.52  1100.23  1121.85  1133.50  1135.79  1136.80
eigval :     1153.07  1164.33  1170.75  1196.47  1204.46  1215.21
eigval :     1215.71  1219.44  1219.77  1220.15  1237.58  1246.19
eigval :     1257.39  1281.07  1286.54  1289.31  1297.16  1299.51
eigval :     1333.10  1337.41  1344.15  1356.23  1371.52  1394.12
eigval :     1398.68  1399.81  1400.72  1400.86  1401.09  1405.67
eigval :     1412.41  1422.49  1425.13  1425.54  1440.89  1450.71
eigval :     1469.15  1478.49  1479.25  1486.38  1486.42  1488.27
eigval :     1488.43  1489.38  1490.80  1494.56  1495.38  1498.72
eigval :     1499.51  1503.32  1509.35  1510.88  1511.03  1514.18
eigval :     1514.29  1611.11  3022.72  3023.32  3023.75  3023.97
eigval :     3026.63  3027.05  3027.88  3028.11  3030.10  3030.46
eigval :     3030.76  3031.95  3033.27  3033.64  3038.41  3038.79
eigval :     3046.58  3046.73  3049.65  3049.93  3050.55  3052.35
eigval :     3057.34  3061.24  3073.39  3076.34  3087.14  3090.21
eigval :     3094.60  3095.08  3109.39  3110.11  3131.65  3131.90

   temp. (K)  partition function   enthalpy   heat capacity  entropy
                                   cal/mol     cal/K/mol   cal/K/mol   J/K/mol
 298.15  VIB  0.112E+16            20161.296    123.639    123.817
         ROT  0.393E+08              888.752      2.981     37.731
         INT  0.439E+23            21050.048    126.620    161.548
         TR   0.972E+28             1481.254      4.968     44.283
         TOT                       22531.3023   131.5882   205.8304   861.1944

       T/K    H(0)-H(T)+PV         H(T)/Eh          T*S/Eh         G(T)/Eh
   ------------------------------------------------------------------------
    298.15    0.359059E-01    0.586774E+00    0.977967E-01    0.488977E+00
   ------------------------------------------------------------------------

         :::::::::::::::::::::::::::::::::::::::::::::::::::::
         ::                  THERMODYNAMIC                  ::
         :::::::::::::::::::::::::::::::::::::::::::::::::::::
         :: total free energy         -98.223937190484 Eh   ::
         ::.................................................::
         :: total energy              -98.712914532391 Eh   ::
         :: zero point energy           0.550868092332 Eh   ::
         :: G(RRHO) w/o ZPVE           -0.061890750425 Eh   ::
         :: G(RRHO) contrib.            0.488977341907 Eh   ::
         :::::::::::::::::::::::::::::::::::::::::::::::::::::

           -------------------------------------------------
          | TOTAL ENERGY              -98.712914532391 Eh   |
          | TOTAL ENTHALPY            -98.126140524406 Eh   |
          | TOTAL FREE ENERGY         -98.223937190484 Eh   |
          | GRADIENT NORM               0.000045525625 Eh/α |
          | HOMO-LUMO GAP               0.055116833790 eV   |
           -------------------------------------------------

 * finished run on 2025/09/12 at 08:44:34.212
