   * xtb version 6.7.1 (edcfbbe) compiled by 'albert@albert-system' on 2024-07-22

   ID    Z sym.   atoms
    1    6 C      1-23, 25-29, 33, 34
    2    7 N      24
    3    9 F      30-32
    4    1 H      35-68

          program call               : xtb data2507/toluene/4-Ac/4-Ac.xyz --gfn 2 --gbsa toluene --ohess vtight --parallel 40 --molden --ceasefiles --namespace data2507/toluene/4-Ac/4-Ac_toluene_S0_preOpt
      * Solvation model:               GBSA
        Solvent                        toluene
        Solvent mass                       9.2140E+01 g/mol
          :  Hamiltonian                  GFN2-xTB          :
 * total energy  :   -98.7977558 Eh     change       -0.6068888E-09 Eh
 * total energy  :   -98.8083814 Eh     change       -0.1062560E-01 Eh
 * total energy  :   -98.8124348 Eh     change       -0.4053418E-02 Eh
 * total energy  :   -98.8136773 Eh     change       -0.1242537E-02 Eh
 * total energy  :   -98.8141248 Eh     change       -0.4474396E-03 Eh
 * total energy  :   -98.8141782 Eh     change       -0.5344677E-04 Eh
 * total energy  :   -98.8141905 Eh     change       -0.1229571E-04 Eh
 * total energy  :   -98.8141944 Eh     change       -0.3834485E-05 Eh
 * total energy  :   -98.8141964 Eh     change       -0.2035875E-05 Eh
 * total energy  :   -98.8141974 Eh     change       -0.9980407E-06 Eh
 * total energy  :   -98.8141981 Eh     change       -0.6828765E-06 Eh
 * total energy  :   -98.8141985 Eh     change       -0.4278118E-06 Eh
 * total energy  :   -98.8141987 Eh     change       -0.1911260E-06 Eh
 * total energy  :   -98.8141987 Eh     change       -0.3024876E-07 Eh
   *** GEOMETRY OPTIMIZATION CONVERGED AFTER 14 ITERATIONS ***

 final structure:
================
68
 xtb: 6.7.1 (edcfbbe)
C            6.25776885949251       -0.55623019857360       -0.00009892021945
C            5.04880711407568       -1.49681482593550       -0.00004294059792
C            5.12937559749629       -2.37705861857337       -1.25632874193572
C            5.12951000861231       -2.37709327550399        1.25620929959860
C            3.72646164359660       -0.74433824350335        0.00003943360962
C            3.63538595757443        0.64054263264343        0.00011330224098
C            2.40673013141127        1.27011234475520        0.00017424649984
C            1.21820628216386        0.54123852704260        0.00015594323530
C            1.28161081571847       -0.85467051764644        0.00009623073016
C            2.53081972617790       -1.45512206144595        0.00004454249168
C            0.03479751472656       -1.72172716323608        0.00008249294397
C            0.04600340739598       -2.60291487608317        1.26333023706051
C            0.04599773944840       -2.60286513358232       -1.26320065834432
C           -1.23335455130587       -0.88605605002735        0.00009870184539
C           -2.46707607145095       -1.52473185524046        0.00004940056815
C           -3.67682303372091       -0.84562778189189        0.00003561213592
C           -5.02608456564079       -1.54868251187645       -0.00004618636340
C           -4.90023799445897       -3.07534068194985        0.00000325021428
C           -5.80690501198350       -1.13446080299392       -1.25633179285985
C           -5.80711454325061       -1.13439743140397        1.25608794450602
C           -3.61945994307677        0.54456946343643        0.00007738468703
C           -2.41281100941510        1.20879896922458        0.00013806810640
C           -1.20466333104202        0.50905203682273        0.00015012297942
N           -0.00214284287238        1.20156127903417        0.00021098773082
C           -0.02139250020636        2.62037440496699        0.00012395242501
C           -0.03167684438458        3.31663525100720        1.20506810799706
C           -0.05373783788739        4.69871680656902        1.20837707696068
C           -0.06947341168176        5.38514344175760       -0.00007087152119
C           -0.06439243762541        6.88451743074082       -0.00017032232736
F           -0.67181832167676        7.41835588505196        1.07438631445186
F           -0.67109491365666        7.41819327380395       -1.07520807491169
F            1.18896311995771        7.39609537894958        0.00022022163047
C           -0.05360957652674        4.69854926840505       -1.20842074987437
C           -0.03154890967149        3.31646959455628       -1.20491661664973
H            6.26281305713187        0.07441966276859        0.88616811951564
H            6.26269588336781        0.07446149126291       -0.88633714784902
H            7.17454120140271       -1.14294326391475       -0.00017202465412
H            4.33168499504070       -3.11451227932141       -1.27612458932500
H            5.04824520994755       -1.76333756610951       -2.15152319712727
H            6.08063286656444       -2.90491445814542       -1.28452530384968
H            6.08075150130650       -2.90498503259450        1.28426661594602
H            4.33179271350059       -3.11451624709269        1.27608989438999
H            5.04852013242886       -1.76339249999712        2.15143029706275
H            4.51863050091451        1.25795027836239        0.00012630639503
H            2.37155607170577        2.34934430694929        0.00023374841956
H            2.57481748865381       -2.53268282471103        0.00000262023724
H            0.93396448969544       -3.22817171253673        1.29313861972266
H            0.03832738320888       -1.97581869503388        2.15332128428625
H           -0.82552049468109       -3.25092679892158        1.29308531940486
H            0.03832688326015       -1.97573224462783       -2.15316595491341
H           -0.82552969596487       -3.25087046356196       -1.29298458220099
H            0.93395298846932       -3.22812836737921       -1.29303529534600
H           -2.47308653424381       -2.60105256393094        0.00001718393060
H           -4.37697693675788       -3.42519529014283       -0.88718750101084
H           -5.89344728794087       -3.52056509057500       -0.00003723555808
H           -4.37707044050915       -3.42513920181965        0.88727098361996
H           -6.77034794187855       -1.63979231669848       -1.28389860648752
H           -5.24967401132352       -1.40388309864685       -2.15167549403511
H           -5.98453758483495       -0.06262704345056       -1.27593299578326
H           -5.98480373109373       -0.06257170852016        1.27558422983087
H           -6.77053812643783       -1.63977160275306        1.28354361162703
H           -5.25000918439205       -1.40372973392964        2.15153702845191
H           -4.52535856508599        1.13176336209793        0.00006409493648
H           -2.40543437216339        2.28852753626737        0.00017758724224
H           -0.02271700819490        2.76994146279935        2.13540408720865
H           -0.06447778778253        5.24435365973651        2.13942153457315
H           -0.06425273871691        5.24405226254802       -2.13954397532543
H           -0.02249119091053        2.76964912232311       -2.13517726237935

          :  Hamiltonian                  GFN2-xTB          :
         :: gradient norm              0.000108711842 Eh/a0 ::
         :: HOMO-LUMO gap              1.977440140898 eV    ::
         :: SCC energy              -100.277520288208 Eh    ::
         :: -> dispersion             -0.081924337613 Eh    ::
         :: -> Gsolv                  -0.033178741261 Eh    ::
         :: repulsion energy           1.463321557451 Eh    ::

    * Orbital Energies and Occupations

         #    Occupation            Energy/Eh            Energy/eV
      -------------------------------------------------------------
         1        2.0000           -0.8883106             -24.1722
       ...           ...                  ...                  ...
        78        2.0000           -0.4378798             -11.9153
        79        2.0000           -0.4320640             -11.7571
        80        2.0000           -0.4292127             -11.6795
        81        2.0000           -0.4264263             -11.6036
        82        2.0000           -0.4223911             -11.4938
        83        2.0000           -0.4185308             -11.3888
        84        2.0000           -0.4109074             -11.1814
        85        2.0000           -0.4010835             -10.9140
        86        2.0000           -0.4001708             -10.8892
        87        2.0000           -0.3933310             -10.7031
        88        2.0000           -0.3913460             -10.6491
        89        2.0000           -0.3876247             -10.5478
        90        2.0000           -0.3416739              -9.2974 (HOMO)
        91                         -0.2690043              -7.3200 (LUMO)
        92                         -0.2578771              -7.0172
        93                         -0.2191493              -5.9634
        94                         -0.2143739              -5.8334
        95                         -0.2134045              -5.8070
        96                         -0.1866533              -5.0791
        97                         -0.1377457              -3.7483
        98                         -0.0892103              -2.4275
        99                         -0.0766493              -2.0857
       100                         -0.0009796              -0.0267
       101                          0.0250489               0.6816
       ...                                ...                  ...
       170                          0.6775233              18.4363
      -------------------------------------------------------------
                  HL-Gap            0.0726696 Eh            1.9774 eV

     #   Z          covCN         q      C6AA      α(0)
     1   6 C        3.761    -0.106    22.574     6.773
     2   6 C        3.902     0.025    20.101     6.373
     3   6 C        3.761    -0.104    22.532     6.767
     4   6 C        3.761    -0.104    22.532     6.767
     5   6 C        2.970    -0.006    28.171     8.706
     6   6 C        2.925    -0.044    29.096     8.846
     7   6 C        2.922    -0.064    29.603     8.922
     8   6 C        2.928     0.053    26.806     8.491
     9   6 C        2.978    -0.015    28.390     8.740
    10   6 C        2.937    -0.044    29.084     8.845
    11   6 C        3.908     0.021    20.164     6.383
    12   6 C        3.761    -0.102    22.503     6.763
    13   6 C        3.761    -0.102    22.503     6.763
    14   6 C        2.978    -0.016    28.405     8.742
    15   6 C        2.934    -0.048    29.195     8.861
    16   6 C        2.970    -0.006    28.169     8.706
    17   6 C        3.902     0.025    20.100     6.373
    18   6 C        3.761    -0.106    22.566     6.772
    19   6 C        3.761    -0.104    22.540     6.768
    20   6 C        3.761    -0.104    22.540     6.768
    21   6 C        2.928    -0.040    28.990     8.830
    22   6 C        2.921    -0.064    29.584     8.920
    23   6 C        2.928     0.053    26.806     8.491
    24   7 N        2.754    -0.074    22.681     7.073
    25   6 C        2.926     0.085    26.099     8.378
    26   6 C        2.922    -0.030    28.749     8.793
    27   6 C        2.919    -0.020    28.504     8.755
    28   6 C        2.977    -0.027    28.667     8.783
    29   6 C        3.336     0.486    17.278     6.582
    30   9 F        0.791    -0.216    11.398     3.988
    31   9 F        0.791    -0.216    11.398     3.988
    32   9 F        0.791    -0.223    11.474     4.001
    33   6 C        2.919    -0.020    28.504     8.755
    34   6 C        2.922    -0.030    28.749     8.793
    35   1 H        0.925     0.034     2.526     2.485
    36   1 H        0.925     0.034     2.526     2.485
    37   1 H        0.925     0.035     2.510     2.478
    38   1 H        0.925     0.036     2.508     2.477
    39   1 H        0.925     0.032     2.561     2.503
    40   1 H        0.925     0.036     2.499     2.472
    41   1 H        0.925     0.036     2.499     2.472
    42   1 H        0.925     0.036     2.508     2.477
    43   1 H        0.925     0.032     2.561     2.503
    44   1 H        0.926     0.033     2.546     2.495
    45   1 H        0.926     0.018     2.760     2.598
    46   1 H        0.926     0.034     2.531     2.488
    47   1 H        0.925     0.040     2.454     2.450
    48   1 H        0.925     0.029     2.596     2.519
    49   1 H        0.925     0.041     2.441     2.443
    50   1 H        0.925     0.029     2.596     2.519
    51   1 H        0.925     0.041     2.441     2.443
    52   1 H        0.925     0.040     2.454     2.450
    53   1 H        0.926     0.041     2.430     2.437
    54   1 H        0.925     0.035     2.514     2.480
    55   1 H        0.925     0.035     2.511     2.478
    56   1 H        0.925     0.035     2.514     2.480
    57   1 H        0.925     0.036     2.497     2.471
    58   1 H        0.925     0.032     2.556     2.500
    59   1 H        0.925     0.035     2.521     2.483
    60   1 H        0.925     0.035     2.521     2.483
    61   1 H        0.925     0.036     2.497     2.471
    62   1 H        0.925     0.032     2.556     2.500
    63   1 H        0.926     0.026     2.646     2.544
    64   1 H        0.926     0.018     2.758     2.597
    65   1 H        0.926     0.070     2.090     2.261
    66   1 H        0.926     0.067     2.117     2.275
    67   1 H        0.926     0.067     2.117     2.275
    68   1 H        0.926     0.070     2.090     2.261

molecular dipole:
                 x           y           z       tot (Debye)
 q only:       -0.028      -2.046       0.000
   full:       -0.037      -1.827       0.000       4.644

 projected vibrational frequencies (cm⁻¹)
eigval :       -0.00     0.00     0.00     0.00     0.00     0.00
eigval :      -36.16    21.44    22.23    24.74    27.32    31.76
eigval :       40.87    59.20    83.26    85.64   101.05   106.29
eigval :      112.28   135.95   157.27   159.67   165.41   174.45
eigval :      184.59   186.51   206.73   218.85   224.57   228.16
eigval :      230.24   231.21   249.24   276.00   303.47   307.10
eigval :      312.45   326.78   334.97   340.28   340.43   348.89
eigval :      352.15   356.19   365.65   367.33   393.85   396.09
eigval :      413.02   420.40   427.07   443.44   444.69   452.31
eigval :      469.69   477.93   484.96   489.54   518.80   533.33
eigval :      565.41   576.93   586.77   587.47   607.38   607.73
eigval :      627.59   645.13   674.54   684.98   687.66   692.57
eigval :      709.22   745.52   808.79   817.11   818.61   823.92
eigval :      848.05   870.43   886.16   894.27   896.03   905.44
eigval :      912.18   917.01   917.25   925.68   927.03   939.69
eigval :      951.18   957.05   957.51   958.16   961.60   961.82
eigval :      962.05   962.35   987.45  1003.79  1011.54  1033.53
eigval :     1034.46  1034.47  1035.97  1036.49  1066.73  1086.55
eigval :     1097.68  1134.52  1153.39  1158.63  1160.24  1173.76
eigval :     1177.54  1188.46  1212.46  1224.95  1225.11  1230.32
eigval :     1232.23  1237.40  1252.95  1256.20  1260.29  1266.77
eigval :     1275.17  1296.47  1297.25  1310.16  1322.10  1329.65
eigval :     1332.15  1358.94  1397.89  1400.08  1400.31  1401.57
eigval :     1402.40  1403.21  1415.32  1419.43  1419.95  1426.72
eigval :     1426.95  1476.38  1485.45  1486.14  1487.14  1489.41
eigval :     1490.31  1492.49  1493.07  1494.78  1496.53  1500.27
eigval :     1501.24  1502.03  1504.32  1508.64  1510.29  1511.91
eigval :     1517.36  1518.41  1564.86  1570.37  1580.96  1588.36
eigval :     1599.22  1607.13  3016.83  3017.46  3018.82  3018.89
eigval :     3021.56  3022.46  3022.52  3023.44  3023.72  3024.24
eigval :     3025.95  3026.28  3029.42  3029.83  3033.83  3034.43
eigval :     3037.55  3039.50  3043.15  3043.56  3046.20  3046.71
eigval :     3047.09  3051.02  3076.41  3083.34  3090.44  3094.16
eigval :     3095.16  3096.33  3105.47  3106.33  3110.96  3125.00

   temp. (K)  partition function   enthalpy   heat capacity  entropy
                                   cal/mol     cal/K/mol   cal/K/mol   J/K/mol
 298.15  VIB  0.589E+14            19156.743    119.413    116.526
         ROT  0.393E+08              888.752      2.981     37.732
         INT  0.232E+22            20045.496    122.394    154.258
         TR   0.972E+28             1481.254      4.968     44.283
         TOT                       21526.7497   127.3624   198.5408   830.6946

       T/K    H(0)-H(T)+PV         H(T)/Eh          T*S/Eh         G(T)/Eh
   ------------------------------------------------------------------------
    298.15    0.343051E-01    0.591679E+00    0.943331E-01    0.497346E+00
   ------------------------------------------------------------------------

         :::::::::::::::::::::::::::::::::::::::::::::::::::::
         ::                  THERMODYNAMIC                  ::
         :::::::::::::::::::::::::::::::::::::::::::::::::::::
         :: total free energy         -98.316853049578 Eh   ::
         ::.................................................::
         :: total energy              -98.814198726366 Eh   ::
         :: zero point energy           0.557373741792 Eh   ::
         :: G(RRHO) w/o ZPVE           -0.060028065004 Eh   ::
         :: G(RRHO) contrib.            0.497345676788 Eh   ::
         :::::::::::::::::::::::::::::::::::::::::::::::::::::

           -------------------------------------------------
          | TOTAL ENERGY              -98.814198726366 Eh   |
          | TOTAL ENTHALPY            -98.222519925388 Eh   |
          | TOTAL FREE ENERGY         -98.316853049578 Eh   |
          | GRADIENT NORM               0.000108832894 Eh/α |
          | HOMO-LUMO GAP               1.977439961927 eV   |
           -------------------------------------------------

 * finished run on 2025/09/12 at 08:37:00.389
