   * xtb version 6.7.1 (edcfbbe) compiled by 'albert@albert-system' on 2024-07-22

   ID    Z sym.   atoms
    1    6 C      1-6, 8-13, 15-21, 23-28, 30-35, 37-42
    2    7 N      7, 29
    3    8 O      14, 22, 36
    4    1 H      43-66

          program call               : xtb data250606/toluene/Px2BP/Px2BP_toluene_S0_finalOpt.xtbopt.xyz --gfn 2 --uhf 2 --gbsa toluene --ohess vtight --parallel 14 --molden --ceasefiles --namespace data250606/toluene/Px2BP/Px2BP_toluene_T1_preOpt
      * Solvation model:               GBSA
        Solvent                        toluene
        Solvent mass                       9.2140E+01 g/mol
          :  Hamiltonian                  GFN2-xTB          :
 * total energy  :  -109.5161166 Eh     change       -0.1312084E-07 Eh
 * total energy  :  -109.5202290 Eh     change       -0.4112355E-02 Eh
 * total energy  :  -109.5211824 Eh     change       -0.9534375E-03 Eh
 * total energy  :  -109.5212586 Eh     change       -0.7624333E-04 Eh
 * total energy  :  -109.5213107 Eh     change       -0.5200493E-04 Eh
 * total energy  :  -109.5213631 Eh     change       -0.5249284E-04 Eh
 * total energy  :  -109.5214333 Eh     change       -0.7017469E-04 Eh
 * total energy  :  -109.5215120 Eh     change       -0.7872466E-04 Eh
 * total energy  :  -109.5215627 Eh     change       -0.5064411E-04 Eh
 * total energy  :  -109.5216102 Eh     change       -0.4754047E-04 Eh
 * total energy  :  -109.5228148 Eh     change       -0.4353190E-06 Eh
 * total energy  :  -109.5228152 Eh     change       -0.3764769E-06 Eh
 * total energy  :  -109.5228155 Eh     change       -0.3122602E-06 Eh
 * total energy  :  -109.5228157 Eh     change       -0.2681167E-06 Eh
 * total energy  :  -109.5228160 Eh     change       -0.2681028E-06 Eh
 * total energy  :  -109.5228163 Eh     change       -0.3178657E-06 Eh
 * total energy  :  -109.5228167 Eh     change       -0.3922582E-06 Eh
 * total energy  :  -109.5228172 Eh     change       -0.4329593E-06 Eh
 * total energy  :  -109.5228172 Eh     change       -0.1438650E-08 Eh
   *** GEOMETRY OPTIMIZATION CONVERGED AFTER 94 ITERATIONS ***

 final structure:
================
66
 xtb: 6.7.1 (edcfbbe)
C           -6.98861896407047       -1.79125779950092       -2.27541732398183
C           -8.22620697347353       -1.17639490177405       -2.16457463777603
C           -8.39766874303139       -0.12950383011553       -1.27429705151456
C           -7.33787851703992        0.29347271296986       -0.48859979920461
C           -6.08313419952118       -0.33736087128543       -0.57810304843497
C           -5.92578444957824       -1.37669837242116       -1.49471185936522
N           -5.04235500129600        0.10096296930981        0.22362194687625
C           -5.25559547758147        1.16172805974195        1.08823024777215
C           -4.25814105247763        1.63665882531746        1.93926199430376
C           -4.50545549137408        2.70064291942752        2.78659719317313
C           -5.75139353789402        3.30795638523078        2.80925321309291
C           -6.76081665192074        2.83940031398118        1.98499158593733
C           -6.52211682241152        1.77314483562453        1.13304379830300
O           -7.56295748497749        1.34277794344455        0.35828147647748
C           -3.77508196807752       -0.53763781564411        0.16759377992141
C           -2.68382213808286        0.12014764822416       -0.40502951581925
C           -1.45370745969050       -0.49019188006704       -0.45536818760799
C           -1.26122474891663       -1.78073385734425        0.07652295910051
C           -2.38997774408889       -2.44512607324558        0.60295687090910
C           -3.61719806765322       -1.83623574608078        0.66043884851863
C           -0.00276926753068       -2.49999902527627        0.00638477703148
O           -0.00415432853480       -3.77415116230002        0.01058763819392
C            1.25692501360544       -1.78365624286142       -0.06800356510948
C            1.45083180161445       -0.48865259959961        0.45255555893073
C            2.68227778394118        0.11870790851681        0.39951426122365
C            3.77358019073062       -0.54645375839377       -0.16449008377566
C            3.61420127907957       -1.84917348725584       -0.64593568934160
C            2.38562429950023       -2.45501263566530       -0.58587604193628
N            5.04232350267907        0.08901239750928       -0.22330781222325
C            6.08005995019493       -0.34380284659041        0.58531044512685
C            5.91751925898433       -1.37276289650286        1.51266902072957
C            6.97733448970477       -1.78211702813290        2.30018329179366
C            8.21701590899570       -1.17217248593573        2.18554913163608
C            8.39364282102379       -0.13541616765231        1.28447913434211
C            7.33685643378858        0.28237181592888        0.49197875320823
O            7.56682653719400        1.32207775979212       -0.36537317741637
C            6.52854047939755        1.74817964552913       -1.14591955296312
C            6.77186183151803        2.80551881054222       -2.00763056631438
C            5.76523937568197        3.26919943837019       -2.83804800133413
C            4.51746682295064        2.66580726094625       -2.81178166096396
C            4.26556370444022        1.61067107873722       -1.95479583942271
C            5.26015090880134        1.14090679188991       -1.09755651976277
H           -6.84470756442648       -2.59936749596015       -2.97553951498258
H           -9.05444438806886       -1.50300290331217       -2.77287380940338
H           -9.34435183713574        0.37684792747042       -1.17350788545902
H           -4.96241867616359       -1.85209519196536       -1.58889197613453
H           -3.29162780087547        1.15889465980301        1.93066041211765
H           -3.71853904731182        3.05311759371255        3.43498525263107
H           -5.94254496145276        4.13838366918535        3.46995253008331
H           -7.74405930546146        3.28211665318684        1.98822030879541
H           -2.82173289584217        1.10644297616666       -0.82548982638053
H           -0.63493230913354        0.01039017457504       -0.94946725232250
H           -2.25060832329879       -3.45042290451711        0.97403333820231
H           -4.46585306042893       -2.34914221930389        1.09039328464355
H            0.63200436723688        0.01805839947884        0.94025325509882
H            2.82123519290970        1.10847288484477        0.81138439722976
H            4.46286336108902       -2.36772987150064       -1.06904828591991
H            2.24504443151200       -3.46340241122504       -0.94801364990897
H            4.95251981719378       -1.84428087191453        1.60959596141035
H            6.82941295343205       -2.58226401745331        3.00857524980638
H            9.04295404865977       -1.49479754009670        2.79908080002174
H            9.34208583599034        0.36696507917870        1.18040628452873
H            7.75641744682609        3.24527721771950       -2.01338795948285
H            5.95992047145372        4.09287243587869       -3.50613639776179
H            3.73267893334337        3.01445621087072       -3.46479823112086
H            3.29764371274183        1.13582999909644       -1.94333228639416

          :  Hamiltonian                  GFN2-xTB          :
         :: gradient norm              0.000033698392 Eh/a0 ::
         :: HOMO-LUMO gap              0.494273398821 eV    ::
         :: SCC energy              -111.373662294735 Eh    ::
         :: -> dispersion             -0.089190749956 Eh    ::
         :: -> Gsolv                  -0.058359152314 Eh    ::
         :: repulsion energy           1.850845142974 Eh    ::

    * Orbital Energies and Occupations

         #    Occupation            Energy/Eh            Energy/eV
      -------------------------------------------------------------
         1        2.0000           -0.7511578             -20.4400
       ...           ...                  ...                  ...
        89        2.0000           -0.4276893             -11.6380
        90        2.0000           -0.4208041             -11.4507
        91        2.0000           -0.4198332             -11.4242
        92        2.0000           -0.4063394             -11.0571
        93        2.0000           -0.4062204             -11.0538
        94        2.0000           -0.4056901             -11.0394
        95        2.0000           -0.4035233             -10.9804
        96        2.0000           -0.3966099             -10.7923
        97        2.0000           -0.3939259             -10.7193
        98        1.9662           -0.3595676              -9.7843
        99        1.6073           -0.3567960              -9.7089
       100        1.4264           -0.3561001              -9.6900
       101        0.9999           -0.2735951              -7.4449 (HOMO)
       102        0.0000           -0.2554307              -6.9506 (LUMO)
       103        0.0000           -0.2554276              -6.9505
       104                         -0.2435153              -6.6264
       105                         -0.2435087              -6.6262
       106                         -0.2342918              -6.3754
       107                         -0.2292079              -6.2371
       108                         -0.2256986              -6.1416
       109                         -0.2210592              -6.0153
       110                         -0.2194507              -5.9716
       111                         -0.2110618              -5.7433
       112                         -0.2096935              -5.7060
       ...                                ...                  ...
       192                          0.6752851              18.3754
      -------------------------------------------------------------
                  HL-Gap            0.0181644 Eh            0.4943 eV

     #   Z          covCN         q      C6AA      α(0)
     1   6 C        2.918    -0.030    28.759     8.794
     2   6 C        2.919    -0.031    28.769     8.796
     3   6 C        2.917    -0.053    29.309     8.878
     4   6 C        2.884     0.129    25.169     8.225
     5   6 C        2.926     0.047    26.941     8.512
     6   6 C        2.921    -0.050    29.244     8.868
     7   7 N        2.752    -0.027    21.774     6.930
     8   6 C        2.926     0.047    26.943     8.512
     9   6 C        2.921    -0.051    29.255     8.870
    10   6 C        2.918    -0.031    28.763     8.795
    11   6 C        2.919    -0.031    28.773     8.796
    12   6 C        2.917    -0.053    29.306     8.877
    13   6 C        2.884     0.129    25.168     8.225
    14   8 O        1.709    -0.233    17.854     5.705
    15   6 C        2.923     0.033    27.261     8.562
    16   6 C        2.915    -0.044    29.082     8.843
    17   6 C        2.919    -0.044    29.105     8.847
    18   6 C        2.967    -0.022    28.554     8.765
    19   6 C        2.924    -0.032    28.786     8.799
    20   6 C        2.914    -0.043    29.074     8.842
    21   6 C        2.833     0.160    24.536     8.117
    22   8 O        0.858    -0.551    24.950     6.697
    23   6 C        2.967    -0.022    28.557     8.765
    24   6 C        2.919    -0.045    29.106     8.847
    25   6 C        2.915    -0.044    29.082     8.843
    26   6 C        2.923     0.033    27.262     8.562
    27   6 C        2.914    -0.043    29.074     8.842
    28   6 C        2.924    -0.032    28.787     8.799
    29   7 N        2.752    -0.027    21.774     6.930
    30   6 C        2.926     0.047    26.940     8.512
    31   6 C        2.921    -0.050    29.244     8.868
    32   6 C        2.918    -0.030    28.759     8.794
    33   6 C        2.919    -0.031    28.769     8.796
    34   6 C        2.917    -0.053    29.309     8.878
    35   6 C        2.884     0.129    25.169     8.225
    36   8 O        1.709    -0.233    17.854     5.705
    37   6 C        2.884     0.129    25.168     8.225
    38   6 C        2.917    -0.053    29.306     8.877
    39   6 C        2.919    -0.031    28.773     8.796
    40   6 C        2.918    -0.031    28.762     8.795
    41   6 C        2.921    -0.051    29.255     8.870
    42   6 C        2.926     0.047    26.943     8.512
    43   1 H        0.926     0.054     2.273     2.358
    44   1 H        0.926     0.057     2.231     2.336
    45   1 H        0.926     0.063     2.161     2.299
    46   1 H        0.926     0.052     2.298     2.371
    47   1 H        0.926     0.053     2.285     2.364
    48   1 H        0.926     0.055     2.261     2.351
    49   1 H        0.926     0.057     2.230     2.335
    50   1 H        0.926     0.063     2.165     2.301
    51   1 H        0.926     0.035     2.522     2.484
    52   1 H        0.926     0.033     2.543     2.494
    53   1 H        0.926     0.030     2.583     2.513
    54   1 H        0.926     0.031     2.566     2.505
    55   1 H        0.926     0.033     2.543     2.494
    56   1 H        0.926     0.035     2.523     2.484
    57   1 H        0.926     0.031     2.567     2.506
    58   1 H        0.926     0.030     2.583     2.513
    59   1 H        0.926     0.052     2.298     2.371
    60   1 H        0.926     0.054     2.273     2.358
    61   1 H        0.926     0.057     2.231     2.336
    62   1 H        0.926     0.063     2.161     2.299
    63   1 H        0.926     0.063     2.165     2.301
    64   1 H        0.926     0.057     2.230     2.335
    65   1 H        0.926     0.055     2.261     2.351
    66   1 H        0.926     0.053     2.285     2.364

molecular dipole:
                 x           y           z       tot (Debye)
 q only:        0.003       3.813      -0.010
   full:        0.003       3.747      -0.009       9.524

 projected vibrational frequencies (cm⁻¹)
eigval :       -0.00    -0.00    -0.00    -0.00     0.00     0.00
eigval :        8.75    11.36    13.84    30.83    31.00    35.35
eigval :       43.88    53.68    60.84    65.72    89.54   110.15
eigval :      111.98   120.56   133.06   163.07   163.58   180.71
eigval :      210.02   223.99   243.33   244.50   255.34   268.56
eigval :      276.44   277.89   292.25   319.40   370.97   373.86
eigval :      380.34   385.44   386.84   394.53   402.01   412.32
eigval :      422.68   429.30   430.09   430.33   450.25   459.96
eigval :      467.48   472.26   498.93   499.54   524.43   528.42
eigval :      531.09   532.68   550.15   571.32   580.58   585.27
eigval :      591.55   602.64   603.87   612.32   635.93   658.27
eigval :      666.50   666.78   670.36   670.67   672.81   676.96
eigval :      689.69   736.70   773.56   779.53   780.66   781.30
eigval :      792.64   797.65   799.99   808.33   843.67   854.85
eigval :      854.91   858.60   864.94   866.92   871.10   871.17
eigval :      883.59   897.34   898.56   902.77   903.20   904.27
eigval :      905.58   909.86   910.54   913.49   913.62   916.41
eigval :      921.11   922.38   923.62   934.96   942.97   998.86
eigval :     1006.20  1081.73  1081.87  1083.24  1083.67  1111.69
eigval :     1112.46  1117.49  1119.00  1127.26  1132.30  1154.20
eigval :     1166.05  1168.40  1169.47  1170.58  1171.71  1180.08
eigval :     1184.23  1199.21  1205.91  1206.32  1209.75  1225.96
eigval :     1235.08  1235.96  1251.52  1253.25  1254.88  1258.45
eigval :     1263.01  1304.44  1305.91  1306.44  1307.35  1315.75
eigval :     1316.02  1326.85  1331.72  1341.77  1346.00  1407.79
eigval :     1408.73  1414.90  1415.64  1432.55  1436.27  1437.10
eigval :     1437.19  1439.67  1444.29  1452.42  1463.75  1477.96
eigval :     1478.83  1482.62  1542.18  1552.10  1552.52  1559.58
eigval :     1559.60  1565.40  1570.49  1581.43  1583.59  1594.58
eigval :     3067.10  3067.49  3069.00  3069.46  3081.95  3082.57
eigval :     3087.54  3089.80  3094.90  3095.09  3095.17  3095.46
eigval :     3102.91  3103.28  3103.42  3103.64  3111.19  3111.34
eigval :     3111.52  3111.66  3114.82  3114.97  3115.03  3115.32

   temp. (K)  partition function   enthalpy   heat capacity  entropy
                                   cal/mol     cal/K/mol   cal/K/mol   J/K/mol
 298.15  VIB  0.867E+15            18975.951    121.598    117.287
         ROT  0.366E+08              888.752      2.981     37.592
         INT  0.318E+23            19864.704    124.579    154.879
         TR   0.123E+29             1481.254      4.968     44.750
         TOT                       21345.9576   129.5473   199.6290   835.2476

       T/K    H(0)-H(T)+PV         H(T)/Eh          T*S/Eh         G(T)/Eh
   ------------------------------------------------------------------------
    298.15    0.340169E-01    0.526096E+00    0.948502E-01    0.431246E+00
   ------------------------------------------------------------------------

         :::::::::::::::::::::::::::::::::::::::::::::::::::::
         ::                  THERMODYNAMIC                  ::
         :::::::::::::::::::::::::::::::::::::::::::::::::::::
         :: total free energy        -109.091571404944 Eh   ::
         ::.................................................::
         :: total energy             -109.522817149484 Eh   ::
         :: zero point energy           0.492078957928 Eh   ::
         :: G(RRHO) w/o ZPVE           -0.060833213388 Eh   ::
         :: G(RRHO) contrib.            0.431245744540 Eh   ::
         :::::::::::::::::::::::::::::::::::::::::::::::::::::

           -------------------------------------------------
          | TOTAL ENERGY             -109.522817149484 Eh   |
          | TOTAL ENTHALPY           -108.996721242870 Eh   |
          | TOTAL FREE ENERGY        -109.091571404944 Eh   |
          | GRADIENT NORM               0.000033506989 Eh/α |
          | HOMO-LUMO GAP               0.494279675795 eV   |
           -------------------------------------------------

 * finished run on 2025/06/06 at 21:15:20.039
