   * xtb version 6.7.1 (edcfbbe) compiled by 'albert@albert-system' on 2024-07-22

   ID    Z sym.   atoms
    1    6 C      1-6, 8-13, 15-21, 23-28, 30-35, 37-42
    2    7 N      7, 29
    3    8 O      14, 22, 36
    4    1 H      43-66

          program call               : xtb data250606/toluene/Px2BP/Px2BP_toluene_T1_crest.xyz --gfn 2 --uhf 2 --gbsa toluene --ohess vtight --parallel 14 --molden --ceasefiles --namespace data250606/toluene/Px2BP/Px2BP_toluene_T1_finalOpt
      * Solvation model:               GBSA
        Solvent                        toluene
        Solvent mass                       9.2140E+01 g/mol
          :  Hamiltonian                  GFN2-xTB          :
 * total energy  :  -109.5226088 Eh     change       -0.2376034E-07 Eh
 * total energy  :  -109.5227161 Eh     change       -0.1072595E-03 Eh
 * total energy  :  -109.5227475 Eh     change       -0.3141912E-04 Eh
 * total energy  :  -109.5227569 Eh     change       -0.9367756E-05 Eh
 * total energy  :  -109.5227638 Eh     change       -0.6923899E-05 Eh
 * total energy  :  -109.5227681 Eh     change       -0.4298199E-05 Eh
 * total energy  :  -109.5227704 Eh     change       -0.2284943E-05 Eh
 * total energy  :  -109.5227721 Eh     change       -0.1743364E-05 Eh
 * total energy  :  -109.5227738 Eh     change       -0.1626143E-05 Eh
 * total energy  :  -109.5227757 Eh     change       -0.1918007E-05 Eh
 * total energy  :  -109.5228190 Eh     change       -0.1246172E-05 Eh
 * total energy  :  -109.5228201 Eh     change       -0.1080261E-05 Eh
 * total energy  :  -109.5228213 Eh     change       -0.1265462E-05 Eh
 * total energy  :  -109.5228231 Eh     change       -0.1807475E-05 Eh
 * total energy  :  -109.5228258 Eh     change       -0.2638265E-05 Eh
 * total energy  :  -109.5228284 Eh     change       -0.2647506E-05 Eh
 * total energy  :  -109.5228298 Eh     change       -0.1408661E-05 Eh
 * total energy  :  -109.5228305 Eh     change       -0.6325094E-06 Eh
 * total energy  :  -109.5228305 Eh     change       -0.3669157E-08 Eh
   *** GEOMETRY OPTIMIZATION CONVERGED AFTER 44 ITERATIONS ***

 final structure:
================
66
 xtb: 6.7.1 (edcfbbe)
C           -6.93268829835974       -1.79171375636184       -2.38625212214576
C           -8.17482224223338       -1.18203412324195       -2.30034196729041
C           -8.37003280851417       -0.13876388781450       -1.41066148838005
C           -7.32919206492568        0.28642131592737       -0.60120433312901
C           -6.07005720167599       -0.33858164158880       -0.66626684113393
C           -5.88873012142805       -1.37515247698520       -1.58150362524019
N           -5.04805514642796        0.10237995828809        0.15760865577743
C           -5.28291689961290        1.16109104674154        1.01882884557004
C           -4.30374604325676        1.64046037757497        1.88832912983538
C           -4.57268426665418        2.70164529825770        2.73258868725188
C           -5.82249788035885        3.30139861355197        2.73358038679198
C           -6.81381814344593        2.82889708617257        1.88979939179737
C           -6.55330353539281        1.76576465267371        1.04035678499182
O           -7.57670625538315        1.33155939003024        0.24465766000768
C           -3.77848897995345       -0.53401394439106        0.12900418227050
C           -2.67916043852624        0.11973635852693       -0.43241702469604
C           -1.44760052160111       -0.48943295817914       -0.45742817354482
C           -1.26201926086678       -1.77424766460178        0.09053315716198
C           -2.39813523644771       -2.43456406926785        0.60633022110874
C           -3.62702607778558       -1.82726906263443        0.63747302581612
C           -0.00273922661120       -2.49393814852199        0.04727950354864
O           -0.00443143968706       -3.76800108225592        0.06882398280038
C            1.25839255875033       -1.77949372907265       -0.02096910368893
C            1.44777189514132       -0.47740856797444        0.48328081771334
C            2.68067300690998        0.12766071177284        0.43579189619471
C            3.77745708708449       -0.54686451090096       -0.10581805343224
C            3.62222094628637       -1.85635013470706       -0.56993815583774
C            2.39224461266836       -2.45975260220305       -0.51551832534483
N            5.04799883397509        0.08577300665648       -0.15955122604738
C            6.07380768080759       -0.33360610342271        0.67096570195702
C            5.89479231218270       -1.34088368188076        1.61883908996220
C            6.94260226618002       -1.73688006463345        2.42893670716936
C            8.18625581069763       -1.13460431143586        2.31669060676407
C            8.37923624296483       -0.11950773977322        1.39452711533436
C            7.33457694135076        0.28472420166775        0.57923839154088
O            7.58013516157071        1.30317466265544       -0.29909781928415
C            6.55313839765741        1.71689517543359       -1.10103919950623
C            6.81216494622180        2.75266043743424       -1.98411757809513
C            5.81727431591103        3.20323446064232       -2.83564514379702
C            4.56543753436672        2.60835722698035       -2.80883328051098
C            4.29806911552216        1.57425831406803       -1.93112318014027
C            5.28089915101331        1.11764376298728       -1.05349222856209
H           -6.77051953464788       -2.59738147344566       -3.08519968122340
H           -8.98857716734000       -1.51014982766646       -2.92713142199467
H           -9.32103185177287        0.36284937851226       -1.32852090275671
H           -4.92160286522177       -1.84657171465629       -1.65515660115553
H           -3.33445296913454        1.16828108305942        1.89620631025854
H           -3.79975433961337        3.05796681728304        3.39551926566300
H           -6.03061426175307        4.12933464817800        3.39227922249735
H           -7.79939243838039        3.26617252859625        1.87561104020421
H           -2.81169119224235        1.10178444884232       -0.86439277007509
H           -0.62192408944770        0.00735109876301       -0.94380442283913
H           -2.26315948289815       -3.43576142906988        0.98990138349946
H           -4.48205086665776       -2.33730260542710        1.05816052612299
H            0.62413702439570        0.03702407687358        0.95452194905592
H            2.81630404083081        1.12307595574026        0.83494821063266
H            4.47523488333586       -2.38206175316039       -0.97508911624155
H            2.25437177608128       -3.47323389702804       -0.86423577780569
H            4.92654077436625       -1.80624150819811        1.71322156717036
H            6.78215601114818       -2.52032514124208        3.15309814749997
H            9.00293859510118       -1.44667145731780        2.94783781011066
H            9.33130764344481        0.37614321415980        1.29124266888913
H            7.79933670531562        3.18651467879527       -1.98925992367065
H            6.02403775005840        4.01067027159987       -3.51977512655625
H            3.78954425275786        2.94724927451595       -3.47742990816408
H            3.32714452925459        1.10559167519055       -1.91905988788600

          :  Hamiltonian                  GFN2-xTB          :
         :: gradient norm              0.000048753658 Eh/a0 ::
         :: HOMO-LUMO gap              0.495702095087 eV    ::
         :: SCC energy              -111.373690367599 Eh    ::
         :: -> dispersion             -0.089178280516 Eh    ::
         :: -> Gsolv                  -0.058380577713 Eh    ::
         :: repulsion energy           1.850859890124 Eh    ::

    * Orbital Energies and Occupations

         #    Occupation            Energy/Eh            Energy/eV
      -------------------------------------------------------------
         1        2.0000           -0.7511521             -20.4399
       ...           ...                  ...                  ...
        89        2.0000           -0.4277064             -11.6385
        90        2.0000           -0.4207639             -11.4496
        91        2.0000           -0.4198028             -11.4234
        92        2.0000           -0.4063341             -11.0569
        93        2.0000           -0.4062205             -11.0538
        94        2.0000           -0.4056835             -11.0392
        95        2.0000           -0.4035318             -10.9807
        96        2.0000           -0.3965930             -10.7918
        97        2.0000           -0.3938995             -10.7186
        98        1.9657           -0.3595768              -9.7846
        99        1.6085           -0.3568255              -9.7097
       100        1.4258           -0.3561224              -9.6906
       101        0.9999           -0.2736505              -7.4464 (HOMO)
       102        0.0000           -0.2554339              -6.9507 (LUMO)
       103        0.0000           -0.2554272              -6.9505
       104                         -0.2435221              -6.6266
       105                         -0.2435128              -6.6263
       106                         -0.2341635              -6.3719
       107                         -0.2292108              -6.2371
       108                         -0.2257771              -6.1437
       109                         -0.2210379              -6.0147
       110                         -0.2194598              -5.9718
       111                         -0.2110578              -5.7432
       112                         -0.2097655              -5.7080
       ...                                ...                  ...
       192                          0.6754697              18.3805
      -------------------------------------------------------------
                  HL-Gap            0.0182166 Eh            0.4957 eV

     #   Z          covCN         q      C6AA      α(0)
     1   6 C        2.918    -0.030    28.758     8.794
     2   6 C        2.919    -0.031    28.769     8.796
     3   6 C        2.917    -0.053    29.309     8.878
     4   6 C        2.884     0.129    25.169     8.225
     5   6 C        2.926     0.047    26.939     8.512
     6   6 C        2.921    -0.050    29.243     8.868
     7   7 N        2.752    -0.027    21.777     6.931
     8   6 C        2.926     0.047    26.941     8.512
     9   6 C        2.921    -0.051    29.255     8.870
    10   6 C        2.918    -0.031    28.762     8.795
    11   6 C        2.919    -0.031    28.773     8.796
    12   6 C        2.917    -0.053    29.306     8.877
    13   6 C        2.884     0.129    25.168     8.225
    14   8 O        1.709    -0.233    17.854     5.705
    15   6 C        2.923     0.033    27.262     8.562
    16   6 C        2.915    -0.044    29.082     8.843
    17   6 C        2.919    -0.045    29.107     8.847
    18   6 C        2.967    -0.022    28.556     8.765
    19   6 C        2.925    -0.032    28.786     8.799
    20   6 C        2.914    -0.043    29.073     8.842
    21   6 C        2.833     0.160    24.537     8.117
    22   8 O        0.858    -0.551    24.949     6.697
    23   6 C        2.967    -0.022    28.555     8.765
    24   6 C        2.919    -0.045    29.107     8.847
    25   6 C        2.915    -0.044    29.082     8.843
    26   6 C        2.923     0.033    27.262     8.562
    27   6 C        2.914    -0.043    29.073     8.842
    28   6 C        2.925    -0.032    28.786     8.799
    29   7 N        2.752    -0.027    21.776     6.931
    30   6 C        2.926     0.047    26.940     8.512
    31   6 C        2.921    -0.050    29.243     8.868
    32   6 C        2.918    -0.030    28.758     8.794
    33   6 C        2.919    -0.031    28.769     8.796
    34   6 C        2.917    -0.053    29.309     8.878
    35   6 C        2.884     0.129    25.169     8.225
    36   8 O        1.709    -0.233    17.854     5.705
    37   6 C        2.884     0.129    25.168     8.225
    38   6 C        2.917    -0.053    29.306     8.877
    39   6 C        2.919    -0.031    28.773     8.796
    40   6 C        2.918    -0.031    28.762     8.795
    41   6 C        2.921    -0.051    29.255     8.870
    42   6 C        2.926     0.047    26.942     8.512
    43   1 H        0.926     0.054     2.273     2.358
    44   1 H        0.926     0.057     2.231     2.336
    45   1 H        0.926     0.063     2.161     2.299
    46   1 H        0.926     0.052     2.299     2.371
    47   1 H        0.926     0.053     2.285     2.364
    48   1 H        0.926     0.055     2.261     2.351
    49   1 H        0.926     0.057     2.230     2.335
    50   1 H        0.926     0.063     2.165     2.301
    51   1 H        0.926     0.035     2.523     2.484
    52   1 H        0.926     0.033     2.542     2.493
    53   1 H        0.926     0.030     2.582     2.513
    54   1 H        0.926     0.031     2.569     2.506
    55   1 H        0.926     0.033     2.542     2.493
    56   1 H        0.926     0.035     2.522     2.483
    57   1 H        0.926     0.031     2.568     2.506
    58   1 H        0.926     0.030     2.582     2.513
    59   1 H        0.926     0.052     2.299     2.371
    60   1 H        0.926     0.054     2.273     2.358
    61   1 H        0.926     0.057     2.231     2.336
    62   1 H        0.926     0.063     2.161     2.299
    63   1 H        0.926     0.063     2.165     2.301
    64   1 H        0.926     0.057     2.230     2.335
    65   1 H        0.926     0.055     2.261     2.351
    66   1 H        0.926     0.053     2.285     2.364

molecular dipole:
                 x           y           z       tot (Debye)
 q only:        0.006       3.806      -0.070
   full:        0.006       3.740      -0.068       9.508

 projected vibrational frequencies (cm⁻¹)
eigval :        0.00     0.00     0.00     0.00     0.00     0.00
eigval :       10.25    12.58    14.81    31.14    34.18    37.64
eigval :       45.32    55.45    62.01    66.36    91.09   110.13
eigval :      113.07   120.08   133.03   163.29   164.34   180.90
eigval :      210.10   224.43   243.86   244.76   255.44   268.57
eigval :      276.77   278.24   292.17   319.70   370.91   374.61
eigval :      381.05   386.07   387.11   395.24   402.35   412.52
eigval :      422.73   429.64   430.27   430.89   450.40   460.40
eigval :      467.80   472.50   499.19   499.68   524.64   528.64
eigval :      531.15   532.73   550.30   571.49   580.70   585.47
eigval :      591.63   602.82   603.97   612.33   636.03   658.32
eigval :      666.58   667.61   670.41   671.54   672.94   677.02
eigval :      689.91   736.84   776.73   777.18   779.21   779.93
eigval :      792.97   797.88   800.50   809.16   844.80   854.86
eigval :      854.94   859.30   866.15   867.17   869.93   870.27
eigval :      883.71   897.85   900.89   902.06   903.28   903.89
eigval :      905.85   910.53   911.65   913.55   914.19   918.12
eigval :      918.89   920.20   921.66   936.09   943.21   999.05
eigval :     1006.43  1081.50  1081.99  1083.50  1083.82  1112.44
eigval :     1112.52  1117.84  1119.10  1127.40  1132.45  1154.52
eigval :     1166.87  1168.99  1170.93  1171.36  1171.65  1180.37
eigval :     1184.55  1199.41  1206.15  1206.16  1210.07  1226.17
eigval :     1235.66  1235.92  1251.66  1253.28  1255.06  1258.61
eigval :     1263.40  1304.53  1306.15  1306.66  1307.45  1315.83
eigval :     1316.09  1326.80  1331.65  1341.74  1346.06  1407.80
eigval :     1408.68  1415.36  1415.73  1432.32  1436.61  1437.16
eigval :     1437.20  1439.85  1444.50  1452.62  1463.68  1478.17
eigval :     1479.06  1482.78  1542.58  1552.52  1552.60  1559.71
eigval :     1559.73  1565.53  1570.67  1581.48  1583.62  1594.69
eigval :     3067.01  3067.60  3068.95  3069.48  3081.90  3082.42
eigval :     3087.90  3090.26  3094.63  3095.01  3095.58  3095.65
eigval :     3103.20  3103.29  3103.33  3103.58  3110.70  3111.41
eigval :     3111.62  3111.73  3114.86  3115.00  3115.07  3115.35

   temp. (K)  partition function   enthalpy   heat capacity  entropy
                                   cal/mol     cal/K/mol   cal/K/mol   J/K/mol
 298.15  VIB  0.481E+15            18944.828    121.748    116.796
         ROT  0.367E+08              888.752      2.981     37.595
         INT  0.176E+23            19833.580    124.729    154.391
         TR   0.123E+29             1481.254      4.968     44.750
         TOT                       21314.8342   129.6971   199.1405   833.2038

       T/K    H(0)-H(T)+PV         H(T)/Eh          T*S/Eh         G(T)/Eh
   ------------------------------------------------------------------------
    298.15    0.339674E-01    0.526153E+00    0.946181E-01    0.431535E+00
   ------------------------------------------------------------------------

         :::::::::::::::::::::::::::::::::::::::::::::::::::::
         ::                  THERMODYNAMIC                  ::
         :::::::::::::::::::::::::::::::::::::::::::::::::::::
         :: total free energy        -109.091295148113 Eh   ::
         ::.................................................::
         :: total energy             -109.522830476646 Eh   ::
         :: zero point energy           0.492186052081 Eh   ::
         :: G(RRHO) w/o ZPVE           -0.060650723549 Eh   ::
         :: G(RRHO) contrib.            0.431535328532 Eh   ::
         :::::::::::::::::::::::::::::::::::::::::::::::::::::

           -------------------------------------------------
          | TOTAL ENERGY             -109.522830476646 Eh   |
          | TOTAL ENTHALPY           -108.996677074138 Eh   |
          | TOTAL FREE ENERGY        -109.091295148113 Eh   |
          | GRADIENT NORM               0.000048852418 Eh/α |
          | HOMO-LUMO GAP               0.495698940162 eV   |
           -------------------------------------------------

 * finished run on 2025/06/06 at 21:21:20.335
