   * xtb version 6.7.1 (edcfbbe) compiled by 'albert@albert-system' on 2024-07-22

   ID    Z sym.   atoms
    1    6 C      1-6, 8-13, 15-21, 23-28, 30-35, 37-42
    2    7 N      7, 29
    3    8 O      14, 22, 36
    4    1 H      43-66

          program call               : xtb data250606/toluene/Px2BP/Px2BP.xyz --gfn 2 --gbsa toluene --ohess vtight --parallel 14 --molden --ceasefiles --namespace data250606/toluene/Px2BP/Px2BP_toluene_S0_preOpt
      * Solvation model:               GBSA
        Solvent                        toluene
        Solvent mass                       9.2140E+01 g/mol
          :  Hamiltonian                  GFN2-xTB          :
 * total energy  :  -109.5739548 Eh     change       -0.7014151E-08 Eh
 * total energy  :  -109.5833799 Eh     change       -0.9425117E-02 Eh
 * total energy  :  -109.5864793 Eh     change       -0.3099460E-02 Eh
 * total energy  :  -109.5874342 Eh     change       -0.9548743E-03 Eh
 * total energy  :  -109.5881232 Eh     change       -0.6889880E-03 Eh
 * total energy  :  -109.5884481 Eh     change       -0.3248665E-03 Eh
 * total energy  :  -109.5885943 Eh     change       -0.1462360E-03 Eh
 * total energy  :  -109.5887089 Eh     change       -0.1145873E-03 Eh
 * total energy  :  -109.5888513 Eh     change       -0.1423879E-03 Eh
 * total energy  :  -109.5889714 Eh     change       -0.1201641E-03 Eh
 * total energy  :  -109.5911859 Eh     change       -0.9102648E-06 Eh
 * total energy  :  -109.5911869 Eh     change       -0.9975446E-06 Eh
 * total energy  :  -109.5911879 Eh     change       -0.1081102E-05 Eh
 * total energy  :  -109.5911891 Eh     change       -0.1149545E-05 Eh
 * total energy  :  -109.5911903 Eh     change       -0.1187357E-05 Eh
 * total energy  :  -109.5911915 Eh     change       -0.1179601E-05 Eh
 * total energy  :  -109.5911926 Eh     change       -0.1121620E-05 Eh
 * total energy  :  -109.5911936 Eh     change       -0.1024984E-05 Eh
 * total energy  :  -109.5911936 Eh     change       -0.5222162E-08 Eh
   *** GEOMETRY OPTIMIZATION CONVERGED AFTER 94 ITERATIONS ***

 final structure:
================
66
 xtb: 6.7.1 (edcfbbe)
C           -7.19298838581699       -2.13768481887736       -1.85031684928289
C           -8.38134324911474       -1.44379716084832       -1.74004896089313
C           -8.41100265130375       -0.24779357128012       -1.03754202421722
C           -7.26414560590856        0.23683050381691       -0.43584513620962
C           -6.06031352742971       -0.47624157049878       -0.51340545818733
C           -6.04055568793665       -1.65582375091601       -1.24802264524325
N           -4.91477240558578        0.04161151569505        0.09852422630561
C           -5.00350545459364        1.26477904772204        0.77056131191559
C           -3.92674999495502        1.81808023767523        1.45319295322582
C           -4.05072042177453        3.02953458931121        2.11658532826287
C           -5.25520688306950        3.70377209877276        2.11983195930140
C           -6.34859090062707        3.15060622665788        1.46921284912781
C           -6.22976901584915        1.94203504001794        0.80758880315350
O           -7.36674117966525        1.44421106505032        0.21501013107555
C           -3.69548347146552       -0.66393992468409        0.05691256471336
C           -2.58839350284338       -0.10927806408796       -0.58357899276903
C           -1.38561237979531       -0.78516121701037       -0.60747897655304
C           -1.26543765968499       -2.03176266314240        0.00874074371351
C           -2.38716182328521       -2.59746833948388        0.61737973392067
C           -3.58781689290286       -1.92065439252905        0.65133794907576
C            0.00006467071701       -2.80065648609654       -0.00286540629335
O            0.00014827847019       -4.02424305824029       -0.00412595345000
C            1.26547905853854       -2.03158202743946       -0.01284371407820
C            1.38548924425944       -0.78627014267578        0.60600677977903
C            2.58820556358332       -0.11021006845025        0.58359374239703
C            3.69538383475875       -0.66342634352584       -0.05797991602642
C            3.58788451209377       -1.91889510167947       -0.65505677043841
C            2.38729112327043       -2.59589243223889       -0.62261426859210
N            4.91463775726005        0.04230400935719       -0.09802072334170
C            6.06012770785901       -0.47676147066859        0.51295803596446
C            6.04019696649227       -1.65759063988596        1.24556456721158
C            7.19257121406264       -2.14065689308887        1.84700505395216
C            8.38104160212352       -1.44679443626986        1.73782946806913
C            8.41089605798835       -0.24965014966210        1.03727345135650
C            7.26409246494848        0.23619737101669        0.43646638866887
O            7.36686623725865        1.44460742635083       -0.21244852343507
C            6.22995564155544        1.94356793322169       -0.80419456825990
C            6.34897534835575        3.15313448635112       -1.46395862548716
C            5.25565607420867        3.70753136201059       -2.11364011342621
C            4.05101478895661        3.03356888415427       -2.11129710064803
C            3.92683941941484        1.82112216298708       -1.44975477584644
C            5.00355376088010        1.26651122745524       -0.76812740680685
H           -7.14856420046160       -3.05923053526489       -2.41025401700716
H           -9.28174828644978       -1.81528913981916       -2.20332317941967
H           -9.31758046115659        0.32996674478635       -0.94796669363760
H           -5.11570178291931       -2.19990124400793       -1.35720776016083
H           -2.98472625265676        1.29386131111296        1.47480227296206
H           -3.19585460117400        3.43652117463330        2.63445633144560
H           -5.35748501365152        4.64808901182142        2.63086480340841
H           -7.30966243624411        3.64054874286588        1.46806031429471
H           -2.68299231486562        0.85165262354622       -1.06716615087782
H           -0.54481611493766       -0.35941523065291       -1.13337043184258
H           -2.28979086144440       -3.56911856398592        1.07902310634605
H           -4.44637546639478       -2.35400417582107        1.14238512199525
H            0.54462684285706       -0.36174236411964        1.13277570223914
H            2.68268022929884        0.84971222881038        1.06919938310186
H            4.44653679753346       -2.35114105153866       -1.14691035959664
H            2.29004272759627       -3.56657442821446       -1.08631571201896
H            5.11524259361929       -2.20167918870157        1.35385894574752
H            7.14801302451382       -3.06312710687552        2.40540673026962
H            9.28140290988116       -1.81921638248652        2.20044096297405
H            9.31758646905863        0.32807342827084        0.94859733761174
H            7.31014515552654        3.64288242672869       -1.46212203685335
H            5.35809313906334        4.65262756697331       -2.62319867824542
H            3.19617704378544        3.44156822158536       -2.62841647968965
H            2.98468562614978        1.29716446602889       -1.47202564475804

          :  Hamiltonian                  GFN2-xTB          :
         :: gradient norm              0.000060047658 Eh/a0 ::
         :: HOMO-LUMO gap              1.336381135554 eV    ::
         :: SCC energy              -111.456001639000 Eh    ::
         :: -> dispersion             -0.089334348818 Eh    ::
         :: -> Gsolv                  -0.047060571734 Eh    ::
         :: repulsion energy           1.864808029946 Eh    ::

    * Orbital Energies and Occupations

         #    Occupation            Energy/Eh            Energy/eV
      -------------------------------------------------------------
         1        2.0000           -0.7320067             -19.9189
       ...           ...                  ...                  ...
        88        2.0000           -0.4246410             -11.5551
        89        2.0000           -0.4229087             -11.5079
        90        2.0000           -0.4222267             -11.4894
        91        2.0000           -0.4211825             -11.4610
        92        2.0000           -0.4182045             -11.3799
        93        2.0000           -0.4182007             -11.3798
        94        2.0000           -0.4153047             -11.3010
        95        2.0000           -0.4152873             -11.3005
        96        2.0000           -0.3994189             -10.8687
        97        2.0000           -0.3931262             -10.6975
        98        2.0000           -0.3931126             -10.6971
        99        2.0000           -0.3472656              -9.4496
       100        2.0000           -0.3466600              -9.4331 (HOMO)
       101                         -0.2975489              -8.0967 (LUMO)
       102                         -0.2507013              -6.8219
       103                         -0.2454354              -6.6786
       104                         -0.2426762              -6.6036
       105                         -0.2408923              -6.5550
       106                         -0.2407223              -6.5504
       107                         -0.2322879              -6.3209
       108                         -0.2322476              -6.3198
       109                         -0.2198834              -5.9833
       110                         -0.2171962              -5.9102
       111                         -0.2041883              -5.5562
       ...                                ...                  ...
       192                          0.6710948              18.2614
      -------------------------------------------------------------
                  HL-Gap            0.0491111 Eh            1.3364 eV

     #   Z          covCN         q      C6AA      α(0)
     1   6 C        2.919    -0.039    28.958     8.825
     2   6 C        2.919    -0.040    29.001     8.831
     3   6 C        2.919    -0.058    29.430     8.896
     4   6 C        2.882     0.123    25.300     8.246
     5   6 C        2.921     0.042    27.064     8.531
     6   6 C        2.923    -0.060    29.491     8.906
     7   7 N        2.751    -0.069    22.576     7.057
     8   6 C        2.921     0.042    27.066     8.531
     9   6 C        2.924    -0.061    29.505     8.908
    10   6 C        2.919    -0.039    28.963     8.825
    11   6 C        2.919    -0.040    29.003     8.831
    12   6 C        2.919    -0.057    29.427     8.896
    13   6 C        2.882     0.123    25.297     8.246
    14   8 O        1.708    -0.271    18.489     5.806
    15   6 C        2.921     0.072    26.386     8.424
    16   6 C        2.920    -0.039    28.963     8.825
    17   6 C        2.920    -0.025    28.639     8.776
    18   6 C        2.971    -0.015    28.391     8.740
    19   6 C        2.924    -0.016    28.412     8.741
    20   6 C        2.919    -0.038    28.946     8.823
    21   6 C        2.829     0.226    23.260     7.903
    22   8 O        0.858    -0.422    22.120     6.306
    23   6 C        2.971    -0.015    28.391     8.740
    24   6 C        2.920    -0.025    28.639     8.776
    25   6 C        2.920    -0.039    28.963     8.825
    26   6 C        2.921     0.072    26.386     8.424
    27   6 C        2.919    -0.038    28.946     8.823
    28   6 C        2.924    -0.016    28.412     8.741
    29   7 N        2.751    -0.069    22.576     7.057
    30   6 C        2.921     0.042    27.064     8.531
    31   6 C        2.923    -0.060    29.491     8.906
    32   6 C        2.919    -0.039    28.958     8.825
    33   6 C        2.919    -0.040    29.001     8.831
    34   6 C        2.919    -0.058    29.430     8.896
    35   6 C        2.882     0.123    25.300     8.246
    36   8 O        1.708    -0.271    18.489     5.806
    37   6 C        2.882     0.123    25.297     8.246
    38   6 C        2.919    -0.057    29.427     8.896
    39   6 C        2.919    -0.040    29.003     8.831
    40   6 C        2.919    -0.039    28.963     8.825
    41   6 C        2.924    -0.061    29.505     8.908
    42   6 C        2.921     0.042    27.066     8.531
    43   1 H        0.926     0.042     2.425     2.435
    44   1 H        0.926     0.043     2.413     2.429
    45   1 H        0.926     0.049     2.338     2.391
    46   1 H        0.926     0.040     2.449     2.447
    47   1 H        0.926     0.041     2.438     2.442
    48   1 H        0.926     0.043     2.411     2.428
    49   1 H        0.926     0.043     2.412     2.429
    50   1 H        0.926     0.048     2.342     2.393
    51   1 H        0.926     0.055     2.258     2.350
    52   1 H        0.926     0.054     2.272     2.357
    53   1 H        0.926     0.054     2.266     2.354
    54   1 H        0.926     0.052     2.290     2.366
    55   1 H        0.926     0.054     2.272     2.357
    56   1 H        0.926     0.055     2.258     2.350
    57   1 H        0.926     0.052     2.290     2.366
    58   1 H        0.926     0.054     2.266     2.354
    59   1 H        0.926     0.040     2.449     2.447
    60   1 H        0.926     0.042     2.425     2.435
    61   1 H        0.926     0.043     2.413     2.429
    62   1 H        0.926     0.049     2.338     2.391
    63   1 H        0.926     0.048     2.342     2.393
    64   1 H        0.926     0.043     2.412     2.429
    65   1 H        0.926     0.043     2.411     2.428
    66   1 H        0.926     0.041     2.438     2.442

molecular dipole:
                 x           y           z       tot (Debye)
 q only:       -0.001       1.004       0.001
   full:       -0.001       0.998       0.001       2.537

 projected vibrational frequencies (cm⁻¹)
eigval :       -0.00    -0.00     0.00     0.00     0.00     0.00
eigval :       11.29    12.37    14.82    27.83    29.04    39.07
eigval :       41.82    51.00    56.79    59.93    86.97   113.92
eigval :      115.81   116.91   139.48   160.32   164.45   183.12
eigval :      204.42   214.07   247.49   250.19   256.15   272.05
eigval :      274.28   276.13   292.86   302.61   370.69   373.00
eigval :      375.39   380.33   387.62   391.35   410.68   413.55
eigval :      423.43   428.40   430.66   436.02   443.86   445.35
eigval :      479.17   481.20   509.68   509.93   522.21   522.62
eigval :      534.89   542.98   559.88   581.09   587.33   589.36
eigval :      602.60   603.51   615.25   640.75   657.12   658.84
eigval :      660.17   660.94   661.27   667.65   694.54   695.45
eigval :      732.13   740.96   775.97   775.98   776.28   776.50
eigval :      795.71   802.49   823.86   827.06   853.21   853.21
eigval :      862.01   862.12   863.77   864.45   872.79   879.88
eigval :      890.67   895.67   895.91   896.81   896.98   911.48
eigval :      912.11   912.68   912.73   915.61   916.09   919.18
eigval :      923.65   928.86   931.55   937.75   954.73  1012.19
eigval :     1026.60  1089.50  1089.51  1090.68  1090.77  1105.86
eigval :     1105.92  1117.21  1117.35  1130.23  1131.48  1167.64
eigval :     1168.30  1172.60  1172.72  1173.63  1177.60  1180.29
eigval :     1183.11  1192.39  1197.24  1197.27  1217.27  1223.97
eigval :     1241.03  1241.12  1258.09  1258.71  1258.79  1261.31
eigval :     1261.37  1303.81  1303.93  1304.80  1307.94  1313.48
eigval :     1316.32  1332.32  1332.38  1351.80  1352.03  1400.63
eigval :     1402.48  1421.78  1421.88  1440.30  1440.40  1469.18
eigval :     1471.19  1479.08  1479.17  1501.62  1501.68  1550.63
eigval :     1551.94  1566.26  1566.28  1571.54  1573.66  1578.66
eigval :     1578.66  1588.02  1588.09  1601.19  1601.33  1640.92
eigval :     3084.04  3084.21  3086.29  3087.42  3087.49  3087.62
eigval :     3088.15  3088.23  3094.42  3094.70  3095.76  3095.77
eigval :     3096.98  3097.11  3097.31  3098.60  3104.10  3104.11
eigval :     3106.37  3106.45  3108.83  3108.86  3110.80  3110.85

   temp. (K)  partition function   enthalpy   heat capacity  entropy
                                   cal/mol     cal/K/mol   cal/K/mol   J/K/mol
 298.15  VIB  0.737E+15            18906.621    120.590    116.690
         ROT  0.353E+08              888.752      2.981     37.520
         INT  0.260E+23            19795.373    123.571    154.210
         TR   0.123E+29             1481.254      4.968     44.750
         TOT                       21276.6271   128.5389   198.9594   832.4463

       T/K    H(0)-H(T)+PV         H(T)/Eh          T*S/Eh         G(T)/Eh
   ------------------------------------------------------------------------
    298.15    0.339065E-01    0.528488E+00    0.945320E-01    0.433956E+00
   ------------------------------------------------------------------------

         :::::::::::::::::::::::::::::::::::::::::::::::::::::
         ::                  THERMODYNAMIC                  ::
         :::::::::::::::::::::::::::::::::::::::::::::::::::::
         :: total free energy        -109.157237295014 Eh   ::
         ::.................................................::
         :: total energy             -109.591193605296 Eh   ::
         :: zero point energy           0.494581895298 Eh   ::
         :: G(RRHO) w/o ZPVE           -0.060625585017 Eh   ::
         :: G(RRHO) contrib.            0.433956310281 Eh   ::
         :::::::::::::::::::::::::::::::::::::::::::::::::::::

           -------------------------------------------------
          | TOTAL ENERGY             -109.591193605296 Eh   |
          | TOTAL ENTHALPY           -109.062705246511 Eh   |
          | TOTAL FREE ENERGY        -109.157237295014 Eh   |
          | GRADIENT NORM               0.000060046455 Eh/α |
          | HOMO-LUMO GAP               1.336381414530 eV   |
           -------------------------------------------------

 * finished run on 2025/06/06 at 21:11:34.823
