   * xtb version 6.7.1 (edcfbbe) compiled by 'albert@albert-system' on 2024-07-22

   ID    Z sym.   atoms
    1    6 C      1-6, 8-13, 15-21, 23-28, 30-35, 37-42
    2    7 N      7, 29
    3    8 O      14, 22, 36
    4    1 H      43-66

          program call               : xtb data250606/toluene/Px2BP/Px2BP_toluene_S0_crest.xyz --gfn 2 --gbsa toluene --ohess vtight --parallel 14 --molden --ceasefiles --namespace data250606/toluene/Px2BP/Px2BP_toluene_S0_finalOpt
      * Solvation model:               GBSA
        Solvent                        toluene
        Solvent mass                       9.2140E+01 g/mol
          :  Hamiltonian                  GFN2-xTB          :
 * total energy  :  -109.5910738 Eh     change       -0.5697089E-08 Eh
 * total energy  :  -109.5911496 Eh     change       -0.7583999E-04 Eh
 * total energy  :  -109.5911701 Eh     change       -0.2049881E-04 Eh
 * total energy  :  -109.5911750 Eh     change       -0.4874495E-05 Eh
 * total energy  :  -109.5911798 Eh     change       -0.4832669E-05 Eh
 * total energy  :  -109.5911840 Eh     change       -0.4185109E-05 Eh
 * total energy  :  -109.5911874 Eh     change       -0.3365940E-05 Eh
 * total energy  :  -109.5911894 Eh     change       -0.1986679E-05 Eh
 * total energy  :  -109.5911909 Eh     change       -0.1577262E-05 Eh
 * total energy  :  -109.5911929 Eh     change       -0.1966716E-05 Eh
 * total energy  :  -109.5912245 Eh     change       -0.2067297E-06 Eh
 * total energy  :  -109.5912247 Eh     change       -0.1610194E-06 Eh
 * total energy  :  -109.5912248 Eh     change       -0.1279210E-06 Eh
 * total energy  :  -109.5912249 Eh     change       -0.1318129E-06 Eh
 * total energy  :  -109.5912251 Eh     change       -0.1798222E-06 Eh
 * total energy  :  -109.5912254 Eh     change       -0.2768871E-06 Eh
 * total energy  :  -109.5912258 Eh     change       -0.4002253E-06 Eh
 * total energy  :  -109.5912261 Eh     change       -0.3743372E-06 Eh
 * total energy  :  -109.5912262 Eh     change       -0.7450353E-08 Eh
   *** GEOMETRY OPTIMIZATION CONVERGED AFTER 44 ITERATIONS ***

 final structure:
================
66
 xtb: 6.7.1 (edcfbbe)
C           -7.22670376309192       -2.19073638267901       -1.66504659350927
C           -8.41756902369795       -1.50049439926684       -1.55887856567295
C           -8.43942662063624       -0.27351143935446       -0.91206723235036
C           -7.28248181625298        0.24573604935751       -0.36041596639595
C           -6.07552058682939       -0.46267455973712       -0.43148846103785
C           -6.06447425453978       -1.67426916557189       -1.11249148459874
N           -4.92034147204981        0.08941871302325        0.13193110272259
C           -5.00315778316985        1.34475499881614        0.74362903011730
C           -3.91686037375610        1.93775099831997        1.37615075904212
C           -4.03452555517244        3.18155405897381        1.97788963297351
C           -5.24235669982157        3.84980590771599        1.96996518046466
C           -6.34525072736155        3.25765228381718        1.37223038838081
C           -6.23271966558255        2.01638396102351        0.77283181182801
O           -7.37951344237000        1.48214336511146        0.23386761163894
C           -3.69790329490268       -0.60949388764204        0.09314188458958
C           -2.60180348092823       -0.06797647709017       -0.57743032189884
C           -1.39778482267289       -0.74148134981284       -0.60313792017001
C           -1.26676936972275       -1.97575196763881        0.03516382165295
C           -2.37632096759289       -2.52765770731461        0.67749494527359
C           -3.57606902716994       -1.84986630640375        0.71890076559053
C           -0.00331808703083       -2.74706587526108        0.00535566796107
O           -0.00505575130157       -3.97065909839289        0.00814986226796
C            1.26220281931128       -1.97934518722970       -0.02740875944742
C            1.39489522719664       -0.74033373279008        0.60134370681106
C            2.60061798729674       -0.07004078318323        0.57281676092463
C            3.69693431714404       -0.61982421693451       -0.09062272341200
C            3.57358325230285       -1.86504807560871       -0.70633099922007
C            2.37188564751462       -2.53925032136990       -0.66258155505651
N            4.92098634523709        0.07615596920094       -0.13235190423065
C            6.07310754516079       -0.47196019959972        0.44102622641210
C            6.05795887013841       -1.67767980353869        1.13227806763907
C            7.21720713163380       -2.19007821668189        1.69482728010769
C            8.40902747125984       -1.50154083222769        1.58834062776449
C            8.43490105513811       -0.28035619840178        0.93076356946177
C            7.28095349633317        0.23488404650507        0.36917255987734
O            7.38168778469730        1.46590997659077       -0.23562603054290
C            6.23798708277185        1.99584973825694       -0.78534574681760
C            6.35438228491759        3.23106702936734       -1.39639771998646
C            5.25470141343157        3.81828603098513       -2.00486962894269
C            4.04625073502872        3.15113769719391       -2.01165100744128
C            3.92473708496457        1.91334250547419       -1.39840467445601
C            5.00771718582063        1.32558336651242       -0.75539266721584
H           -7.18792744464622       -3.13693938675336       -2.18266935178163
H           -9.32574319795529       -1.89910390208267       -1.98269873270063
H           -9.34763550490579        0.30262266085730       -0.82863531446479
H           -5.13867966723846       -2.21702837797592       -1.21966214178478
H           -2.97156812407302        1.42002505841963        1.40697375363867
H           -3.17179125615865        3.61895658073008        2.45647456219695
H           -5.33966246942404        4.81948969272289        2.43217349638136
H           -7.30938177124120        3.74149054679774        1.36575893933588
H           -2.70620246238701        0.87992469891040       -1.08411038221627
H           -0.56479264514059       -0.32559865536120       -1.14912709191574
H           -2.27040540156490       -3.48889798279657        1.15859700737902
H           -4.42434566096085       -2.27113083632519        1.23738725199807
H            0.56180011716507       -0.31800620669355        1.14218657780755
H            2.70627170230060        0.88180076234610        1.07181370842828
H            4.42204608350388       -2.29274218079811       -1.21923501412149
H            2.26450490818640       -3.50396520948734       -1.13636905690732
H            5.13125394860632       -2.21882434981734        1.23976885286232
H            7.17533218583947       -3.13165329541807        2.22058036283919
H            9.31486033181952       -1.89693684902436        2.02010793642981
H            9.34391670705137        0.29439732225995        0.84663360475736
H            7.31887661482079        3.71419201559966       -1.39026115917635
H            5.35500099684588        4.78327477598603       -2.47617192852969
H            3.18607926153927        3.58466182570268       -2.49829660981786
H            2.97912342686866        1.39612521508724       -1.42830565844032

          :  Hamiltonian                  GFN2-xTB          :
         :: gradient norm              0.000054516968 Eh/a0 ::
         :: HOMO-LUMO gap              1.356839205024 eV    ::
         :: SCC energy              -111.456040817085 Eh    ::
         :: -> dispersion             -0.089341631206 Eh    ::
         :: -> Gsolv                  -0.046979870542 Eh    ::
         :: repulsion energy           1.864814664573 Eh    ::

    * Orbital Energies and Occupations

         #    Occupation            Energy/Eh            Energy/eV
      -------------------------------------------------------------
         1        2.0000           -0.7321852             -19.9238
       ...           ...                  ...                  ...
        88        2.0000           -0.4243184             -11.5463
        89        2.0000           -0.4226605             -11.5012
        90        2.0000           -0.4219483             -11.4818
        91        2.0000           -0.4210138             -11.4564
        92        2.0000           -0.4182970             -11.3824
        93        2.0000           -0.4182924             -11.3823
        94        2.0000           -0.4153388             -11.3019
        95        2.0000           -0.4153205             -11.3014
        96        2.0000           -0.3991232             -10.8607
        97        2.0000           -0.3931487             -10.6981
        98        2.0000           -0.3931273             -10.6975
        99        2.0000           -0.3474331              -9.4541
       100        2.0000           -0.3467967              -9.4368 (HOMO)
       101                         -0.2969338              -8.0800 (LUMO)
       102                         -0.2504194              -6.8143
       103                         -0.2451155              -6.6699
       104                         -0.2424407              -6.5971
       105                         -0.2410042              -6.5581
       106                         -0.2407893              -6.5522
       107                         -0.2323554              -6.3227
       108                         -0.2323104              -6.3215
       109                         -0.2201226              -5.9898
       110                         -0.2171990              -5.9103
       111                         -0.2043914              -5.5618
       ...                                ...                  ...
       192                          0.6711468              18.2628
      -------------------------------------------------------------
                  HL-Gap            0.0498629 Eh            1.3568 eV

     #   Z          covCN         q      C6AA      α(0)
     1   6 C        2.919    -0.039    28.958     8.824
     2   6 C        2.919    -0.040    28.998     8.831
     3   6 C        2.919    -0.057    29.429     8.896
     4   6 C        2.883     0.123    25.298     8.246
     5   6 C        2.921     0.042    27.066     8.532
     6   6 C        2.924    -0.060    29.490     8.905
     7   7 N        2.751    -0.068    22.564     7.055
     8   6 C        2.921     0.042    27.069     8.532
     9   6 C        2.924    -0.060    29.503     8.907
    10   6 C        2.919    -0.039    28.963     8.825
    11   6 C        2.919    -0.040    29.000     8.831
    12   6 C        2.920    -0.057    29.426     8.896
    13   6 C        2.883     0.123    25.295     8.245
    14   8 O        1.708    -0.270    18.484     5.805
    15   6 C        2.920     0.072    26.393     8.425
    16   6 C        2.920    -0.039    28.970     8.826
    17   6 C        2.920    -0.026    28.640     8.776
    18   6 C        2.971    -0.016    28.397     8.741
    19   6 C        2.924    -0.016    28.417     8.742
    20   6 C        2.919    -0.038    28.954     8.824
    21   6 C        2.829     0.226    23.259     7.903
    22   8 O        0.858    -0.422    22.128     6.307
    23   6 C        2.971    -0.016    28.398     8.741
    24   6 C        2.920    -0.025    28.640     8.776
    25   6 C        2.920    -0.039    28.969     8.826
    26   6 C        2.920     0.072    26.392     8.425
    27   6 C        2.919    -0.038    28.953     8.824
    28   6 C        2.924    -0.016    28.416     8.742
    29   7 N        2.751    -0.068    22.565     7.055
    30   6 C        2.921     0.042    27.066     8.531
    31   6 C        2.924    -0.060    29.490     8.905
    32   6 C        2.919    -0.039    28.958     8.824
    33   6 C        2.919    -0.040    28.998     8.831
    34   6 C        2.919    -0.057    29.429     8.896
    35   6 C        2.883     0.123    25.298     8.246
    36   8 O        1.708    -0.270    18.484     5.805
    37   6 C        2.883     0.123    25.295     8.245
    38   6 C        2.920    -0.057    29.426     8.896
    39   6 C        2.919    -0.040    29.000     8.831
    40   6 C        2.919    -0.039    28.963     8.825
    41   6 C        2.924    -0.060    29.503     8.907
    42   6 C        2.921     0.042    27.069     8.532
    43   1 H        0.926     0.042     2.423     2.434
    44   1 H        0.926     0.043     2.411     2.428
    45   1 H        0.926     0.049     2.337     2.390
    46   1 H        0.926     0.040     2.443     2.444
    47   1 H        0.926     0.041     2.431     2.438
    48   1 H        0.926     0.043     2.409     2.427
    49   1 H        0.926     0.043     2.410     2.428
    50   1 H        0.926     0.048     2.341     2.393
    51   1 H        0.926     0.055     2.261     2.351
    52   1 H        0.926     0.053     2.281     2.362
    53   1 H        0.926     0.054     2.274     2.358
    54   1 H        0.926     0.052     2.291     2.367
    55   1 H        0.926     0.053     2.280     2.361
    56   1 H        0.926     0.055     2.261     2.351
    57   1 H        0.926     0.052     2.290     2.367
    58   1 H        0.926     0.054     2.273     2.358
    59   1 H        0.926     0.040     2.444     2.445
    60   1 H        0.926     0.042     2.424     2.434
    61   1 H        0.926     0.043     2.411     2.428
    62   1 H        0.926     0.049     2.337     2.390
    63   1 H        0.926     0.048     2.341     2.393
    64   1 H        0.926     0.043     2.410     2.428
    65   1 H        0.926     0.043     2.409     2.427
    66   1 H        0.926     0.041     2.431     2.438

molecular dipole:
                 x           y           z       tot (Debye)
 q only:        0.002       1.034      -0.003
   full:        0.002       1.029      -0.003       2.615

 projected vibrational frequencies (cm⁻¹)
eigval :       -0.00    -0.00     0.00     0.00     0.00     0.00
eigval :       10.01    11.60    13.22    29.25    31.07    39.83
eigval :       41.65    51.82    59.67    60.95    86.64   115.03
eigval :      116.85   118.50   139.92   159.45   164.06   183.65
eigval :      204.59   214.19   245.89   248.87   256.54   272.51
eigval :      272.80   274.57   293.33   302.70   371.23   374.06
eigval :      375.16   380.16   387.51   390.34   410.15   413.59
eigval :      423.65   429.07   431.51   436.19   445.18   446.72
eigval :      478.88   482.06   509.43   509.63   521.99   522.39
eigval :      535.05   543.10   559.90   580.81   587.47   589.21
eigval :      602.51   603.52   615.02   640.57   657.65   659.31
eigval :      660.83   661.51   661.78   667.62   694.69   695.26
eigval :      731.76   741.06   778.01   778.16   778.53   778.96
eigval :      795.80   802.58   823.78   826.92   853.47   853.52
eigval :      862.95   863.40   865.51   865.98   873.68   879.85
eigval :      890.46   897.06   897.12   898.45   899.01   913.29
eigval :      913.64   914.41   915.16   915.86   915.96   918.97
eigval :      924.31   929.11   932.10   936.65   954.60  1011.70
eigval :     1026.26  1089.67  1089.86  1090.91  1091.10  1106.01
eigval :     1106.07  1117.38  1117.56  1129.92  1130.96  1167.98
eigval :     1168.55  1172.60  1172.71  1173.68  1177.19  1179.90
eigval :     1183.09  1192.45  1197.55  1197.59  1217.50  1224.02
eigval :     1241.20  1241.34  1258.12  1258.82  1258.87  1260.93
eigval :     1261.71  1303.81  1303.87  1304.41  1307.72  1313.49
eigval :     1316.26  1331.76  1331.87  1351.50  1351.73  1400.88
eigval :     1402.51  1421.73  1421.84  1440.26  1440.37  1469.19
eigval :     1471.33  1478.80  1478.91  1501.45  1501.52  1550.32
eigval :     1551.64  1566.49  1566.52  1571.55  1573.58  1578.62
eigval :     1578.63  1588.14  1588.21  1601.09  1601.22  1641.07
eigval :     3084.83  3085.11  3085.97  3087.13  3087.48  3087.63
eigval :     3087.97  3088.00  3094.92  3095.27  3096.04  3096.18
eigval :     3096.75  3096.88  3097.33  3098.11  3104.51  3104.56
eigval :     3106.64  3106.78  3109.14  3109.18  3110.91  3111.08

   temp. (K)  partition function   enthalpy   heat capacity  entropy
                                   cal/mol     cal/K/mol   cal/K/mol   J/K/mol
 298.15  VIB  0.797E+15            18893.007    120.666    116.824
         ROT  0.353E+08              888.752      2.981     37.520
         INT  0.282E+23            19781.760    123.647    154.343
         TR   0.123E+29             1481.254      4.968     44.750
         TOT                       21263.0136   128.6147   199.0932   833.0061

       T/K    H(0)-H(T)+PV         H(T)/Eh          T*S/Eh         G(T)/Eh
   ------------------------------------------------------------------------
    298.15    0.338848E-01    0.528561E+00    0.945956E-01    0.433965E+00
   ------------------------------------------------------------------------

         :::::::::::::::::::::::::::::::::::::::::::::::::::::
         ::                  THERMODYNAMIC                  ::
         :::::::::::::::::::::::::::::::::::::::::::::::::::::
         :: total free energy        -109.157260887436 Eh   ::
         ::.................................................::
         :: total energy             -109.591226150103 Eh   ::
         :: zero point energy           0.494676118966 Eh   ::
         :: G(RRHO) w/o ZPVE           -0.060710856299 Eh   ::
         :: G(RRHO) contrib.            0.433965262667 Eh   ::
         :::::::::::::::::::::::::::::::::::::::::::::::::::::

           -------------------------------------------------
          | TOTAL ENERGY             -109.591226150103 Eh   |
          | TOTAL ENTHALPY           -109.062665262118 Eh   |
          | TOTAL FREE ENERGY        -109.157260887436 Eh   |
          | GRADIENT NORM               0.000054518079 Eh/α |
          | HOMO-LUMO GAP               1.356839834001 eV   |
           -------------------------------------------------

 * finished run on 2025/06/06 at 21:15:10.475
