   * xtb version 6.7.1 (edcfbbe) compiled by 'albert@albert-system' on 2024-07-22

   ID    Z sym.   atoms
    1    7 N      1, 8, 18, 42, 61
    2    6 C      2-7, 9-17, 19-41, 43-60, 62-69
    3    1 H      70-112

          program call               : xtb data2507/toluene/3,6-TC/3,6-TC_toluene_S0_finalOpt.xtbopt.xyz --gfn 2 --uhf 2 --gbsa toluene --ohess vtight --parallel 40 --molden --ceasefiles --namespace data2507/toluene/3,6-TC/3,6-TC_toluene_T1_preOpt
      * Solvation model:               GBSA
        Solvent                        toluene
        Solvent mass                       9.2140E+01 g/mol
          :  Hamiltonian                  GFN2-xTB          :
 * total energy  :  -173.6134512 Eh     change       -0.1330582E-07 Eh
 * total energy  :  -173.6172878 Eh     change       -0.3836624E-02 Eh
 * total energy  :  -173.6188026 Eh     change       -0.1514839E-02 Eh
 * total energy  :  -173.6190657 Eh     change       -0.2630478E-03 Eh
 * total energy  :  -173.6194305 Eh     change       -0.3648134E-03 Eh
 * total energy  :  -173.6196270 Eh     change       -0.1965276E-03 Eh
 * total energy  :  -173.6197696 Eh     change       -0.1426381E-03 Eh
 * total energy  :  -173.6198487 Eh     change       -0.7901179E-04 Eh
 * total energy  :  -173.6199078 Eh     change       -0.5912149E-04 Eh
 * total energy  :  -173.6199709 Eh     change       -0.6315335E-04 Eh
 * total energy  :  -173.6202998 Eh     change       -0.4823943E-06 Eh
 * total energy  :  -173.6203003 Eh     change       -0.4553263E-06 Eh
 * total energy  :  -173.6203006 Eh     change       -0.3270231E-06 Eh
 * total energy  :  -173.6203009 Eh     change       -0.2534800E-06 Eh
 * total energy  :  -173.6203010 Eh     change       -0.1880380E-06 Eh
 * total energy  :  -173.6203013 Eh     change       -0.2232243E-06 Eh
 * total energy  :  -173.6203017 Eh     change       -0.4267456E-06 Eh
 * total energy  :  -173.6203023 Eh     change       -0.5583511E-06 Eh
 * total energy  :  -173.6203023 Eh     change       -0.4429117E-07 Eh
   *** GEOMETRY OPTIMIZATION CONVERGED AFTER 68 ITERATIONS ***

 final structure:
================
112
 xtb: 6.7.1 (edcfbbe)
N          -12.61169967255015       -3.45991393505142       -0.01846444631352
C          -11.51626011115303       -3.08716350947920       -0.02240915420328
C          -10.19976882191575       -2.63531057256639       -0.02512470570139
C           -9.13860892006251       -3.48934258188130        0.35622133584264
C           -7.85432146813100       -3.03417393164305        0.35810817796601
C           -7.53434715774255       -1.69585597800607       -0.00476719399580
C           -6.17182871107193       -1.32118225020569        0.03340742139513
N           -5.19578472803854       -2.22873970892689        0.15867563887004
C           -4.04076042308841       -1.56768842354431        0.10428767611156
C           -2.72802785866254       -2.10952890185303        0.14718551107226
C           -2.51469718423794       -3.49082709767876        0.22507447254854
C           -1.24288126595389       -4.00779492281887        0.22087318104208
C           -0.13975158383186       -3.14820436285596        0.13992630171259
C            1.22475840623193       -3.67534808395604        0.11246210215220
C            1.52668108910698       -4.85773207830953       -0.56903175945333
C            2.81425410547905       -5.34223624170635       -0.62264012663120
C            3.85621165518390       -4.66516124564232        0.01953584429593
N            5.16104610249306       -5.14414843055549       -0.04139154870381
C            5.40461031693076       -6.52416221586765       -0.08541925136249
C            6.41373469561691       -7.03630619230782       -0.90108361714932
C            6.65462361540327       -8.39637496285054       -0.93560658686691
C            5.89500450130191       -9.26311444435482       -0.16565930970480
C            4.89057547043428       -8.75861445680842        0.64536991341696
C            4.64505391576486       -7.39978007392709        0.69099068191023
C            6.24158392550386       -4.25242553366864       -0.06922558572059
C            7.42280079518534       -4.55591912869617        0.60865398995437
C            8.48850187684251       -3.67720984781329        0.57464411728696
C            8.39310230016651       -2.48468063316046       -0.12523721335201
C            7.22173820113679       -2.17887750374857       -0.80001176689128
C            6.15313586427468       -3.05421618152522       -0.77913098601022
C            3.55777601999830       -3.49242240466029        0.72079542332956
C            2.27002671702439       -3.00801798510934        0.75799946496022
C           -0.35596451184460       -1.77397961532407        0.07408436477627
C           -1.63382838760564       -1.21362109586956        0.08246898360864
C           -1.86636380583036        0.22410718928117        0.03691768871587
C           -0.81728423603469        1.12643850763400        0.07853663413799
C           -0.98742641498263        2.51539920694274        0.02877573860006
C            0.15218284954275        3.40566872858546        0.05365478466816
C            0.11809083040117        4.65446896647662       -0.59172830936117
C            1.20494300735951        5.49300173359869       -0.59283413324210
C            2.38780697258103        5.13320538903125        0.06833828255400
N            3.49124988061435        5.97674911668976        0.06436013843159
C            4.78839410661970        5.44855380315080        0.07764005495622
C            5.79768637463714        6.08051233748602        0.80595525877344
C            7.07748726276149        5.56067195598054        0.81411677706618
C            7.37046425053531        4.40525619210644        0.10632409506414
C            6.37137819078337        3.77394728916845       -0.61819734564639
C            5.08993253098381        4.28933394926655       -0.63936813489790
C            3.31582516357169        7.36716960400374        0.04296783326785
C            2.30150219824115        7.96292537539039        0.79392806619742
C            2.13263912038068        9.33374111805200        0.76654287815789
C            2.97000195849226       10.12873374776707       -0.00059899978915
C            3.98233274128840        9.54153855927306       -0.74372519360519
C            4.15708141153887        8.17133066300166       -0.72711556496970
C            2.42782876229213        3.89955818074966        0.73307427395231
C            1.34232852975610        3.05994728544412        0.71863348401976
C           -2.31026883712272        3.00909694873488       -0.04450759615821
C           -3.37254489203303        2.15864314696642       -0.05993725341313
C           -3.20719631076037        0.74844491956210       -0.03188321089079
C           -4.26051599620938       -0.16740166770728       -0.03542592111044
N           -5.63330186087252       -0.02988667161036       -0.08866236264070
C           -6.35902297687766        1.17626532706934       -0.15517209003750
C           -6.39652285025879        1.90431013110891       -1.34268512533577
C           -7.11506932040003        3.08433055132747       -1.40168526181176
C           -7.79630035109528        3.54291928859672       -0.28464111531019
C           -7.75803061558045        2.81893495337958        0.89635939873676
C           -7.04142320753376        1.63795246955675        0.96689953525481
C           -8.60509174806320       -0.85988230243085       -0.41185970182298
C           -9.89289594021730       -1.31555866611117       -0.42134099382422
H           -9.36539829313929       -4.50592476857416        0.64655429351166
H           -7.03984505943672       -3.67943221579702        0.64755208658459
H           -3.38196571615052       -4.13066153605704        0.28472051365263
H           -1.09125058495011       -5.07367475769902        0.29948576808214
H            0.74411305375804       -5.38085617202326       -1.09783007458613
H            3.02946864224624       -6.24202758342428       -1.17985507376174
H            6.99942016043078       -6.36271657225892       -1.50932856266805
H            7.43562974631803       -8.78253889884035       -1.57391137840322
H            6.08489371799037      -10.32532839674347       -0.19681273015173
H            4.29892807082904       -9.42705392345233        1.25341830052241
H            3.87007730689483       -7.00629464419228        1.33236459084022
H            7.49511026503535       -5.47931090413562        1.16426972607236
H            9.39644723493183       -3.92172953071456        1.10604191782895
H            9.22671376620044       -1.79921341537697       -0.14593005696725
H            7.14216217086420       -1.25601562202661       -1.35543069008138
H            5.24686459714535       -2.82148730096715       -1.31867457890478
H            4.34578765470702       -2.97347209727393        1.24634095832623
H            2.06013465109323       -2.11598046454357        1.32883289498399
H            0.51009517544116       -1.14005137190218       -0.02424094825534
H            0.19324796825540        0.75537143802468        0.11767558168166
H           -0.76506538168375        4.94296552983952       -1.14102076813170
H            1.16177985872987        6.43095089907397       -1.12678955627624
H            5.56821370571347        6.97315581013848        1.36897256579906
H            7.84918143261849        6.05650568860334        1.38421663503297
H            8.37119101018960        4.00084255701428        0.11832714660099
H            6.59340265381774        2.87834417499867       -1.17937118700791
H            4.31676051954383        3.80604397346009       -1.21825671436501
H            1.65741564035191        7.34511759398008        1.40235632441217
H            1.34686825233957        9.78497292056215        1.35428682332305
H            2.83510398313634       11.19956110150946       -0.01819256238012
H            4.63568152088407       10.15433726257296       -1.34703338451432
H            4.93886004871727        7.71330568446400       -1.31505219361746
H            3.31747187116131        3.62198593324836        1.27914385154932
H            1.39249345049355        2.13492730049122        1.27233058367425
H           -2.48484627590770        4.07439750664720       -0.04216957190769
H           -4.37171721297743        2.56226579771621       -0.07402971488416
H           -5.86289834967715        1.53596912526355       -2.20714486519574
H           -7.14611285565830        3.64454241519227       -2.32433860673314
H           -8.35841087716191        4.46307417706366       -0.33562068947129
H           -8.28707773861317        3.17410689023364        1.76805416579967
H           -7.00971646382420        1.06208030277939        1.88043884283409
H           -8.40956929823317        0.14533657428183       -0.74742044415184
H          -10.69729933551343       -0.66698805702066       -0.74082895144081

          :  Hamiltonian                  GFN2-xTB          :
         :: gradient norm              0.000095582451 Eh/a0 ::
         :: HOMO-LUMO gap              0.341695431091 eV    ::
         :: SCC energy              -176.910067163595 Eh    ::
         :: -> dispersion             -0.160334075598 Eh    ::
         :: -> Gsolv                  -0.085801439785 Eh    ::
         :: repulsion energy           3.289764745161 Eh    ::

    * Orbital Energies and Occupations

         #    Occupation            Energy/Eh            Energy/eV
      -------------------------------------------------------------
         1        2.0000           -0.6807745             -18.5248
       ...           ...                  ...                  ...
       151        2.0000           -0.4117452             -11.2042
       152        2.0000           -0.4100344             -11.1576
       153        2.0000           -0.4065537             -11.0629
       154        2.0000           -0.4046671             -11.0116
       155        2.0000           -0.4013881             -10.9223
       156        2.0000           -0.3961301             -10.7792
       157        2.0000           -0.3926163             -10.6836
       158        2.0000           -0.3838590             -10.4453
       159        2.0000           -0.3757033             -10.2234
       160        2.0000           -0.3651444              -9.9361
       161        1.9711           -0.3581660              -9.7462
       162        1.0289           -0.3514859              -9.5644
       163        0.9987           -0.2773299              -7.5465 (HOMO)
       164        0.0013           -0.2647725              -7.2048 (LUMO)
       165                         -0.2488395              -6.7713
       166                         -0.2475660              -6.7366
       167                         -0.2405575              -6.5459
       168                         -0.2394125              -6.5147
       169                         -0.2383633              -6.4862
       170                         -0.2370700              -6.4510
       171                         -0.2357022              -6.4138
       172                         -0.2344469              -6.3796
       173                         -0.2310514              -6.2872
       174                         -0.2301295              -6.2621
       ...                                ...                  ...
       319                          1.1698044              31.8320
      -------------------------------------------------------------
                  HL-Gap            0.0125574 Eh            0.3417 eV

     #   Z          covCN         q      C6AA      α(0)
     1   7 N        0.911    -0.342    28.788     7.760
     2   6 C        1.910     0.103    28.547     8.629
     3   6 C        2.968    -0.013    28.328     8.730
     4   6 C        2.917    -0.030    28.760     8.794
     5   6 C        2.925    -0.036    28.906     8.817
     6   6 C        2.968    -0.019    28.476     8.753
     7   6 C        3.138     0.133    24.879     8.163
     8   7 N        1.884    -0.325    29.293     8.023
     9   6 C        3.170     0.079    25.891     8.313
    10   6 C        2.983    -0.007    28.185     8.709
    11   6 C        2.919    -0.030    28.749     8.793
    12   6 C        2.920    -0.038    28.953     8.824
    13   6 C        2.973     0.012    27.743     8.640
    14   6 C        2.976     0.007    27.852     8.657
    15   6 C        2.923    -0.031    28.780     8.798
    16   6 C        2.919    -0.046    29.138     8.852
    17   6 C        2.923     0.065    26.539     8.448
    18   7 N        2.752    -0.055    22.298     7.013
    19   6 C        2.925     0.064    26.567     8.453
    20   6 C        2.922    -0.044    29.090     8.845
    21   6 C        2.919    -0.028    28.693     8.784
    22   6 C        2.919    -0.034    28.844     8.807
    23   6 C        2.919    -0.028    28.693     8.784
    24   6 C        2.922    -0.044    29.090     8.845
    25   6 C        2.925     0.064    26.567     8.453
    26   6 C        2.922    -0.044    29.096     8.846
    27   6 C        2.919    -0.028    28.694     8.784
    28   6 C        2.919    -0.034    28.856     8.809
    29   6 C        2.919    -0.028    28.696     8.785
    30   6 C        2.922    -0.044    29.104     8.847
    31   6 C        2.919    -0.046    29.145     8.853
    32   6 C        2.923    -0.032    28.800     8.801
    33   6 C        2.928    -0.042    29.040     8.837
    34   6 C        2.976    -0.001    28.052     8.688
    35   6 C        2.974    -0.006    28.171     8.706
    36   6 C        2.925    -0.039    28.977     8.828
    37   6 C        2.971     0.001    27.991     8.678
    38   6 C        2.973     0.007    27.862     8.658
    39   6 C        2.922    -0.034    28.848     8.808
    40   6 C        2.917    -0.045    29.128     8.850
    41   6 C        2.924     0.060    26.648     8.465
    42   7 N        2.752    -0.046    22.126     6.986
    43   6 C        2.925     0.063    26.579     8.455
    44   6 C        2.922    -0.043    29.075     8.843
    45   6 C        2.919    -0.027    28.681     8.782
    46   6 C        2.919    -0.033    28.827     8.804
    47   6 C        2.919    -0.027    28.682     8.782
    48   6 C        2.921    -0.043    29.072     8.842
    49   6 C        2.926     0.063    26.578     8.455
    50   6 C        2.921    -0.043    29.059     8.840
    51   6 C        2.919    -0.027    28.683     8.783
    52   6 C        2.919    -0.033    28.819     8.803
    53   6 C        2.919    -0.027    28.680     8.782
    54   6 C        2.921    -0.043    29.067     8.841
    55   6 C        2.917    -0.045    29.130     8.851
    56   6 C        2.922    -0.035    28.870     8.811
    57   6 C        2.916    -0.040    28.987     8.829
    58   6 C        2.913    -0.041    29.029     8.835
    59   6 C        2.973    -0.018    28.462     8.751
    60   6 C        3.036     0.035    27.192     8.553
    61   7 N        2.818    -0.082    22.834     7.097
    62   6 C        2.910     0.070    26.431     8.430
    63   6 C        2.921    -0.039    28.969     8.826
    64   6 C        2.919    -0.028    28.695     8.784
    65   6 C        2.919    -0.031    28.780     8.797
    66   6 C        2.919    -0.027    28.664     8.780
    67   6 C        2.921    -0.039    28.960     8.825
    68   6 C        2.914    -0.046    29.132     8.851
    69   6 C        2.919    -0.030    28.757     8.794
    70   1 H        0.925     0.022     2.700     2.570
    71   1 H        0.926     0.043     2.404     2.425
    72   1 H        0.926     0.044     2.398     2.422
    73   1 H        0.926     0.038     2.475     2.460
    74   1 H        0.926     0.042     2.427     2.436
    75   1 H        0.926     0.040     2.454     2.450
    76   1 H        0.926     0.038     2.472     2.459
    77   1 H        0.926     0.039     2.459     2.452
    78   1 H        0.926     0.038     2.481     2.463
    79   1 H        0.926     0.039     2.463     2.454
    80   1 H        0.926     0.038     2.471     2.458
    81   1 H        0.926     0.037     2.487     2.466
    82   1 H        0.926     0.039     2.465     2.455
    83   1 H        0.926     0.038     2.474     2.460
    84   1 H        0.926     0.040     2.453     2.449
    85   1 H        0.926     0.039     2.468     2.457
    86   1 H        0.926     0.041     2.431     2.438
    87   1 H        0.926     0.042     2.416     2.431
    88   1 H        0.926     0.044     2.398     2.422
    89   1 H        0.926     0.042     2.417     2.431
    90   1 H        0.926     0.039     2.462     2.453
    91   1 H        0.926     0.038     2.478     2.462
    92   1 H        0.926     0.039     2.469     2.457
    93   1 H        0.926     0.040     2.446     2.446
    94   1 H        0.926     0.040     2.455     2.450
    95   1 H        0.926     0.041     2.434     2.439
    96   1 H        0.926     0.040     2.444     2.445
    97   1 H        0.926     0.040     2.453     2.449
    98   1 H        0.926     0.040     2.447     2.446
    99   1 H        0.926     0.039     2.462     2.454
   100   1 H        0.926     0.041     2.439     2.442
   101   1 H        0.926     0.040     2.452     2.449
   102   1 H        0.926     0.040     2.452     2.449
   103   1 H        0.926     0.041     2.442     2.444
   104   1 H        0.926     0.031     2.569     2.507
   105   1 H        0.926     0.025     2.664     2.553
   106   1 H        0.926     0.038     2.471     2.458
   107   1 H        0.926     0.044     2.391     2.418
   108   1 H        0.926     0.044     2.393     2.419
   109   1 H        0.926     0.043     2.408     2.426
   110   1 H        0.926     0.034     2.526     2.486
   111   1 H        0.926     0.021     2.711     2.575
   112   1 H        0.925     0.019     2.744     2.591

molecular dipole:
                 x           y           z       tot (Debye)
 q only:       10.845       3.355      -0.064
   full:       11.075       3.822      -0.101      29.781

 projected vibrational frequencies (cm⁻¹)
eigval :       -0.00    -0.00    -0.00    -0.00     0.00     0.00
eigval :       -4.83     8.28     9.84    11.73    14.09    16.67
eigval :       22.51    24.10    32.43    34.91    38.33    41.29
eigval :       47.98    50.57    52.31    55.65    59.22    62.92
eigval :       70.08    70.24    74.00    84.93    92.13    94.81
eigval :       99.08   106.66   114.31   117.72   131.10   140.60
eigval :      144.39   156.27   165.38   185.92   197.61   206.53
eigval :      216.85   222.65   230.45   232.74   238.85   241.20
eigval :      254.43   260.67   269.86   295.56   302.41   308.67
eigval :      313.99   332.26   333.18   357.92   360.56   365.34
eigval :      370.00   373.64   374.97   377.13   377.96   379.53
eigval :      380.62   388.84   389.52   395.77   400.40   406.30
eigval :      412.00   416.60   431.60   435.86   448.03   462.83
eigval :      467.98   472.98   487.24   492.73   493.54   507.49
eigval :      510.31   511.80   516.03   531.77   537.45   549.42
eigval :      577.10   581.89   583.78   584.26   584.80   587.40
eigval :      591.21   592.53   593.31   602.64   605.78   609.64
eigval :      610.94   612.14   624.29   640.60   645.66   650.25
eigval :      658.62   660.59   662.91   664.63   666.52   670.62
eigval :      675.37   680.93   684.43   693.44   698.23   713.86
eigval :      718.95   724.89   755.52   756.56   756.95   759.53
eigval :      764.39   769.61   788.59   795.70   801.79   809.83
eigval :      819.27   833.10   834.54   841.47   850.80   856.45
eigval :      861.72   866.93   871.17   872.00   872.75   873.38
eigval :      873.66   894.90   894.96   895.84   896.83   897.49
eigval :      900.68   907.19   908.68   909.06   910.86   913.10
eigval :      913.62   915.33   919.24   920.67   921.67   926.30
eigval :      926.65   926.95   927.46   928.46   929.52   930.00
eigval :      930.09   930.28   930.36   930.47   932.12   937.83
eigval :      977.77   978.10   982.72   992.64  1000.60  1002.42
eigval :     1003.50  1012.96  1027.44  1058.42  1069.70  1076.63
eigval :     1079.68  1080.78  1080.80  1082.09  1089.95  1107.74
eigval :     1115.11  1119.67  1120.56  1121.84  1122.53  1134.49
eigval :     1138.42  1145.24  1148.38  1163.01  1170.80  1175.93
eigval :     1177.53  1177.82  1179.15  1179.66  1180.99  1182.16
eigval :     1183.98  1191.26  1193.44  1193.79  1193.94  1198.15
eigval :     1213.31  1215.12  1222.50  1236.66  1238.97  1254.13
eigval :     1259.20  1269.12  1270.29  1271.53  1272.75  1274.37
eigval :     1275.70  1277.07  1278.06  1288.34  1296.12  1300.96
eigval :     1301.39  1307.55  1310.45  1313.73  1314.24  1317.63
eigval :     1319.05  1319.81  1323.71  1323.76  1326.18  1330.27
eigval :     1332.22  1348.18  1355.23  1361.93  1399.88  1410.18
eigval :     1413.33  1419.69  1425.92  1427.26  1429.62  1430.55
eigval :     1433.08  1435.56  1437.82  1438.60  1446.37  1452.66
eigval :     1459.56  1460.69  1461.87  1463.66  1464.95  1470.43
eigval :     1474.61  1486.97  1504.91  1507.73  1517.79  1532.75
eigval :     1541.47  1546.91  1555.73  1569.10  1571.90  1572.32
eigval :     1573.26  1576.10  1578.67  1582.20  1584.03  1585.64
eigval :     1585.86  1588.24  1590.33  1595.32  2271.08  3064.28
eigval :     3067.68  3076.60  3076.83  3077.06  3077.43  3077.76
eigval :     3077.90  3077.93  3078.28  3079.04  3079.54  3079.85
eigval :     3080.67  3081.31  3082.16  3083.30  3084.77  3085.70
eigval :     3085.78  3086.74  3086.78  3087.81  3088.54  3089.28
eigval :     3089.47  3089.93  3090.63  3092.02  3093.13  3094.11
eigval :     3095.55  3096.96  3097.31  3098.15  3098.39  3099.04
eigval :     3099.59  3102.70  3104.45  3115.23  3118.79  3121.94

   temp. (K)  partition function   enthalpy   heat capacity  entropy
                                   cal/mol     cal/K/mol   cal/K/mol   J/K/mol
 298.15  VIB  0.512E+29            33659.360    206.248    214.575
         ROT  0.397E+09              888.752      2.981     42.328
         INT  0.203E+38            34548.112    209.229    256.904
         TR   0.253E+29             1481.254      4.968     46.186
         TOT                       36029.3662   214.1970   303.0902  1268.1295

       T/K    H(0)-H(T)+PV         H(T)/Eh          T*S/Eh         G(T)/Eh
   ------------------------------------------------------------------------
    298.15    0.574164E-01    0.913639E+00    0.144008E+00    0.769631E+00
   ------------------------------------------------------------------------

         :::::::::::::::::::::::::::::::::::::::::::::::::::::
         ::                  THERMODYNAMIC                  ::
         :::::::::::::::::::::::::::::::::::::::::::::::::::::
         :: total free energy        -172.850671479123 Eh   ::
         ::.................................................::
         :: total energy             -173.620302423895 Eh   ::
         :: zero point energy           0.856222438729 Eh   ::
         :: G(RRHO) w/o ZPVE           -0.086591493958 Eh   ::
         :: G(RRHO) contrib.            0.769630944772 Eh   ::
         :::::::::::::::::::::::::::::::::::::::::::::::::::::

           -------------------------------------------------
          | TOTAL ENERGY             -173.620302423895 Eh   |
          | TOTAL ENTHALPY           -172.706663535462 Eh   |
          | TOTAL FREE ENERGY        -172.850671479123 Eh   |
          | GRADIENT NORM               0.000097485046 Eh/α |
          | HOMO-LUMO GAP               0.341705232055 eV   |
           -------------------------------------------------

 * finished run on 2025/08/25 at 05:58:32.608
