   * xtb version 6.7.1 (edcfbbe) compiled by 'albert@albert-system' on 2024-07-22

   ID    Z sym.   atoms
    1    7 N      1, 8, 18, 42, 61
    2    6 C      2-7, 9-17, 19-41, 43-60, 62-69
    3    1 H      70-112

          program call               : xtb data2507/toluene/3,6-TC/3,6-TC.xyz --gfn 2 --gbsa toluene --ohess vtight --parallel 40 --molden --ceasefiles --namespace data2507/toluene/3,6-TC/3,6-TC_toluene_S0_preOpt
      * Solvation model:               GBSA
        Solvent                        toluene
        Solvent mass                       9.2140E+01 g/mol
          :  Hamiltonian                  GFN2-xTB          :
 * total energy  :  -173.6546008 Eh     change       -0.3181526E-08 Eh
 * total energy  :  -173.6731493 Eh     change       -0.1854847E-01 Eh
 * total energy  :  -173.6802113 Eh     change       -0.7062012E-02 Eh
 * total energy  :  -173.6828863 Eh     change       -0.2675020E-02 Eh
 * total energy  :  -173.6844818 Eh     change       -0.1595515E-02 Eh
 * total energy  :  -173.6851810 Eh     change       -0.6992051E-03 Eh
 * total energy  :  -173.6855498 Eh     change       -0.3687551E-03 Eh
 * total energy  :  -173.6858523 Eh     change       -0.3025726E-03 Eh
 * total energy  :  -173.6862082 Eh     change       -0.3558290E-03 Eh
 * total energy  :  -173.6866182 Eh     change       -0.4099993E-03 Eh
 * total energy  :  -173.6927304 Eh     change       -0.4134761E-06 Eh
 * total energy  :  -173.6927307 Eh     change       -0.3375158E-06 Eh
 * total energy  :  -173.6927311 Eh     change       -0.3124836E-06 Eh
 * total energy  :  -173.6927314 Eh     change       -0.3705420E-06 Eh
 * total energy  :  -173.6927318 Eh     change       -0.3282877E-06 Eh
 * total energy  :  -173.6927320 Eh     change       -0.2352359E-06 Eh
 * total energy  :  -173.6927322 Eh     change       -0.2408775E-06 Eh
 * total energy  :  -173.6927325 Eh     change       -0.2652429E-06 Eh
 * total energy  :  -173.6927325 Eh     change       -0.7069275E-08 Eh
   *** GEOMETRY OPTIMIZATION CONVERGED AFTER 152 ITERATIONS ***

 final structure:
================
112
 xtb: 6.7.1 (edcfbbe)
N          -12.42387913836070       -5.24563301415985        0.30316869010162
C          -11.37853182316453       -4.77325657369154        0.24916652665219
C          -10.09605847471757       -4.18885338789603        0.18451211080231
C           -9.90493423753355       -3.00065480079089       -0.52395732317631
C           -8.65493313689626       -2.42066719819034       -0.57782850110225
C           -7.57236287205945       -3.00785565974146        0.08147452540975
C           -6.22943627520525       -2.45809012348226        0.06570959045703
N           -5.16149102173609       -3.21919139944058        0.15422186482202
C           -4.09673578524793       -2.38150427137475        0.09871092056326
C           -2.71478194898357       -2.72028695924686        0.11056727055898
C           -2.28651472217175       -4.05087224642920        0.17249338420646
C           -0.95079540231005       -4.35706123913244        0.14234298034781
C            0.00258563976959       -3.33331206691810        0.04500933965398
C            1.43668109646928       -3.65046580810399       -0.00399172361338
C            2.36836876577466       -2.87170559725039        0.68181382011141
C            3.71563694071723       -3.16093578669450        0.63140169130408
C            4.17947787407408       -4.24785248231339       -0.11085179638028
N            5.54541468614700       -4.54113051060357       -0.16776635013937
C            6.35160740336284       -4.34564915270628        0.96108717467889
C            5.86850626106445       -4.64233781317701        2.23573768418144
C            6.66637473607700       -4.44493165315911        3.34633288044366
C            7.95638470485753       -3.95838137532728        3.20705299456034
C            8.44241894214877       -3.66517064120797        1.94295111976547
C            7.64933742293148       -3.85186869347301        0.82702854184431
C            6.11313197978737       -5.01840705160000       -1.35566631525678
C            5.68381413145080       -4.53388950013273       -2.59147301360361
C            6.24658166397503       -5.01012423714737       -3.75996881517146
C            7.24937639863130       -5.96549786232132       -3.71832939616962
C            7.68296279617225       -6.44673523116638       -2.49336540321739
C            7.11954530599601       -5.98375393925137       -1.31986088868419
C            3.25163767373783       -5.03505227168294       -0.79443744247376
C            1.90601362273333       -4.73819093293024       -0.73966693823504
C           -0.42353735032492       -2.01667584449131       -0.00657723703599
C           -1.77798617395764       -1.66465059970814        0.03310279366491
C           -2.23199439945853       -0.28215312075317        0.01442882331931
C           -1.32599196277589        0.78330725963638        0.03751933276515
C           -1.72581199595549        2.10851645571913        0.05216265430111
C           -0.73507875406029        3.19138492367853        0.08009577808083
C            0.41475283965615        3.09439060714716        0.86344835785516
C            1.34071958489401        4.11517798674183        0.89914911068560
C            1.15490756764431        5.26788458322348        0.13413576067950
N            2.09536811701136        6.30098464770672        0.16007252017303
C            1.67259109257511        7.63477241085377        0.08759684099760
C            2.40809526298251        8.57231744140996       -0.63753314575152
C            1.99085976967552        9.88808052296542       -0.69924465087484
C            0.83415859981547       10.28946868722679       -0.05030943114113
C            0.09671249086339        9.36100411987763        0.66681522292061
C            0.51087422592994        8.04502265745983        0.74196423597541
C            3.46118145719556        6.00596529684652        0.25752602669055
C            3.99516150555254        4.89694256055023       -0.39914089839680
C            5.34269504508403        4.60900594653346       -0.29758164672844
C            6.18041662011907        5.42266507327925        0.44818938676709
C            5.65642626466541        6.52848162722061        1.09829577194585
C            4.30828282491417        6.81850772179003        1.01137366277743
C            0.00904120964410        5.36770182750448       -0.65682471037686
C           -0.92077265566507        4.34991317721403       -0.67372045123321
C           -3.09619538097451        2.39546842932504        0.05497017465021
C           -4.01612042138520        1.37926287560414        0.03590616265044
C           -3.61835713034736        0.03459835870756        0.00177724943451
C           -4.52991454425375       -1.05817013124269       -0.00687479213647
N           -5.90300433146861       -1.12402480208557       -0.04195376420121
C           -6.82061278354539       -0.05242443490253       -0.13751732315770
C           -6.93591336775535        0.65637735239833       -1.33008549672165
C           -7.84889627386649        1.69115667860952       -1.42391970718359
C           -8.64729698549599        2.01640673344183       -0.33830849433919
C           -8.53150334222357        1.30774703377098        0.84632534809471
C           -7.61950134828885        0.27180182204023        0.95222453222514
C           -7.76839295396194       -4.21300887353780        0.76652621288833
C           -9.01221783357844       -4.79975137439353        0.82286088028748
H          -10.73984706522137       -2.54243780607549       -1.03341872367502
H           -8.52271920753915       -1.51733173549986       -1.15106998224040
H           -3.03884745042620       -4.82200754545128        0.23998022530049
H           -0.62648151940091       -5.38512311253488        0.20709432836159
H            2.03096462756911       -2.03443167885654        1.27525908557221
H            4.42177183408766       -2.54311712796698        1.16711337784838
H            4.86614407721942       -5.02994715551075        2.34700394414382
H            6.28003929998693       -4.68152113566437        4.32725982062669
H            8.57821099141444       -3.80886899339270        4.07700517054387
H            9.44481881748177       -3.27978306982901        1.82438534316087
H            8.02820361462787       -3.61439629918319       -0.15654143437810
H            4.90972601643716       -3.78098241796228       -2.62686006820316
H            5.90546275155356       -4.62464515841964       -4.70997192560713
H            7.68944435376145       -6.33232618624938       -4.63354753740242
H            8.46049339906362       -7.19572424595212       -2.45074678557589
H            7.45325836942620       -6.36762816077863       -0.36661550475259
H            3.59554323377885       -5.88244226726816       -1.36970772993344
H            1.20727299039751       -5.35219928391276       -1.28885783035778
H            0.33061578230693       -1.25299017692511       -0.10826960701580
H           -0.26729861969952        0.58216422917130        0.03410974637361
H            0.56836446222036        2.22045863829261        1.47967800465735
H            2.21578601173189        4.03019633069275        1.52702227003453
H            3.30577711143981        8.26068644553927       -1.15168623119416
H            2.56949146674768       10.60330840739762       -1.26571973934172
H            0.50990037321317       11.31796390224632       -0.10349499132021
H           -0.80376029307501        9.66533172012777        1.18056967521093
H           -0.06041162453458        7.32560139032357        1.31065050814267
H            3.34713993900357        4.26658819587197       -0.99075519603910
H            5.74265298668225        3.74724663365426       -0.81214651215426
H            7.23371647494463        5.19703289302012        0.52141454203687
H            6.30055511071090        7.16624742280563        1.68625201120143
H            3.90140044907027        7.67591137738275        1.52766605389187
H           -0.14274948279688        6.24930664750617       -1.26252254939745
H           -1.79108332908144        4.43972408086141       -1.30733916204929
H           -3.42948011107799        3.42158288702299        0.10074961185235
H           -5.06635165401044        1.62048977833033        0.06582756736514
H           -6.30690592083357        0.39280820617055       -2.16816834698184
H           -7.93765623556934        2.24170026248458       -2.34823915926057
H           -9.35959073650349        2.82352872918546       -0.41654237161694
H           -9.15103891368724        1.56094393059920        1.69320789066585
H           -7.52068277985274       -0.28793802473212        1.87073629581654
H           -6.92030759959794       -4.67105393256211        1.25071085845298
H           -9.16009469822512       -5.72605975057992        1.35802876341216

          :  Hamiltonian                  GFN2-xTB          :
         :: gradient norm              0.000067501332 Eh/a0 ::
         :: HOMO-LUMO gap              1.618130689375 eV    ::
         :: SCC energy              -177.000153681941 Eh    ::
         :: -> dispersion             -0.159937759781 Eh    ::
         :: -> Gsolv                  -0.076019078609 Eh    ::
         :: repulsion energy           3.307421178766 Eh    ::

    * Orbital Energies and Occupations

         #    Occupation            Energy/Eh            Energy/eV
      -------------------------------------------------------------
         1        2.0000           -0.6951827             -18.9169
       ...           ...                  ...                  ...
       150        2.0000           -0.4079109             -11.0998
       151        2.0000           -0.4072040             -11.0806
       152        2.0000           -0.4056916             -11.0394
       153        2.0000           -0.4052772             -11.0282
       154        2.0000           -0.4044824             -11.0065
       155        2.0000           -0.4037626             -10.9869
       156        2.0000           -0.4017030             -10.9309
       157        2.0000           -0.3945260             -10.7356
       158        2.0000           -0.3860059             -10.5038
       159        2.0000           -0.3845296             -10.4636
       160        2.0000           -0.3693523             -10.0506
       161        2.0000           -0.3497580              -9.5174
       162        2.0000           -0.3477362              -9.4624 (HOMO)
       163                         -0.2882710              -7.8443 (LUMO)
       164                         -0.2619682              -7.1285
       165                         -0.2520904              -6.8597
       166                         -0.2472999              -6.7294
       167                         -0.2459423              -6.6924
       168                         -0.2431258              -6.6158
       169                         -0.2418415              -6.5808
       170                         -0.2312500              -6.2926
       171                         -0.2302546              -6.2655
       172                         -0.2283036              -6.2125
       173                         -0.2270312              -6.1778
       ...                                ...                  ...
       319                          1.1575532              31.4986
      -------------------------------------------------------------
                  HL-Gap            0.0594652 Eh            1.6181 eV

     #   Z          covCN         q      C6AA      α(0)
     1   7 N        0.911    -0.269    26.971     7.511
     2   6 C        1.912     0.119    28.177     8.573
     3   6 C        2.973     0.017    27.636     8.623
     4   6 C        2.925    -0.018    28.470     8.750
     5   6 C        2.920    -0.033    28.817     8.803
     6   6 C        2.973     0.009    27.806     8.650
     7   6 C        3.189     0.129    24.742     8.114
     8   7 N        1.896    -0.310    28.889     7.968
     9   6 C        3.201     0.061    26.103     8.325
    10   6 C        2.985    -0.005    28.141     8.702
    11   6 C        2.918    -0.034    28.848     8.808
    12   6 C        2.922    -0.036    28.897     8.815
    13   6 C        2.973     0.007    27.850     8.656
    14   6 C        2.976     0.000    28.014     8.682
    15   6 C        2.924    -0.035    28.875     8.812
    16   6 C        2.920    -0.049    29.223     8.865
    17   6 C        2.923     0.064    26.564     8.452
    18   7 N        2.752    -0.079    22.784     7.089
    19   6 C        2.923     0.066    26.529     8.447
    20   6 C        2.922    -0.048    29.188     8.860
    21   6 C        2.919    -0.030    28.756     8.794
    22   6 C        2.919    -0.039    28.977     8.827
    23   6 C        2.919    -0.030    28.756     8.794
    24   6 C        2.922    -0.048    29.190     8.860
    25   6 C        2.923     0.066    26.530     8.447
    26   6 C        2.922    -0.048    29.195     8.861
    27   6 C        2.919    -0.030    28.757     8.794
    28   6 C        2.919    -0.039    28.980     8.828
    29   6 C        2.919    -0.030    28.756     8.794
    30   6 C        2.922    -0.048    29.193     8.860
    31   6 C        2.920    -0.049    29.216     8.864
    32   6 C        2.924    -0.035    28.863     8.810
    33   6 C        2.928    -0.042    29.050     8.839
    34   6 C        2.977    -0.004    28.121     8.699
    35   6 C        2.978    -0.000    28.033     8.685
    36   6 C        2.928    -0.041    29.024     8.835
    37   6 C        2.973     0.008    27.832     8.654
    38   6 C        2.976    -0.000    28.027     8.684
    39   6 C        2.924    -0.035    28.868     8.811
    40   6 C        2.920    -0.049    29.213     8.863
    41   6 C        2.923     0.065    26.555     8.451
    42   7 N        2.752    -0.078    22.764     7.086
    43   6 C        2.924     0.065    26.534     8.447
    44   6 C        2.922    -0.048    29.184     8.859
    45   6 C        2.919    -0.030    28.752     8.793
    46   6 C        2.919    -0.039    28.972     8.827
    47   6 C        2.919    -0.030    28.755     8.794
    48   6 C        2.922    -0.048    29.188     8.860
    49   6 C        2.923     0.065    26.535     8.447
    50   6 C        2.922    -0.048    29.193     8.860
    51   6 C        2.919    -0.030    28.754     8.793
    52   6 C        2.919    -0.039    28.975     8.827
    53   6 C        2.919    -0.030    28.753     8.793
    54   6 C        2.922    -0.048    29.192     8.860
    55   6 C        2.920    -0.049    29.218     8.864
    56   6 C        2.924    -0.035    28.861     8.810
    57   6 C        2.922    -0.037    28.921     8.819
    58   6 C        2.917    -0.042    29.034     8.836
    59   6 C        2.978    -0.007    28.201     8.711
    60   6 C        3.076     0.024    27.383     8.580
    61   7 N        2.838    -0.049    22.188     6.996
    62   6 C        2.912     0.065    26.552     8.450
    63   6 C        2.921    -0.037    28.915     8.818
    64   6 C        2.920    -0.025    28.634     8.775
    65   6 C        2.919    -0.027    28.686     8.783
    66   6 C        2.920    -0.024    28.611     8.771
    67   6 C        2.921    -0.038    28.944     8.822
    68   6 C        2.928    -0.025    28.623     8.774
    69   6 C        2.923    -0.017    28.436     8.745
    70   1 H        0.926     0.048     2.342     2.393
    71   1 H        0.926     0.045     2.389     2.417
    72   1 H        0.926     0.044     2.399     2.422
    73   1 H        0.926     0.035     2.518     2.481
    74   1 H        0.926     0.034     2.526     2.485
    75   1 H        0.926     0.032     2.558     2.501
    76   1 H        0.926     0.031     2.565     2.505
    77   1 H        0.926     0.033     2.542     2.493
    78   1 H        0.926     0.032     2.562     2.503
    79   1 H        0.926     0.033     2.542     2.493
    80   1 H        0.926     0.031     2.569     2.506
    81   1 H        0.926     0.031     2.568     2.506
    82   1 H        0.926     0.033     2.545     2.495
    83   1 H        0.926     0.032     2.564     2.504
    84   1 H        0.926     0.033     2.544     2.494
    85   1 H        0.926     0.031     2.570     2.507
    86   1 H        0.926     0.032     2.559     2.501
    87   1 H        0.926     0.035     2.515     2.480
    88   1 H        0.926     0.038     2.478     2.462
    89   1 H        0.926     0.040     2.450     2.448
    90   1 H        0.926     0.035     2.520     2.483
    91   1 H        0.926     0.033     2.551     2.498
    92   1 H        0.926     0.032     2.564     2.504
    93   1 H        0.926     0.033     2.538     2.491
    94   1 H        0.926     0.032     2.557     2.501
    95   1 H        0.926     0.033     2.538     2.491
    96   1 H        0.926     0.032     2.564     2.504
    97   1 H        0.926     0.032     2.565     2.504
    98   1 H        0.926     0.033     2.540     2.492
    99   1 H        0.926     0.032     2.560     2.502
   100   1 H        0.926     0.033     2.541     2.493
   101   1 H        0.926     0.031     2.567     2.505
   102   1 H        0.926     0.032     2.552     2.498
   103   1 H        0.926     0.035     2.512     2.479
   104   1 H        0.926     0.034     2.525     2.485
   105   1 H        0.926     0.031     2.578     2.511
   106   1 H        0.926     0.044     2.401     2.423
   107   1 H        0.926     0.050     2.326     2.385
   108   1 H        0.926     0.049     2.327     2.386
   109   1 H        0.926     0.049     2.336     2.390
   110   1 H        0.926     0.039     2.457     2.451
   111   1 H        0.926     0.061     2.183     2.311
   112   1 H        0.926     0.050     2.316     2.380

molecular dipole:
                 x           y           z       tot (Debye)
 q only:        1.135       2.024      -0.152
   full:        1.469       2.541      -0.200       7.479

 projected vibrational frequencies (cm⁻¹)
eigval :       -0.00    -0.00     0.00     0.00     0.00     0.00
eigval :        5.99     8.75    10.41    12.93    14.25    18.45
eigval :       23.37    28.69    32.69    36.97    41.09    41.68
eigval :       46.83    49.47    53.30    56.63    61.48    64.25
eigval :       66.82    71.07    72.38    79.32    92.25    95.07
eigval :       98.59   105.97   110.96   116.94   134.01   135.77
eigval :      144.16   150.53   171.18   184.63   199.41   204.94
eigval :      216.01   220.25   230.59   233.83   243.33   248.36
eigval :      254.80   263.88   270.42   303.58   308.62   310.06
eigval :      317.07   330.45   345.71   357.01   365.22   369.48
eigval :      372.82   374.69   377.14   377.60   379.12   379.21
eigval :      381.82   385.67   388.44   393.47   403.37   407.45
eigval :      419.94   434.57   441.76   450.70   463.65   471.51
eigval :      474.37   484.71   490.57   491.96   504.26   509.18
eigval :      515.21   516.83   532.05   535.35   547.21   564.10
eigval :      578.79   582.67   584.96   585.76   587.37   588.82
eigval :      592.30   593.59   597.14   605.70   612.08   613.52
eigval :      614.33   631.60   638.99   643.83   653.21   659.28
eigval :      659.81   663.34   666.70   670.39   676.26   680.83
eigval :      683.84   689.90   696.60   700.56   702.72   718.85
eigval :      722.77   735.69   754.56   755.89   757.45   759.36
eigval :      769.75   774.83   804.64   806.55   809.44   819.06
eigval :      828.92   835.91   858.09   863.43   865.26   865.64
eigval :      868.68   871.94   872.44   873.44   875.40   875.48
eigval :      877.05   889.88   890.23   891.60   892.61   902.32
eigval :      908.91   909.39   912.37   913.65   914.08   915.26
eigval :      917.39   921.46   924.68   924.81   925.84   926.21
eigval :      926.56   926.70   927.22   927.64   928.34   928.57
eigval :      929.20   929.66   929.87   935.17   949.91   953.08
eigval :      982.46   984.38   991.50  1003.79  1003.80  1008.87
eigval :     1018.70  1022.50  1041.45  1070.52  1076.92  1081.67
eigval :     1081.89  1082.72  1083.09  1083.77  1103.96  1113.14
eigval :     1120.09  1120.28  1122.29  1122.89  1133.02  1134.80
eigval :     1140.49  1142.69  1158.19  1177.12  1177.96  1178.53
eigval :     1178.79  1179.72  1179.89  1184.51  1184.52  1185.12
eigval :     1186.45  1193.36  1194.06  1194.98  1195.78  1205.04
eigval :     1213.98  1215.04  1228.41  1234.95  1245.89  1262.24
eigval :     1267.36  1270.45  1271.78  1275.49  1277.09  1277.47
eigval :     1277.80  1281.12  1286.81  1295.45  1305.02  1308.54
eigval :     1309.26  1309.47  1314.42  1314.81  1317.78  1321.31
eigval :     1322.63  1323.60  1323.88  1325.37  1325.89  1328.47
eigval :     1335.38  1346.60  1370.09  1395.03  1400.15  1401.51
eigval :     1414.24  1415.99  1428.23  1430.09  1434.23  1434.37
eigval :     1434.92  1441.00  1441.35  1456.01  1469.55  1470.30
eigval :     1472.58  1473.01  1474.83  1487.78  1488.83  1495.21
eigval :     1511.62  1534.96  1540.31  1551.73  1555.03  1557.37
eigval :     1564.00  1575.47  1575.57  1579.18  1579.36  1580.73
eigval :     1581.16  1581.87  1587.95  1589.64  1591.32  1591.41
eigval :     1594.56  1597.18  1600.99  1603.33  2358.06  3070.49
eigval :     3071.28  3071.59  3071.59  3071.91  3072.31  3072.42
eigval :     3072.68  3073.41  3073.62  3075.42  3075.67  3080.48
eigval :     3081.04  3081.15  3081.62  3082.13  3082.27  3083.20
eigval :     3083.28  3083.38  3083.95  3084.68  3084.93  3085.21
eigval :     3085.56  3086.81  3088.47  3088.57  3088.97  3089.07
eigval :     3092.83  3093.60  3093.86  3094.31  3094.33  3098.22
eigval :     3099.34  3103.19  3109.85  3112.62  3115.04  3117.66

   temp. (K)  partition function   enthalpy   heat capacity  entropy
                                   cal/mol     cal/K/mol   cal/K/mol   J/K/mol
 298.15  VIB  0.193E+29            33419.973    204.819    212.914
         ROT  0.403E+09              888.752      2.981     42.357
         INT  0.779E+37            34308.726    207.800    255.271
         TR   0.253E+29             1481.254      4.968     46.186
         TOT                       35789.9796   212.7682   301.4575  1261.2983

       T/K    H(0)-H(T)+PV         H(T)/Eh          T*S/Eh         G(T)/Eh
   ------------------------------------------------------------------------
    298.15    0.570350E-01    0.916816E+00    0.143232E+00    0.773584E+00
   ------------------------------------------------------------------------

         :::::::::::::::::::::::::::::::::::::::::::::::::::::
         ::                  THERMODYNAMIC                  ::
         :::::::::::::::::::::::::::::::::::::::::::::::::::::
         :: total free energy        -172.919148564463 Eh   ::
         ::.................................................::
         :: total energy             -173.692732500057 Eh   ::
         :: zero point energy           0.859781174878 Eh   ::
         :: G(RRHO) w/o ZPVE           -0.086197239284 Eh   ::
         :: G(RRHO) contrib.            0.773583935594 Eh   ::
         :::::::::::::::::::::::::::::::::::::::::::::::::::::

           -------------------------------------------------
          | TOTAL ENERGY             -173.692732500057 Eh   |
          | TOTAL ENTHALPY           -172.775916362180 Eh   |
          | TOTAL FREE ENERGY        -172.919148564463 Eh   |
          | GRADIENT NORM               0.000067482585 Eh/α |
          | HOMO-LUMO GAP               1.618130557453 eV   |
           -------------------------------------------------

 * finished run on 2025/08/25 at 05:42:20.171
