   * xtb version 6.7.1 (edcfbbe) compiled by 'albert@albert-system' on 2024-07-22

   ID    Z sym.   atoms
    1    7 N      1, 8, 18, 42, 61
    2    6 C      2-7, 9-17, 19-41, 43-60, 62-69
    3    1 H      70-112

          program call               : xtb data2507/toluene/3,6-TC/3,6-TC_toluene_S0_crest.xyz --gfn 2 --gbsa toluene --ohess vtight --parallel 40 --molden --ceasefiles --namespace data2507/toluene/3,6-TC/3,6-TC_toluene_S0_finalOpt
      * Solvation model:               GBSA
        Solvent                        toluene
        Solvent mass                       9.2140E+01 g/mol
          :  Hamiltonian                  GFN2-xTB          :
 * total energy  :  -173.6931236 Eh     change       -0.2195605E-08 Eh
 * total energy  :  -173.6931693 Eh     change       -0.4572688E-04 Eh
 * total energy  :  -173.6931942 Eh     change       -0.2488849E-04 Eh
 * total energy  :  -173.6932052 Eh     change       -0.1105637E-04 Eh
 * total energy  :  -173.6932136 Eh     change       -0.8379565E-05 Eh
 * total energy  :  -173.6932192 Eh     change       -0.5613221E-05 Eh
 * total energy  :  -173.6932237 Eh     change       -0.4465599E-05 Eh
 * total energy  :  -173.6932271 Eh     change       -0.3364842E-05 Eh
 * total energy  :  -173.6932313 Eh     change       -0.4265596E-05 Eh
 * total energy  :  -173.6932343 Eh     change       -0.2968312E-05 Eh
 * total energy  :  -173.6932876 Eh     change       -0.3373766E-06 Eh
 * total energy  :  -173.6932879 Eh     change       -0.3217853E-06 Eh
 * total energy  :  -173.6932882 Eh     change       -0.2743222E-06 Eh
 * total energy  :  -173.6932884 Eh     change       -0.2680641E-06 Eh
 * total energy  :  -173.6932888 Eh     change       -0.3072790E-06 Eh
 * total energy  :  -173.6932891 Eh     change       -0.3404787E-06 Eh
 * total energy  :  -173.6932894 Eh     change       -0.3302919E-06 Eh
 * total energy  :  -173.6932897 Eh     change       -0.3013965E-06 Eh
 * total energy  :  -173.6932897 Eh     change       -0.9710845E-09 Eh
   *** GEOMETRY OPTIMIZATION CONVERGED AFTER 44 ITERATIONS ***

 final structure:
================
112
 xtb: 6.7.1 (edcfbbe)
N          -12.68172609778996       -3.19691701428110        0.07354225249715
C          -11.57927055773385       -2.87560625594524        0.05753469500287
C          -10.22577160311057       -2.47782718531530        0.03930579327542
C           -9.25999993659153       -3.24264794126965        0.70092682163241
C           -7.94346993894347       -2.84166803645498        0.68384376636134
C           -7.55619128541006       -1.67362848346183        0.01617501156084
C           -6.14608211495602       -1.33116809508411        0.03180061378848
N           -5.20802564139754       -2.24671330239286        0.12790133692648
C           -4.02744333705708       -1.58103986264755        0.09220806125632
C           -2.71434857399362       -2.12849319167289        0.12022975258214
C           -2.49513410257901       -3.50904993865039        0.18471191466603
C           -1.22134909369819       -4.01554326022044        0.17580148859082
C           -0.12141886853764       -3.14913798014591        0.09947015639876
C            1.24938911232972       -3.67644350940885        0.07394863216150
C            1.56540513763719       -4.82108537936201       -0.65722060663583
C            2.85710337151334       -5.30133664404408       -0.70738193249000
C            3.88037968518895       -4.65753323684093       -0.00988344584273
N            5.19286145788315       -5.13567036589671       -0.06353316885628
C            5.43476935338707       -6.51468995998722       -0.11075935619623
C            6.46176001645476       -7.02679490076013       -0.90367189708916
C            6.69918987714980       -8.38739128888435       -0.94236689273812
C            5.91597806371089       -9.25835808338506       -0.20205472126490
C            4.89158308137731       -8.75528857908991        0.58387616847225
C            4.65196459348243       -7.39559322292107        0.63569248817624
C            6.26650109063839       -4.23667877670766       -0.07842507057009
C            7.44981034107622       -4.53658735547482        0.59698705070671
C            8.50787431283991       -3.64821156457081        0.57734346793571
C            8.40326113514324       -2.44577793619630       -0.10329084640330
C            7.22918698302631       -2.14128796604125       -0.77320285682889
C            6.16963758087193       -3.02789155049487       -0.76845459193366
C            3.56654855680216       -3.52333831627018        0.74049813138153
C            2.27575752600054       -3.04044205119055        0.77240765206606
C           -0.34113280827547       -1.78304008178535        0.04216335905238
C           -1.62634892005390       -1.22865391258431        0.05839352093293
C           -1.86306140054963        0.20676300928194        0.03323675226299
C           -0.80372265146802        1.11933527036777        0.05482471707236
C           -0.99280243670650        2.49056640884159        0.06646607560389
C            0.15974818710212        3.39951082576411        0.08165984857129
C            0.16274983032830        4.56654729487058       -0.68164165408876
C            1.25476769706799        5.40837554295180       -0.69181020031287
C            2.38123658471765        5.11763532110005        0.07956659644629
N            3.49129100868418        5.96640329460366        0.07115956037391
C            4.78372266162188        5.43116572639262        0.14536422811371
C            5.78034525454334        6.08623501739099        0.86895484723132
C            7.05611462034579        5.55937585812213        0.93223185961466
C            7.35800179920414        4.37044776369248        0.28774794053884
C            6.37020288109801        3.71201693015234       -0.42685138801582
C            5.09439832648701        4.23661036573702       -0.50500403737031
C            3.31277000331277        7.35313733555195       -0.01547616628239
C            2.25525909771689        7.97280365568146        0.65072774679670
C            2.08046419390782        9.34035790207637        0.56013666573077
C            2.95698750401507       10.11252553454468       -0.18521560625557
C            4.01200813171809        9.50277187128419       -0.84499152235158
C            4.18973466798661        8.13473294301647       -0.76773371858770
C            2.37676787918192        3.95980963798408        0.85930492759472
C            1.28772971196769        3.11487087539230        0.85125433398341
C           -2.30219650632114        2.98607429505344        0.07005125105712
C           -3.36827515605037        2.12394019099014        0.04883091050751
C           -3.18376356544917        0.73376202121162        0.01310598303120
C           -4.25218059599050       -0.20625621925937       -0.00880471226594
N           -5.61888837389709       -0.06179982651559       -0.06091273343421
C           -6.36440498797133        1.13584556111476       -0.15522580364962
C           -6.34789872685202        1.87271813253381       -1.33615611779991
C           -7.09756400871068        3.03149174426525       -1.42859483029238
C           -7.86406734239602        3.45323158942773       -0.35322368737970
C           -7.88031996586161        2.71622542344125        0.81955341667164
C           -7.13190884569897        1.55652108112247        0.92409404263306
C           -8.52420662031411       -0.92933746717440       -0.66228002608931
C           -9.84577057532867       -1.32333614648949       -0.64851581639651
H           -9.55481137871485       -4.14144248191987        1.22207569276438
H           -7.18400883097650       -3.42168972434634        1.18406512918567
H           -3.35725765881891       -4.15650734602007        0.23770708862862
H           -1.05876035680850       -5.08111276685190        0.24187058713828
H            0.79359654258820       -5.32184526631453       -1.22331780459416
H            3.08574256961091       -6.17718285957566       -1.29719571627979
H            7.06838399853928       -6.35093584120168       -1.48898317187647
H            7.49685218886898       -8.77063740407185       -1.56222505732692
H            6.10245008594381      -10.32124277164216       -0.23737620151780
H            4.27904027880512       -9.42603313589358        1.16890638224956
H            3.85845339148079       -7.00506581548184        1.25631128396741
H            7.53148885956130       -5.46859056329491        1.13730820316197
H            9.41757246913559       -3.89324451374578        1.10626978818566
H            9.23024552545899       -1.75172937122284       -0.11199484802358
H            7.13997432021523       -1.20932723371785       -1.31256425119238
H            5.25994881864150       -2.79191600219989       -1.30139402979611
H            4.34467774696366       -3.02538856657859        1.30076054652235
H            2.05270237547869       -2.17171386535376        1.37460721389659
H            0.52256547020658       -1.14372398849141       -0.04363613285305
H            0.21109672428878        0.75712194137822        0.04943271384038
H           -0.68990290272473        4.79963773518291       -1.30261469545934
H            1.24694716833694        6.29701403012281       -1.30612601671712
H            5.54615479158462        7.00822324646014        1.38111420724619
H            7.81781683813841        6.07752005411372        1.49668606601990
H            8.35512839097458        3.96006582658381        0.34286468609702
H            6.59666836012344        2.78655174344044       -0.93633935691181
H            4.33006782143768        3.72631905361764       -1.07301679559023
H            1.57618643095398        7.37456884178487        1.24091394572776
H            1.25862671465647        9.80740786175429        1.08344113224034
H            2.81973146992539       11.18144839024387       -0.25060908928594
H            4.69772759834201       10.09581449338670       -1.43274084593162
H            5.00794647582368        7.66123997834679       -1.29081378319297
H            3.23475320755877        3.73064462805076        1.47455036954566
H            1.29839002063181        2.23466290159000        1.47748117501182
H           -2.47328362765236        4.05131954815121        0.11523169566119
H           -4.36873234036070        2.52462276651911        0.07639135710581
H           -5.74559679956858        1.53306215845881       -2.16641960419623
H           -7.08408776960947        3.60357009177249       -2.34399825303283
H           -8.44902320550447        4.35696866668355       -0.43045599809985
H           -8.47535175560020        3.04370650626912        1.65851318135623
H           -7.13727098239952        0.97359411310991        1.83345415202528
H           -8.24694276049543       -0.05005850507160       -1.22099879804736
H          -10.59156485747438       -0.74524076251461       -1.17398157220434

          :  Hamiltonian                  GFN2-xTB          :
         :: gradient norm              0.000178837058 Eh/a0 ::
         :: HOMO-LUMO gap              1.619153668168 eV    ::
         :: SCC energy              -177.000912733623 Eh    ::
         :: -> dispersion             -0.160457169070 Eh    ::
         :: -> Gsolv                  -0.076026747650 Eh    ::
         :: repulsion energy           3.307623009775 Eh    ::

    * Orbital Energies and Occupations

         #    Occupation            Energy/Eh            Energy/eV
      -------------------------------------------------------------
         1        2.0000           -0.6951576             -18.9162
       ...           ...                  ...                  ...
       150        2.0000           -0.4077449             -11.0953
       151        2.0000           -0.4072837             -11.0828
       152        2.0000           -0.4056753             -11.0390
       153        2.0000           -0.4053054             -11.0289
       154        2.0000           -0.4047617             -11.0141
       155        2.0000           -0.4040227             -10.9940
       156        2.0000           -0.4016304             -10.9289
       157        2.0000           -0.3946484             -10.7389
       158        2.0000           -0.3860403             -10.5047
       159        2.0000           -0.3845559             -10.4643
       160        2.0000           -0.3695284             -10.0554
       161        2.0000           -0.3498222              -9.5191
       162        2.0000           -0.3477515              -9.4628 (HOMO)
       163                         -0.2882487              -7.8436 (LUMO)
       164                         -0.2620389              -7.1304
       165                         -0.2520917              -6.8598
       166                         -0.2472109              -6.7270
       167                         -0.2459580              -6.6929
       168                         -0.2430616              -6.6140
       169                         -0.2418931              -6.5822
       170                         -0.2312799              -6.2934
       171                         -0.2303565              -6.2683
       172                         -0.2283343              -6.2133
       173                         -0.2271418              -6.1808
       ...                                ...                  ...
       319                          1.1573435              31.4929
      -------------------------------------------------------------
                  HL-Gap            0.0595028 Eh            1.6192 eV

     #   Z          covCN         q      C6AA      α(0)
     1   7 N        0.911    -0.269    26.971     7.511
     2   6 C        1.912     0.119    28.177     8.573
     3   6 C        2.973     0.017    27.636     8.623
     4   6 C        2.923    -0.017    28.435     8.745
     5   6 C        2.928    -0.025    28.623     8.774
     6   6 C        2.973     0.009    27.805     8.649
     7   6 C        3.189     0.129    24.739     8.114
     8   7 N        1.896    -0.310    28.891     7.969
     9   6 C        3.201     0.061    26.100     8.325
    10   6 C        2.985    -0.005    28.142     8.702
    11   6 C        2.918    -0.034    28.848     8.808
    12   6 C        2.921    -0.036    28.898     8.815
    13   6 C        2.973     0.007    27.852     8.657
    14   6 C        2.976     0.000    28.017     8.682
    15   6 C        2.924    -0.035    28.862     8.810
    16   6 C        2.920    -0.049    29.219     8.864
    17   6 C        2.923     0.064    26.565     8.452
    18   7 N        2.752    -0.079    22.774     7.088
    19   6 C        2.923     0.066    26.531     8.447
    20   6 C        2.922    -0.048    29.187     8.860
    21   6 C        2.919    -0.030    28.755     8.794
    22   6 C        2.919    -0.039    28.974     8.827
    23   6 C        2.919    -0.030    28.754     8.793
    24   6 C        2.922    -0.048    29.186     8.859
    25   6 C        2.923     0.066    26.530     8.447
    26   6 C        2.922    -0.048    29.194     8.861
    27   6 C        2.919    -0.030    28.756     8.794
    28   6 C        2.919    -0.039    28.982     8.828
    29   6 C        2.919    -0.030    28.753     8.793
    30   6 C        2.922    -0.048    29.196     8.861
    31   6 C        2.920    -0.049    29.219     8.864
    32   6 C        2.924    -0.035    28.876     8.812
    33   6 C        2.928    -0.042    29.054     8.840
    34   6 C        2.978    -0.004    28.122     8.699
    35   6 C        2.978    -0.000    28.034     8.685
    36   6 C        2.929    -0.041    29.028     8.836
    37   6 C        2.973     0.008    27.833     8.654
    38   6 C        2.976    -0.000    28.027     8.684
    39   6 C        2.924    -0.035    28.860     8.810
    40   6 C        2.920    -0.049    29.218     8.864
    41   6 C        2.923     0.065    26.555     8.451
    42   7 N        2.752    -0.078    22.764     7.086
    43   6 C        2.923     0.065    26.535     8.447
    44   6 C        2.922    -0.048    29.191     8.860
    45   6 C        2.919    -0.030    28.754     8.793
    46   6 C        2.919    -0.039    28.973     8.827
    47   6 C        2.919    -0.030    28.749     8.793
    48   6 C        2.922    -0.048    29.192     8.860
    49   6 C        2.923     0.065    26.534     8.447
    50   6 C        2.922    -0.048    29.189     8.860
    51   6 C        2.919    -0.030    28.755     8.794
    52   6 C        2.919    -0.039    28.974     8.827
    53   6 C        2.919    -0.030    28.753     8.793
    54   6 C        2.922    -0.048    29.187     8.859
    55   6 C        2.920    -0.049    29.212     8.863
    56   6 C        2.924    -0.035    28.869     8.811
    57   6 C        2.921    -0.037    28.920     8.819
    58   6 C        2.917    -0.042    29.033     8.836
    59   6 C        2.977    -0.007    28.201     8.711
    60   6 C        3.075     0.024    27.386     8.580
    61   7 N        2.838    -0.049    22.186     6.996
    62   6 C        2.912     0.065    26.554     8.450
    63   6 C        2.921    -0.037    28.915     8.818
    64   6 C        2.920    -0.025    28.635     8.775
    65   6 C        2.919    -0.027    28.687     8.783
    66   6 C        2.920    -0.024    28.611     8.772
    67   6 C        2.921    -0.038    28.945     8.823
    68   6 C        2.920    -0.033    28.816     8.803
    69   6 C        2.925    -0.018    28.470     8.750
    70   1 H        0.926     0.050     2.316     2.380
    71   1 H        0.926     0.061     2.183     2.311
    72   1 H        0.926     0.044     2.400     2.423
    73   1 H        0.926     0.035     2.518     2.481
    74   1 H        0.926     0.035     2.516     2.480
    75   1 H        0.926     0.032     2.561     2.502
    76   1 H        0.926     0.031     2.567     2.506
    77   1 H        0.926     0.033     2.541     2.493
    78   1 H        0.926     0.032     2.560     2.502
    79   1 H        0.926     0.033     2.539     2.492
    80   1 H        0.926     0.032     2.563     2.503
    81   1 H        0.926     0.031     2.572     2.508
    82   1 H        0.926     0.033     2.545     2.495
    83   1 H        0.926     0.032     2.562     2.503
    84   1 H        0.926     0.033     2.548     2.496
    85   1 H        0.926     0.031     2.567     2.505
    86   1 H        0.926     0.032     2.555     2.500
    87   1 H        0.926     0.034     2.525     2.485
    88   1 H        0.926     0.038     2.477     2.461
    89   1 H        0.926     0.040     2.447     2.446
    90   1 H        0.926     0.035     2.513     2.479
    91   1 H        0.926     0.032     2.552     2.498
    92   1 H        0.926     0.031     2.568     2.506
    93   1 H        0.926     0.033     2.542     2.493
    94   1 H        0.926     0.032     2.558     2.501
    95   1 H        0.926     0.033     2.541     2.493
    96   1 H        0.926     0.032     2.565     2.504
    97   1 H        0.926     0.032     2.564     2.504
    98   1 H        0.926     0.033     2.539     2.492
    99   1 H        0.926     0.032     2.558     2.501
   100   1 H        0.926     0.033     2.539     2.492
   101   1 H        0.926     0.032     2.565     2.504
   102   1 H        0.926     0.033     2.550     2.497
   103   1 H        0.926     0.035     2.519     2.482
   104   1 H        0.926     0.034     2.526     2.485
   105   1 H        0.926     0.031     2.579     2.511
   106   1 H        0.926     0.044     2.400     2.423
   107   1 H        0.926     0.049     2.326     2.385
   108   1 H        0.926     0.049     2.328     2.386
   109   1 H        0.926     0.049     2.337     2.391
   110   1 H        0.926     0.039     2.458     2.452
   111   1 H        0.926     0.044     2.390     2.418
   112   1 H        0.926     0.048     2.342     2.393

molecular dipole:
                 x           y           z       tot (Debye)
 q only:        1.447       1.809      -0.111
   full:        1.854       2.272      -0.145       7.461

 projected vibrational frequencies (cm⁻¹)
eigval :       -0.00    -0.00     0.00     0.00     0.00     0.00
eigval :        5.08     7.04     8.73    11.81    14.90    16.62
eigval :       20.73    27.47    30.98    36.72    38.14    42.01
eigval :       45.42    48.12    53.18    55.85    61.14    61.98
eigval :       69.24    70.91    71.80    82.05    94.42    94.69
eigval :       98.62   105.03   111.06   116.90   134.31   137.45
eigval :      144.76   154.96   171.52   185.64   204.01   206.71
eigval :      212.95   218.51   230.23   232.22   239.86   248.41
eigval :      255.04   267.71   272.13   302.09   309.33   310.20
eigval :      316.53   331.55   344.60   356.68   365.99   368.13
eigval :      371.00   375.48   377.91   379.43   380.32   380.86
eigval :      382.02   387.60   389.70   400.39   402.53   408.64
eigval :      418.96   434.10   440.01   450.44   463.03   471.24
eigval :      474.40   484.75   490.05   492.51   504.49   508.89
eigval :      514.66   516.62   531.82   535.92   546.51   565.71
eigval :      578.67   583.28   584.91   585.83   587.40   588.57
eigval :      593.12   593.64   595.83   603.49   612.01   613.86
eigval :      614.19   632.64   638.79   643.68   653.06   659.88
eigval :      660.36   664.29   667.24   669.99   676.40   680.83
eigval :      683.78   690.42   696.64   700.11   702.70   718.83
eigval :      722.69   735.75   755.89   757.24   758.24   760.65
eigval :      768.80   774.87   805.62   808.65   809.71   818.92
eigval :      830.32   835.61   858.58   862.43   865.45   868.33
eigval :      870.66   872.98   873.25   873.79   875.28   876.43
eigval :      877.97   891.38   892.36   892.70   893.28   899.99
eigval :      909.32   909.54   913.27   914.75   915.54   916.91
eigval :      919.40   923.64   925.20   926.01   926.48   927.03
eigval :      927.39   927.43   928.38   928.71   929.30   929.46
eigval :      929.69   930.31   931.16   931.42   949.79   952.89
eigval :      982.42   984.41   991.41  1003.86  1003.98  1008.94
eigval :     1018.82  1022.40  1041.40  1070.57  1076.48  1081.75
eigval :     1081.97  1082.74  1083.07  1083.81  1103.80  1113.07
eigval :     1120.24  1121.46  1122.49  1123.78  1132.55  1134.84
eigval :     1141.40  1143.73  1157.53  1176.69  1177.60  1177.68
eigval :     1178.38  1179.90  1181.63  1184.21  1185.05  1185.79
eigval :     1186.02  1194.13  1195.14  1195.60  1196.73  1204.69
eigval :     1214.27  1215.30  1227.84  1234.62  1245.16  1262.40
eigval :     1268.34  1271.15  1271.37  1276.17  1277.37  1277.80
eigval :     1278.22  1281.75  1287.08  1296.17  1305.09  1308.74
eigval :     1309.44  1309.60  1314.59  1315.04  1317.63  1321.62
eigval :     1322.71  1323.80  1323.93  1325.41  1326.25  1328.42
eigval :     1335.18  1346.86  1369.74  1395.29  1400.36  1401.72
eigval :     1414.48  1416.28  1427.93  1429.80  1434.28  1434.78
eigval :     1435.12  1441.11  1441.80  1455.85  1469.80  1470.29
eigval :     1472.74  1473.19  1474.59  1487.73  1489.00  1495.54
eigval :     1511.43  1534.99  1540.46  1551.64  1555.01  1557.06
eigval :     1563.83  1575.57  1575.71  1579.17  1579.50  1580.61
eigval :     1580.93  1581.81  1587.20  1589.64  1591.44  1591.51
eigval :     1594.54  1597.18  1600.96  1603.23  2357.49  3070.94
eigval :     3071.07  3071.46  3071.56  3071.75  3072.02  3072.40
eigval :     3072.52  3073.35  3073.63  3075.56  3075.62  3080.67
eigval :     3081.33  3081.48  3081.65  3082.12  3082.36  3082.51
eigval :     3083.02  3083.60  3083.68  3084.54  3084.93  3085.19
eigval :     3085.63  3087.66  3088.37  3088.64  3088.92  3089.16
eigval :     3093.43  3093.59  3093.96  3094.18  3094.38  3096.86
eigval :     3100.30  3102.97  3109.93  3113.56  3114.58  3116.38

   temp. (K)  partition function   enthalpy   heat capacity  entropy
                                   cal/mol     cal/K/mol   cal/K/mol   J/K/mol
 298.15  VIB  0.503E+29            33419.928    204.538    213.510
         ROT  0.396E+09              888.752      2.981     42.325
         INT  0.199E+38            34308.680    207.519    255.835
         TR   0.253E+29             1481.254      4.968     46.186
         TOT                       35789.9340   212.4871   302.0216  1263.6582

       T/K    H(0)-H(T)+PV         H(T)/Eh          T*S/Eh         G(T)/Eh
   ------------------------------------------------------------------------
    298.15    0.570349E-01    0.916936E+00    0.143500E+00    0.773435E+00
   ------------------------------------------------------------------------

         :::::::::::::::::::::::::::::::::::::::::::::::::::::
         ::                  THERMODYNAMIC                  ::
         :::::::::::::::::::::::::::::::::::::::::::::::::::::
         :: total free energy        -172.919854406493 Eh   ::
         ::.................................................::
         :: total energy             -173.693289721295 Eh   ::
         :: zero point energy           0.859900616766 Eh   ::
         :: G(RRHO) w/o ZPVE           -0.086465301963 Eh   ::
         :: G(RRHO) contrib.            0.773435314802 Eh   ::
         :::::::::::::::::::::::::::::::::::::::::::::::::::::

           -------------------------------------------------
          | TOTAL ENERGY             -173.693289721295 Eh   |
          | TOTAL ENTHALPY           -172.776354214214 Eh   |
          | TOTAL FREE ENERGY        -172.919854406493 Eh   |
          | GRADIENT NORM               0.000178708756 Eh/α |
          | HOMO-LUMO GAP               1.619153269899 eV   |
           -------------------------------------------------

 * finished run on 2025/08/25 at 05:58:12.471
