   * xtb version 6.7.1 (edcfbbe) compiled by 'albert@albert-system' on 2024-07-22

   ID    Z sym.   atoms
    1    7 N      1, 8, 18, 42, 61
    2    6 C      2-7, 9-17, 19-41, 43-60, 62-69
    3    1 H      70-112

          program call               : xtb data2507/toluene/3,6-TC/3,6-TC_toluene_T1_crest.xyz --gfn 2 --uhf 2 --gbsa toluene --ohess vtight --parallel 40 --molden --ceasefiles --namespace data2507/toluene/3,6-TC/3,6-TC_toluene_T1_finalOpt
      * Solvation model:               GBSA
        Solvent                        toluene
        Solvent mass                       9.2140E+01 g/mol
          :  Hamiltonian                  GFN2-xTB          :
 * total energy  :  -173.6200405 Eh     change       -0.3435702E-08 Eh
 * total energy  :  -173.6201574 Eh     change       -0.1168999E-03 Eh
 * total energy  :  -173.6202066 Eh     change       -0.4922367E-04 Eh
 * total energy  :  -173.6202143 Eh     change       -0.7718090E-05 Eh
 * total energy  :  -173.6202172 Eh     change       -0.2807271E-05 Eh
 * total energy  :  -173.6202249 Eh     change       -0.7744168E-05 Eh
 * total energy  :  -173.6202330 Eh     change       -0.8055271E-05 Eh
 * total energy  :  -173.6202383 Eh     change       -0.5313405E-05 Eh
 * total energy  :  -173.6202464 Eh     change       -0.8135473E-05 Eh
 * total energy  :  -173.6202498 Eh     change       -0.3447865E-05 Eh
 * total energy  :  -173.6202743 Eh     change       -0.5477048E-06 Eh
 * total energy  :  -173.6202747 Eh     change       -0.4220603E-06 Eh
 * total energy  :  -173.6202750 Eh     change       -0.3338881E-06 Eh
 * total energy  :  -173.6202753 Eh     change       -0.3074371E-06 Eh
 * total energy  :  -173.6202757 Eh     change       -0.3630666E-06 Eh
 * total energy  :  -173.6202761 Eh     change       -0.4010560E-06 Eh
 * total energy  :  -173.6202765 Eh     change       -0.4346492E-06 Eh
 * total energy  :  -173.6202768 Eh     change       -0.3041665E-06 Eh
 * total energy  :  -173.6202768 Eh     change       -0.4382457E-08 Eh
   *** GEOMETRY OPTIMIZATION CONVERGED AFTER 44 ITERATIONS ***

 final structure:
================
112
 xtb: 6.7.1 (edcfbbe)
N          -12.70045270640182       -3.16713061285251       -0.06978907868695
C          -11.59721252385088       -2.81915293039605       -0.04751359776774
C          -10.27080590159354       -2.39758763940304       -0.02318868603254
C           -9.22007009406084       -3.29107617741625       -0.33644463019615
C           -7.92558138921450       -2.86578765062974       -0.31817979625050
C           -7.58478773039206       -1.52116641014362       -0.00162654275981
C           -6.21306183664914       -1.17849313578296       -0.01405382009517
N           -5.25517725324838       -2.11204397730594       -0.05956939328540
C           -4.08739070234958       -1.47404153416037        0.00179359797499
C           -2.78695168298905       -2.04576351582122        0.01182200378869
C           -2.60392561252121       -3.43328290723893       -0.02058183729562
C           -1.34383594218791       -3.97778963068596       -0.00159769524637
C           -0.22270774410063       -3.14055450052375        0.06306726858996
C            1.13150766205741       -3.69356724164965        0.07965235172994
C            1.45731110668273       -4.82387478715880       -0.67528248830811
C            2.73861494758717       -5.32739767676842       -0.69034678512401
C            3.74907418765558       -4.72244162865354        0.06415384204454
N            5.04907398087416       -5.21817942724596        0.04086705910176
C            5.27632201402678       -6.59512850356573       -0.09176956514573
C            6.32610676604808       -7.06371129994655       -0.88198498099669
C            6.55052837476480       -8.42155935167006       -1.00342484205089
C            5.73361418660377       -9.32913653983470       -0.34759903531692
C            4.68819927045731       -8.86801016689355        0.43699470770392
C            4.45885090458220       -7.51204846709278        0.56975955696949
C            6.14012868886886       -4.34478778825966        0.14049278080737
C            7.27870697579876       -4.71773489000940        0.85564699948702
C            8.35575058678375       -3.85687593035563        0.94497283132273
C            8.31362090269639       -2.61381060042153        0.33338538350495
C            7.18397448162184       -2.23804133650119       -0.37626522949577
C            6.10522161769374       -3.09491864438567       -0.47942380980896
C            3.42507579588414       -3.60472577826043        0.83985762096463
C            2.14429839571151       -3.10092796440503        0.83983332056924
C           -0.40934113350462       -1.76074719288369        0.09663051878361
C           -1.67405106008768       -1.17244308263511        0.06482337381324
C           -1.87482084373524        0.27108513173210        0.06827692156011
C           -0.80472059759562        1.14902544569590        0.07818762582290
C           -0.94271892582347        2.54208202366368        0.03103645986296
C            0.22037896587860        3.40139904354654        0.03251874472173
C            0.20968903708369        4.65411276990899       -0.60647455102976
C            1.32235079766980        5.45769462184688       -0.63225327008550
C            2.51083421528922        5.05565228947745       -0.00666919136872
N            3.64305157666392        5.85957736588188       -0.04279822206775
C            4.91909515289995        5.28406386970372       -0.08417589669711
C            5.97868207729827        5.87078895936734        0.60977302853546
C            7.23742712811271        5.30358863983372        0.56372948611988
C            7.45937999143994        4.14550477946596       -0.16524112881836
C            6.41010067041413        3.55914039469234       -0.85582420843483
C            5.14889677678131        4.12155214059085       -0.82214574079959
C            3.51671932371172        7.25522102881848       -0.04764039275334
C            2.55218337009811        7.87927283290510        0.74477267862448
C            2.43210169482536        9.25546465627599        0.73524724311888
C            3.26904683958536       10.02736526859259       -0.05562280677378
C            4.23100139892993        9.41166236409846       -0.84138271305858
C            4.35719425785570        8.03604564604818       -0.84217603302176
C            2.52815811379813        3.81950027096226        0.65426232726990
C            1.41538080644451        3.01670737725530        0.66775846441713
C           -2.25450481524570        3.06473202871040       -0.04079570390525
C           -3.33645456770869        2.23941177910958       -0.02352187932184
C           -3.20458225714891        0.82700464823036        0.04532422466971
C           -4.27885842905818       -0.06412565997590        0.06148054640822
N           -5.64931069787479        0.10559100152113        0.05727700450993
C           -6.34936781683485        1.32789609429107        0.03519759493661
C           -7.00489879063057        1.73123272870431       -1.12488456506145
C           -7.69623156424280        2.92906876748959       -1.14127856039599
C           -7.73551584479926        3.72816234943965       -0.00968587334963
C           -7.08078090783908        3.32785955814666        1.14491760040511
C           -6.38818290037154        2.13132782358115        1.17304563037768
C           -8.64602629860848       -0.64467167124476        0.33884536439906
C           -9.94424473536899       -1.06999618398881        0.32807120328578
H           -9.46291807361242       -4.31343395281175       -0.59139047204671
H           -7.11863726339870       -3.54090819451790       -0.55611783369121
H           -3.48542662994008       -4.05535798969212       -0.05370604479061
H           -1.21700114417666       -5.04975373687466       -0.00666060430873
H            0.70137296194412       -5.28787164210547       -1.29079688764704
H            2.97482687845450       -6.18431495957731       -1.30380955430484
H            6.95638826604165       -6.35742326033778       -1.40222389785672
H            7.36366953664323       -8.77363588064056       -1.62094983951835
H            5.91083812832470      -10.38932716611327       -0.44699480190322
H            4.05152069918787       -9.56874489406328        0.95679608023102
H            3.65175228257356       -7.15341074241898        1.19167711574808
H            7.30887312398186       -5.68100657026946        1.34329559058370
H            9.23038621690221       -4.15574259024194        1.50373920720960
H            9.15601692796979       -1.94303651392753        0.40891687410126
H            7.14552549133496       -1.27417349869123       -0.86198891549171
H            5.23268519153828       -2.80719551297506       -1.04730605688217
H            4.18707797998977       -3.14449916189726        1.45141220268937
H            1.91222503171990       -2.25446253548475        1.46856925115829
H            0.47308751683977       -1.14253496289547        0.11560225897980
H            0.19770997831368        0.75488534569893        0.07333136417298
H           -0.67673418355524        4.97413216255214       -1.13238384407911
H            1.29546797559029        6.39944581859473       -1.16062865124198
H            5.80465795190852        6.76585065980479        1.18865290881174
H            8.04854527067130        5.76458909659054        1.10777228606236
H            8.44402638460882        3.70428879491645       -0.19641659993162
H            6.57659676155186        2.66217093240063       -1.43381287558060
H            4.33630696096005        3.67318299056806       -1.37460026104202
H            1.90882077239518        7.27858014183979        1.37086038719585
H            1.68534763166489        9.72891799148826        1.35548992965384
H            3.17235437476566       11.10246168692731       -0.05927689643993
H            4.88287128918759       10.00650197957235       -1.46394690732536
H            5.09949242319943        7.55586540542676       -1.46269475547423
H            3.42325039606376        3.51072911138111        1.17410084003844
H            1.44969938630223        2.08938430811584        1.21873876140239
H           -2.40540442344981        4.13295229023319       -0.07542524729110
H           -4.32528975687063        2.66528638425574       -0.07200989459640
H           -6.97205538614313        1.09782279459153       -1.99951134829546
H           -8.20442904229336        3.23886393983994       -2.04218661843584
H           -8.27756786242922        4.66151144583393       -0.02667281028390
H           -7.11252170884157        3.94658108133389        2.02934216474659
H           -5.87558470110648        1.80792518082188        2.06771337798179
H           -8.43551191034255        0.36819607874843        0.64085480687179
H          -10.74183450450660       -0.39087338571804        0.59708985931252

          :  Hamiltonian                  GFN2-xTB          :
         :: gradient norm              0.000138111393 Eh/a0 ::
         :: HOMO-LUMO gap              0.339076739282 eV    ::
         :: SCC energy              -176.910168471581 Eh    ::
         :: -> dispersion             -0.160385639995 Eh    ::
         :: -> Gsolv                  -0.085679003829 Eh    ::
         :: repulsion energy           3.289891633557 Eh    ::

    * Orbital Energies and Occupations

         #    Occupation            Energy/Eh            Energy/eV
      -------------------------------------------------------------
         1        2.0000           -0.6808264             -18.5262
       ...           ...                  ...                  ...
       151        2.0000           -0.4118322             -11.2065
       152        2.0000           -0.4094296             -11.1411
       153        2.0000           -0.4059107             -11.0454
       154        2.0000           -0.4046554             -11.0112
       155        2.0000           -0.4012384             -10.9183
       156        2.0000           -0.3962068             -10.7813
       157        2.0000           -0.3926721             -10.6852
       158        2.0000           -0.3837806             -10.4432
       159        2.0000           -0.3757830             -10.2256
       160        2.0000           -0.3652523              -9.9390
       161        1.9714           -0.3581826              -9.7466
       162        1.0286           -0.3514815              -9.5643
       163        0.9986           -0.2774228              -7.5491 (HOMO)
       164        0.0014           -0.2649618              -7.2100 (LUMO)
       165                         -0.2490565              -6.7772
       166                         -0.2475538              -6.7363
       167                         -0.2405482              -6.5456
       168                         -0.2393131              -6.5120
       169                         -0.2383379              -6.4855
       170                         -0.2368952              -6.4462
       171                         -0.2356935              -6.4135
       172                         -0.2344531              -6.3798
       173                         -0.2310205              -6.2864
       174                         -0.2299857              -6.2582
       ...                                ...                  ...
       319                          1.1698939              31.8344
      -------------------------------------------------------------
                  HL-Gap            0.0124610 Eh            0.3391 eV

     #   Z          covCN         q      C6AA      α(0)
     1   7 N        0.911    -0.341    28.777     7.758
     2   6 C        1.910     0.103    28.544     8.628
     3   6 C        2.968    -0.013    28.324     8.730
     4   6 C        2.917    -0.030    28.758     8.794
     5   6 C        2.925    -0.036    28.904     8.817
     6   6 C        2.969    -0.019    28.471     8.752
     7   6 C        3.138     0.133    24.877     8.163
     8   7 N        1.884    -0.325    29.289     8.023
     9   6 C        3.170     0.079    25.891     8.313
    10   6 C        2.983    -0.007    28.184     8.708
    11   6 C        2.919    -0.030    28.750     8.793
    12   6 C        2.920    -0.038    28.952     8.824
    13   6 C        2.974     0.012    27.743     8.640
    14   6 C        2.976     0.007    27.850     8.656
    15   6 C        2.923    -0.031    28.780     8.798
    16   6 C        2.919    -0.046    29.135     8.851
    17   6 C        2.924     0.065    26.540     8.448
    18   7 N        2.752    -0.055    22.296     7.013
    19   6 C        2.925     0.064    26.567     8.453
    20   6 C        2.922    -0.044    29.091     8.845
    21   6 C        2.919    -0.028    28.693     8.784
    22   6 C        2.919    -0.034    28.845     8.807
    23   6 C        2.919    -0.028    28.693     8.784
    24   6 C        2.922    -0.044    29.091     8.845
    25   6 C        2.925     0.064    26.567     8.453
    26   6 C        2.922    -0.044    29.097     8.846
    27   6 C        2.919    -0.028    28.694     8.784
    28   6 C        2.919    -0.034    28.856     8.809
    29   6 C        2.919    -0.028    28.696     8.785
    30   6 C        2.922    -0.045    29.106     8.847
    31   6 C        2.919    -0.046    29.142     8.852
    32   6 C        2.923    -0.032    28.802     8.801
    33   6 C        2.928    -0.042    29.041     8.838
    34   6 C        2.976    -0.001    28.052     8.688
    35   6 C        2.974    -0.006    28.172     8.706
    36   6 C        2.926    -0.039    28.981     8.828
    37   6 C        2.970     0.001    27.994     8.679
    38   6 C        2.972     0.007    27.862     8.658
    39   6 C        2.922    -0.034    28.847     8.808
    40   6 C        2.917    -0.045    29.125     8.850
    41   6 C        2.924     0.060    26.650     8.466
    42   7 N        2.752    -0.046    22.128     6.987
    43   6 C        2.925     0.063    26.578     8.454
    44   6 C        2.921    -0.043    29.076     8.843
    45   6 C        2.919    -0.027    28.681     8.782
    46   6 C        2.919    -0.033    28.827     8.805
    47   6 C        2.919    -0.027    28.682     8.782
    48   6 C        2.921    -0.043    29.072     8.842
    49   6 C        2.926     0.063    26.578     8.454
    50   6 C        2.921    -0.043    29.059     8.840
    51   6 C        2.919    -0.027    28.683     8.782
    52   6 C        2.919    -0.033    28.820     8.803
    53   6 C        2.919    -0.027    28.680     8.782
    54   6 C        2.921    -0.043    29.068     8.841
    55   6 C        2.917    -0.045    29.127     8.850
    56   6 C        2.922    -0.035    28.873     8.812
    57   6 C        2.916    -0.040    28.987     8.829
    58   6 C        2.913    -0.042    29.032     8.835
    59   6 C        2.973    -0.018    28.460     8.751
    60   6 C        3.036     0.034    27.198     8.554
    61   7 N        2.819    -0.082    22.826     7.096
    62   6 C        2.910     0.070    26.436     8.431
    63   6 C        2.921    -0.039    28.961     8.825
    64   6 C        2.919    -0.027    28.667     8.780
    65   6 C        2.919    -0.031    28.783     8.798
    66   6 C        2.919    -0.028    28.696     8.785
    67   6 C        2.921    -0.039    28.971     8.827
    68   6 C        2.914    -0.045    29.127     8.850
    69   6 C        2.919    -0.030    28.756     8.794
    70   1 H        0.925     0.022     2.697     2.568
    71   1 H        0.926     0.043     2.404     2.425
    72   1 H        0.926     0.044     2.398     2.422
    73   1 H        0.926     0.038     2.473     2.459
    74   1 H        0.926     0.042     2.423     2.434
    75   1 H        0.926     0.040     2.453     2.449
    76   1 H        0.926     0.038     2.471     2.458
    77   1 H        0.926     0.039     2.459     2.452
    78   1 H        0.926     0.038     2.482     2.463
    79   1 H        0.926     0.039     2.464     2.455
    80   1 H        0.926     0.038     2.473     2.459
    81   1 H        0.926     0.037     2.487     2.466
    82   1 H        0.926     0.039     2.466     2.456
    83   1 H        0.926     0.038     2.475     2.460
    84   1 H        0.926     0.040     2.450     2.448
    85   1 H        0.926     0.039     2.468     2.457
    86   1 H        0.926     0.041     2.432     2.439
    87   1 H        0.926     0.043     2.414     2.430
    88   1 H        0.926     0.044     2.398     2.422
    89   1 H        0.926     0.042     2.417     2.431
    90   1 H        0.926     0.039     2.465     2.455
    91   1 H        0.926     0.038     2.481     2.463
    92   1 H        0.926     0.039     2.468     2.457
    93   1 H        0.926     0.040     2.446     2.445
    94   1 H        0.926     0.040     2.455     2.450
    95   1 H        0.926     0.041     2.437     2.441
    96   1 H        0.926     0.040     2.448     2.447
    97   1 H        0.926     0.040     2.453     2.449
    98   1 H        0.926     0.040     2.447     2.446
    99   1 H        0.926     0.039     2.462     2.454
   100   1 H        0.926     0.041     2.439     2.442
   101   1 H        0.926     0.040     2.454     2.450
   102   1 H        0.926     0.040     2.452     2.449
   103   1 H        0.926     0.041     2.439     2.442
   104   1 H        0.926     0.031     2.568     2.506
   105   1 H        0.926     0.025     2.664     2.552
   106   1 H        0.926     0.034     2.529     2.487
   107   1 H        0.926     0.043     2.410     2.428
   108   1 H        0.926     0.044     2.395     2.420
   109   1 H        0.926     0.044     2.392     2.419
   110   1 H        0.926     0.038     2.472     2.459
   111   1 H        0.926     0.022     2.710     2.574
   112   1 H        0.925     0.019     2.741     2.589

molecular dipole:
                 x           y           z       tot (Debye)
 q only:       10.910       3.079       0.036
   full:       11.150       3.544       0.047      29.739

 projected vibrational frequencies (cm⁻¹)
eigval :       -0.00    -0.00    -0.00     0.00     0.00     0.00
eigval :       -6.57     3.51     7.43     9.00    13.79    16.04
eigval :       19.79    25.70    32.30    37.28    37.59    41.42
eigval :       44.84    48.56    51.79    54.99    58.96    60.42
eigval :       67.65    71.11    74.16    84.62    91.24    93.50
eigval :       97.50   103.47   111.93   116.26   129.47   139.13
eigval :      146.05   159.31   162.72   186.03   198.09   204.27
eigval :      216.73   224.54   229.67   232.60   236.74   243.29
eigval :      254.60   259.87   267.78   296.86   301.57   308.30
eigval :      313.61   330.46   335.30   358.38   360.88   363.49
eigval :      371.07   373.20   376.79   377.19   377.25   379.41
eigval :      379.70   388.29   389.19   397.79   400.98   405.61
eigval :      411.93   414.81   428.55   438.00   449.50   462.00
eigval :      468.53   473.03   486.33   492.47   495.00   507.47
eigval :      509.81   512.39   515.24   531.59   537.42   548.64
eigval :      577.02   581.44   583.40   584.38   584.83   587.36
eigval :      591.37   592.55   593.10   602.37   605.70   610.04
eigval :      610.72   612.21   624.18   640.92   644.91   651.54
eigval :      658.78   660.20   662.62   665.23   666.25   669.73
eigval :      675.69   680.77   685.00   691.79   697.60   713.74
eigval :      718.94   723.69   754.67   756.33   756.90   759.55
eigval :      764.32   769.34   792.97   797.69   801.04   809.05
eigval :      818.80   833.77   834.78   842.54   849.74   856.61
eigval :      862.43   865.75   871.57   872.21   872.77   873.21
eigval :      874.16   893.17   894.91   895.60   896.41   896.78
eigval :      904.03   907.21   908.60   908.95   910.08   910.95
eigval :      912.83   915.96   919.00   920.02   921.40   925.73
eigval :      926.44   927.92   928.07   928.71   929.09   929.37
eigval :      929.68   929.78   930.07   930.69   931.63   937.91
eigval :      977.51   978.29   982.47   992.65  1000.57  1002.41
eigval :     1003.08  1012.73  1027.31  1058.41  1069.75  1076.89
eigval :     1079.67  1080.20  1080.87  1081.26  1089.88  1107.68
eigval :     1115.28  1119.24  1119.30  1121.27  1121.73  1134.16
eigval :     1138.08  1145.68  1147.98  1163.83  1171.34  1175.69
eigval :     1176.86  1178.39  1178.52  1178.63  1179.82  1181.75
eigval :     1183.97  1190.90  1191.81  1192.83  1194.10  1198.05
eigval :     1213.13  1215.56  1222.88  1237.06  1239.79  1254.44
eigval :     1259.90  1269.03  1270.07  1271.52  1273.56  1274.40
eigval :     1274.55  1276.37  1277.73  1288.21  1296.83  1300.70
eigval :     1302.01  1308.05  1310.60  1313.64  1314.22  1317.84
eigval :     1319.14  1319.88  1323.60  1323.70  1326.15  1330.22
eigval :     1332.41  1348.29  1355.06  1362.23  1399.32  1410.05
eigval :     1413.45  1419.74  1426.24  1427.72  1429.84  1430.81
eigval :     1432.82  1435.55  1437.79  1438.18  1446.74  1452.07
eigval :     1459.74  1460.73  1461.90  1463.06  1464.42  1470.06
eigval :     1474.72  1486.74  1505.05  1507.18  1517.86  1532.54
eigval :     1541.53  1546.96  1555.73  1569.03  1571.60  1572.04
eigval :     1573.08  1575.86  1578.49  1582.17  1583.94  1585.43
eigval :     1585.70  1588.21  1590.20  1595.11  2271.71  3064.41
eigval :     3067.51  3076.76  3077.10  3077.18  3077.40  3077.60
eigval :     3077.62  3078.02  3078.17  3078.39  3078.64  3079.31
eigval :     3080.63  3080.85  3082.29  3085.02  3085.03  3085.29
eigval :     3085.89  3086.54  3086.80  3087.29  3088.62  3089.26
eigval :     3089.29  3089.65  3090.15  3091.81  3093.13  3094.17
eigval :     3095.32  3097.32  3097.52  3097.60  3098.11  3098.73
eigval :     3098.88  3104.10  3104.42  3116.62  3117.52  3122.59

   temp. (K)  partition function   enthalpy   heat capacity  entropy
                                   cal/mol     cal/K/mol   cal/K/mol   J/K/mol
 298.15  VIB  0.213E+30            33705.483    206.109    216.087
         ROT  0.395E+09              888.752      2.981     42.318
         INT  0.842E+38            34594.236    209.090    258.405
         TR   0.253E+29             1481.254      4.968     46.186
         TOT                       36075.4897   214.0584   304.5914  1274.4103

       T/K    H(0)-H(T)+PV         H(T)/Eh          T*S/Eh         G(T)/Eh
   ------------------------------------------------------------------------
    298.15    0.574900E-01    0.913586E+00    0.144721E+00    0.768865E+00
   ------------------------------------------------------------------------

         :::::::::::::::::::::::::::::::::::::::::::::::::::::
         ::                  THERMODYNAMIC                  ::
         :::::::::::::::::::::::::::::::::::::::::::::::::::::
         :: total free energy        -172.851411682851 Eh   ::
         ::.................................................::
         :: total energy             -173.620276842935 Eh   ::
         :: zero point energy           0.856096392940 Eh   ::
         :: G(RRHO) w/o ZPVE           -0.087231232856 Eh   ::
         :: G(RRHO) contrib.            0.768865160084 Eh   ::
         :::::::::::::::::::::::::::::::::::::::::::::::::::::

           -------------------------------------------------
          | TOTAL ENERGY             -173.620276842935 Eh   |
          | TOTAL ENTHALPY           -172.706690497694 Eh   |
          | TOTAL FREE ENERGY        -172.851411682851 Eh   |
          | GRADIENT NORM               0.000139120954 Eh/α |
          | HOMO-LUMO GAP               0.339079957031 eV   |
           -------------------------------------------------

 * finished run on 2025/08/25 at 06:19:54.251
