   * xtb version 6.7.1 (edcfbbe) compiled by 'albert@albert-system' on 2024-07-22

   ID    Z sym.   atoms
    1    7 N      1, 7, 13, 28
    2    6 C      2-6, 8-12, 14-27, 29-44
    3    1 H      45-68

          program call               : xtb data2507/toluene/CBPMCN/CBPMCN.xyz --gfn 2 --gbsa toluene --ohess vtight --parallel 40 --molden --ceasefiles --namespace data2507/toluene/CBPMCN/CBPMCN_toluene_S0_preOpt
      * Solvation model:               GBSA
        Solvent                        toluene
        Solvent mass                       9.2140E+01 g/mol
          :  Hamiltonian                  GFN2-xTB          :
 * total energy  :  -109.6600380 Eh     change       -0.1592298E-08 Eh
 * total energy  :  -109.6729589 Eh     change       -0.1292094E-01 Eh
 * total energy  :  -109.6759314 Eh     change       -0.2972475E-02 Eh
 * total energy  :  -109.6765479 Eh     change       -0.6165436E-03 Eh
 * total energy  :  -109.6768965 Eh     change       -0.3485617E-03 Eh
 * total energy  :  -109.6770458 Eh     change       -0.1493031E-03 Eh
 * total energy  :  -109.6771854 Eh     change       -0.1395905E-03 Eh
 * total energy  :  -109.6773066 Eh     change       -0.1212022E-03 Eh
 * total energy  :  -109.6774258 Eh     change       -0.1192502E-03 Eh
 * total energy  :  -109.6775512 Eh     change       -0.1253228E-03 Eh
 * total energy  :  -109.6796948 Eh     change       -0.3966800E-06 Eh
 * total energy  :  -109.6796952 Eh     change       -0.4296670E-06 Eh
 * total energy  :  -109.6796957 Eh     change       -0.4806666E-06 Eh
 * total energy  :  -109.6796962 Eh     change       -0.5449397E-06 Eh
 * total energy  :  -109.6796968 Eh     change       -0.6076787E-06 Eh
 * total energy  :  -109.6796975 Eh     change       -0.6607664E-06 Eh
 * total energy  :  -109.6796982 Eh     change       -0.6990652E-06 Eh
 * total energy  :  -109.6796989 Eh     change       -0.6983524E-06 Eh
 * total energy  :  -109.6796989 Eh     change       -0.2309804E-08 Eh
   *** GEOMETRY OPTIMIZATION CONVERGED AFTER 94 ITERATIONS ***

 final structure:
================
68
 xtb: 6.7.1 (edcfbbe)
N            0.20219808125470        6.63586873808915       -0.25969282632805
C           -0.21157437756775        5.56692663512456       -0.20735527067050
C           -0.71956023948268        4.24966865184103       -0.14476800260533
C           -0.38201414724741        3.42361454244005        0.92923301400662
C           -0.87402096462781        2.13560236632449        0.98456713429323
C           -1.70623078430290        1.66346316987736       -0.02816835122340
N           -2.15982104327567        0.33412071012273        0.01343752283695
C           -1.33249366120511       -0.77200043988322        0.01111573761038
C            0.12034361818629       -0.69974693456706       -0.03570143672309
C            0.79172041806582        0.19817807246312       -0.86458728522024
C            2.17061285729382        0.24182850125559       -0.87775422936957
C            2.90976928471718       -0.60646081487674       -0.05565807869243
N            4.30685038317927       -0.53481711868910       -0.04839849232174
C            5.17806840599779       -1.60168987690274       -0.17002480613363
C            4.90659212670048       -2.94635303836199       -0.38016160964952
C            5.97875908137546       -3.81112884222056       -0.49550547076981
C            7.29325310901775       -3.35567085616411       -0.41634665745615
C            7.56970040481012       -2.01512216978267       -0.23378283562495
C            6.50852591392594       -1.12664023978847       -0.11438252242227
C            6.42798241432517        0.29804707683600        0.05539137321460
C            7.38137719622715        1.29901811216514        0.19242976288380
C            6.95458822063866        2.60075615417108        0.36663183773684
C            5.59658051544967        2.90769223959134        0.42097932781023
C            4.62985760366331        1.92870461445323        0.28830196366284
C            5.05219464223708        0.62213451291046        0.08634578199462
C            2.24293771336908       -1.52486339159601        0.75403194223510
C            0.86467995469756       -1.57678908447986        0.75340451854985
N           -2.00670883115627       -1.89156145481116        0.03403721970217
C           -3.32169659710117       -1.53889542842703        0.04657576263393
C           -4.45502648474968       -2.39948304472889        0.02080687401455
C           -4.31059261480246       -3.79042748003276       -0.03084817264800
C           -5.41666991983026       -4.60060734430839       -0.09974120496322
C           -6.68599227703405       -4.02519040887777       -0.12313060449017
C           -6.84011868712402       -2.65954127514526       -0.06509330077722
C           -5.73482803885766       -1.79798177717071        0.01780846505916
C           -5.86575535060775       -0.35427140246211        0.11931505116871
C           -7.12051787309319        0.26538016534936        0.21538717911559
C           -7.25383635289893        1.62635229162479        0.35954923050575
C           -6.12368952389875        2.43480528325148        0.43388912549798
C           -4.87652437263110        1.86837580164475        0.33602854274602
C           -4.71890295955528        0.48642104956633        0.15607234493282
C           -3.45072604836606       -0.15203901339983        0.04719965496981
C           -2.04434043137978        2.48858284497330       -1.10100794499660
C           -1.55624484265895        3.77731600775676       -1.15942467719740
H            0.26123419069195        3.79654124293613        1.71184229213303
H           -0.61859118153142        1.48761145380685        1.80915740092802
H            0.23795409705783        0.84562371055034       -1.52747883156152
H            2.68386980358658        0.92280107746076       -1.53971244857214
H            3.89296304116030       -3.30809864170486       -0.46314312834879
H            5.79290725067289       -4.86324518902464       -0.65542316357270
H            8.10400264536172       -4.06337923603025       -0.50889746967650
H            8.58831646229487       -1.65958501295109       -0.18982117666612
H            8.43381642463398        1.05905240459820        0.16748499064272
H            7.67963954338456        3.39448399505660        0.47154603498894
H            5.29188272402168        3.93300996547459        0.57320594232372
H            3.58087488543813        2.17667023771879        0.34978429232617
H            2.81099876066083       -2.18199869252535        1.39472748047589
H            0.34218048805160       -2.28547951836027        1.37719282977972
H           -3.31024147472523       -4.19582345093550       -0.02308998753703
H           -5.30844999189368       -5.67438325988183       -0.14187877077354
H           -7.55926830524557       -4.65829051981303       -0.18723136395128
H           -7.84124314423417       -2.25981974466342       -0.09004139882099
H           -8.01655419518497       -0.33297559403437        0.18880818718136
H           -8.23742075080837        2.06680024874661        0.43054403647044
H           -6.22491989106465        3.50085615016483        0.57419229228124
H           -4.00362764454084        2.49627418248462        0.41648937102908
H           -2.68749418860596        2.11049323816832       -1.88190500722507
H           -1.81153807080639        4.42128384759577       -1.98735599073569

          :  Hamiltonian                  GFN2-xTB          :
         :: gradient norm              0.000043656151 Eh/a0 ::
         :: HOMO-LUMO gap              1.968723974216 eV    ::
         :: SCC energy              -111.764167575775 Eh    ::
         :: -> dispersion             -0.098555071012 Eh    ::
         :: -> Gsolv                  -0.048480010987 Eh    ::
         :: repulsion energy           2.084468694680 Eh    ::

    * Orbital Energies and Occupations

         #    Occupation            Energy/Eh            Energy/eV
      -------------------------------------------------------------
         1        2.0000           -0.6983280             -19.0025
       ...           ...                  ...                  ...
        90        2.0000           -0.4232646             -11.5176
        91        2.0000           -0.4222832             -11.4909
        92        2.0000           -0.4205217             -11.4430
        93        2.0000           -0.4186172             -11.3912
        94        2.0000           -0.4151153             -11.2959
        95        2.0000           -0.4146242             -11.2825
        96        2.0000           -0.4070065             -11.0752
        97        2.0000           -0.4053697             -11.0307
        98        2.0000           -0.3889194             -10.5830
        99        2.0000           -0.3872132             -10.5366
       100        2.0000           -0.3804651             -10.3530
       101        2.0000           -0.3745506             -10.1920
       102        2.0000           -0.3638711              -9.9014 (HOMO)
       103                         -0.2915218              -7.9327 (LUMO)
       104                         -0.2665261              -7.2525
       105                         -0.2605065              -7.0887
       106                         -0.2546915              -6.9305
       107                         -0.2502916              -6.8108
       108                         -0.2451639              -6.6712
       109                         -0.2399364              -6.5290
       110                         -0.2238143              -6.0903
       111                         -0.2223676              -6.0509
       112                         -0.2188843              -5.9561
       113                         -0.2006359              -5.4596
       ...                                ...                  ...
       200                          1.1513755              31.3305
      -------------------------------------------------------------
                  HL-Gap            0.0723493 Eh            1.9687 eV

     #   Z          covCN         q      C6AA      α(0)
     1   7 N        0.911    -0.256    26.655     7.467
     2   6 C        1.912     0.120    28.150     8.569
     3   6 C        2.973     0.020    27.565     8.612
     4   6 C        2.926    -0.015    28.376     8.736
     5   6 C        2.920    -0.034    28.856     8.809
     6   6 C        2.912     0.076    26.301     8.410
     7   7 N        2.840    -0.050    22.201     6.998
     8   6 C        3.188     0.133    24.664     8.102
     9   6 C        2.973    -0.005    28.143     8.702
    10   6 C        2.922    -0.034    28.845     8.808
    11   6 C        2.921    -0.043    29.056     8.840
    12   6 C        2.912     0.067    26.501     8.441
    13   7 N        2.801    -0.042    22.055     6.975
    14   6 C        3.072     0.046    26.887     8.502
    15   6 C        2.910    -0.052    29.281     8.873
    16   6 C        2.924    -0.034    28.851     8.808
    17   6 C        2.920    -0.042    29.033     8.836
    18   6 C        2.912    -0.034    28.851     8.808
    19   6 C        3.067    -0.017    28.373     8.734
    20   6 C        3.066    -0.017    28.369     8.734
    21   6 C        2.912    -0.034    28.848     8.807
    22   6 C        2.920    -0.042    29.033     8.836
    23   6 C        2.923    -0.034    28.859     8.810
    24   6 C        2.910    -0.052    29.285     8.874
    25   6 C        3.073     0.046    26.895     8.503
    26   6 C        2.920    -0.041    29.012     8.833
    27   6 C        2.926    -0.026    28.662     8.780
    28   7 N        1.893    -0.306    28.772     7.952
    29   6 C        3.205     0.060    26.085     8.318
    30   6 C        2.985    -0.002    28.062     8.690
    31   6 C        2.921    -0.033    28.815     8.803
    32   6 C        2.917    -0.031    28.765     8.795
    33   6 C        2.917    -0.033    28.819     8.803
    34   6 C        2.921    -0.036    28.889     8.814
    35   6 C        2.979    -0.003    28.102     8.696
    36   6 C        2.979     0.000    28.014     8.682
    37   6 C        2.922    -0.034    28.847     8.808
    38   6 C        2.916    -0.033    28.813     8.802
    39   6 C        2.917    -0.032    28.788     8.798
    40   6 C        2.919    -0.041    29.020     8.834
    41   6 C        2.978    -0.004    28.125     8.699
    42   6 C        3.069     0.020    27.499     8.599
    43   6 C        2.919    -0.032    28.805     8.801
    44   6 C        2.925    -0.016    28.401     8.740
    45   1 H        0.926     0.058     2.223     2.331
    46   1 H        0.926     0.054     2.275     2.359
    47   1 H        0.926     0.035     2.519     2.482
    48   1 H        0.926     0.049     2.338     2.391
    49   1 H        0.926     0.032     2.557     2.501
    50   1 H        0.926     0.032     2.558     2.501
    51   1 H        0.926     0.030     2.592     2.517
    52   1 H        0.926     0.032     2.558     2.501
    53   1 H        0.926     0.032     2.552     2.498
    54   1 H        0.926     0.030     2.591     2.517
    55   1 H        0.926     0.031     2.573     2.508
    56   1 H        0.926     0.028     2.614     2.528
    57   1 H        0.926     0.053     2.286     2.365
    58   1 H        0.926     0.053     2.282     2.362
    59   1 H        0.926     0.045     2.377     2.411
    60   1 H        0.926     0.034     2.523     2.484
    61   1 H        0.926     0.034     2.531     2.488
    62   1 H        0.926     0.037     2.493     2.469
    63   1 H        0.926     0.040     2.454     2.450
    64   1 H        0.926     0.035     2.519     2.482
    65   1 H        0.926     0.033     2.542     2.493
    66   1 H        0.926     0.027     2.624     2.533
    67   1 H        0.926     0.058     2.220     2.330
    68   1 H        0.926     0.059     2.212     2.326

molecular dipole:
                 x           y           z       tot (Debye)
 q only:       -0.526      -0.451       0.072
   full:       -0.858      -0.468       0.081       2.492

 projected vibrational frequencies (cm⁻¹)
eigval :       -0.00    -0.00    -0.00     0.00     0.00     0.00
eigval :        9.26    15.79    19.61    26.32    32.13    45.93
eigval :       58.36    62.97    74.47    84.05    93.32   102.99
eigval :      109.73   120.35   123.64   129.69   146.88   171.25
eigval :      176.98   203.34   213.05   219.81   245.18   260.40
eigval :      264.53   269.16   277.43   299.97   341.26   368.50
eigval :      371.57   378.38   382.79   391.72   399.13   406.48
eigval :      413.94   422.48   425.18   434.29   437.47   463.65
eigval :      467.38   498.94   514.95   518.01   523.29   532.28
eigval :      533.51   535.78   539.70   548.45   574.44   582.33
eigval :      585.78   596.23   607.08   615.89   640.22   643.47
eigval :      652.79   669.92   671.84   674.59   681.68   690.19
eigval :      697.27   704.85   709.90   733.89   739.13   756.72
eigval :      765.19   768.87   777.86   779.79   783.31   807.55
eigval :      822.51   826.71   862.42   866.28   868.79   873.86
eigval :      876.36   879.03   897.25   901.94   902.57   907.03
eigval :      915.32   917.25   919.38   920.62   923.35   925.29
eigval :      927.34   928.99   929.52   934.37   938.83   972.55
eigval :     1004.86  1011.13  1015.12  1030.26  1066.89  1069.90
eigval :     1073.23  1085.06  1106.94  1116.29  1127.24  1130.31
eigval :     1133.98  1150.00  1152.00  1169.65  1175.59  1178.87
eigval :     1181.04  1181.15  1181.86  1183.77  1201.40  1203.09
eigval :     1228.93  1234.98  1242.78  1253.15  1255.40  1257.63
eigval :     1263.80  1281.74  1295.95  1298.67  1301.87  1308.08
eigval :     1315.44  1322.07  1337.01  1343.72  1355.09  1359.25
eigval :     1364.42  1371.80  1397.76  1405.08  1406.16  1416.50
eigval :     1425.65  1426.56  1428.10  1433.99  1471.90  1473.69
eigval :     1482.00  1485.91  1511.85  1514.86  1543.76  1549.86
eigval :     1556.28  1563.28  1567.84  1573.61  1580.91  1586.97
eigval :     1591.67  1592.91  1596.81  1603.28  1611.59  2365.69
eigval :     3071.99  3072.10  3072.95  3075.63  3077.95  3078.74
eigval :     3082.25  3085.27  3085.55  3086.34  3087.59  3091.09
eigval :     3092.01  3092.85  3093.52  3094.36  3098.40  3099.46
eigval :     3100.78  3101.55  3103.68  3104.21  3111.02  3112.99

   temp. (K)  partition function   enthalpy   heat capacity  entropy
                                   cal/mol     cal/K/mol   cal/K/mol   J/K/mol
 298.15  VIB  0.433E+15            19310.170    124.612    119.179
         ROT  0.677E+08              888.752      2.981     38.814
         INT  0.294E+23            20198.922    127.593    157.993
         TR   0.128E+29             1481.254      4.968     44.836
         TOT                       21680.1761   132.5609   202.8288   848.6358

       T/K    H(0)-H(T)+PV         H(T)/Eh          T*S/Eh         G(T)/Eh
   ------------------------------------------------------------------------
    298.15    0.345496E-01    0.546026E+00    0.963705E-01    0.449655E+00
   ------------------------------------------------------------------------

         :::::::::::::::::::::::::::::::::::::::::::::::::::::
         ::                  THERMODYNAMIC                  ::
         :::::::::::::::::::::::::::::::::::::::::::::::::::::
         :: total free energy        -109.230043384350 Eh   ::
         ::.................................................::
         :: total energy             -109.679698878754 Eh   ::
         :: zero point energy           0.511476455876 Eh   ::
         :: G(RRHO) w/o ZPVE           -0.061820961472 Eh   ::
         :: G(RRHO) contrib.            0.449655494404 Eh   ::
         :::::::::::::::::::::::::::::::::::::::::::::::::::::

           -------------------------------------------------
          | TOTAL ENERGY             -109.679698878754 Eh   |
          | TOTAL ENTHALPY           -109.133672863034 Eh   |
          | TOTAL FREE ENERGY        -109.230043384350 Eh   |
          | GRADIENT NORM               0.000043642563 Eh/α |
          | HOMO-LUMO GAP               1.968724220687 eV   |
           -------------------------------------------------

 * finished run on 2025/09/09 at 04:40:23.362
