   * xtb version 6.7.1 (edcfbbe) compiled by 'albert@albert-system' on 2024-07-22

   ID    Z sym.   atoms
    1    7 N      1, 7, 13, 28
    2    6 C      2-6, 8-12, 14-27, 29-44
    3    1 H      45-68

          program call               : xtb data2507/toluene/CBPMCN/CBPMCN_toluene_T1_crest.xyz --gfn 2 --uhf 2 --gbsa toluene --ohess vtight --parallel 40 --molden --ceasefiles --namespace data2507/toluene/CBPMCN/CBPMCN_toluene_T1_finalOpt
      * Solvation model:               GBSA
        Solvent                        toluene
        Solvent mass                       9.2140E+01 g/mol
          :  Hamiltonian                  GFN2-xTB          :
 * total energy  :  -109.5973055 Eh     change       -0.1975110E-08 Eh
 * total energy  :  -109.5973512 Eh     change       -0.4570826E-04 Eh
 * total energy  :  -109.5973656 Eh     change       -0.1432210E-04 Eh
 * total energy  :  -109.5973460 Eh     change        0.1954562E-04 Eh
 * total energy  :  -109.5973660 Eh     change       -0.1997071E-04 Eh
 * total energy  :  -109.5973649 Eh     change        0.1123845E-05 Eh
 * total energy  :  -109.5973710 Eh     change       -0.6104575E-05 Eh
 * total energy  :  -109.5973717 Eh     change       -0.7710433E-06 Eh
 * total energy  :  -109.5973727 Eh     change       -0.9970443E-06 Eh
 * total energy  :  -109.5973739 Eh     change       -0.1114778E-05 Eh
 * total energy  :  -109.5973757 Eh     change       -0.4362968E-06 Eh
 * total energy  :  -109.5973760 Eh     change       -0.2589715E-06 Eh
 * total energy  :  -109.5973762 Eh     change       -0.2597723E-06 Eh
 * total energy  :  -109.5973766 Eh     change       -0.3702834E-06 Eh
 * total energy  :  -109.5973770 Eh     change       -0.3854926E-06 Eh
 * total energy  :  -109.5973774 Eh     change       -0.3637047E-06 Eh
 * total energy  :  -109.5973778 Eh     change       -0.4164619E-06 Eh
 * total energy  :  -109.5973782 Eh     change       -0.4433217E-06 Eh
 * total energy  :  -109.5973782 Eh     change       -0.3168395E-08 Eh
   *** GEOMETRY OPTIMIZATION CONVERGED AFTER 22 ITERATIONS ***

 final structure:
================
68
 xtb: 6.7.1 (edcfbbe)
N           -0.34518813096494        6.86655531881314       -0.62973881423987
C           -0.66150996553664        5.76231768221078       -0.52019427541585
C           -1.04303357698103        4.42257468804391       -0.38746871613942
C           -0.57526468716637        3.65458657751566        0.69438673114656
C           -0.93921360501230        2.33790080904425        0.81659542476106
C           -1.79608663352423        1.74645003765071       -0.12832620737691
N           -2.13658290904979        0.40288787834504       -0.00845784938904
C           -1.21374844520954       -0.65115638701020        0.17843184835743
C            0.18871560681533       -0.59036797316900        0.09504014954229
C            0.93153390282122        0.45860484275398       -0.51297193149364
C            2.29800702096582        0.43120420228700       -0.53479844809900
C            3.01243380412510       -0.64191253369963        0.02641534796509
N            4.39900214397471       -0.64193429301620        0.02502826819119
C            5.21466635713408       -1.70551186046925       -0.32096771801219
C            4.87372201661804       -2.96073733156980       -0.80825810247999
C            5.90057620714641       -3.83524632846715       -1.11607981428543
C            7.23573174919009       -3.47214400942880       -0.95972005468835
C            7.58251518484226       -2.20996105356509       -0.50911259852035
C            6.56975326622254       -1.31792051274227       -0.19276618629636
C            6.56348988970972        0.04920885814493        0.25969410018185
C            7.56700634166864        0.94910600152680        0.58327840792792
C            7.20740489009762        2.21057932241784        1.02572941518504
C            5.86839248445653        2.56641129629286        1.16552555765237
C            4.85074499887948        1.68349486167289        0.85142588764877
C            5.20491712845238        0.42800022367939        0.37453601474276
C            2.28991156466207       -1.72114956962979        0.57483185804738
C            0.92700440030765       -1.69778161764718        0.60402019137772
N           -1.85757761153897       -1.82156362062316        0.35259264017408
C           -3.14991540123194       -1.57050571433484        0.21171619027849
C           -4.22123402181680       -2.51117942365726        0.21375137262019
C           -3.97055864542671       -3.88220000882116        0.31710649229909
C           -5.00773583803228       -4.78727409961681        0.25462891665237
C           -6.30394554925446       -4.32126784494320        0.07427435140994
C           -6.56285603580606       -2.96673108707403       -0.01716806645646
C           -5.53752364993728       -2.01763648875113        0.06461250561201
C           -5.78097180639032       -0.58162195961505        0.03177338072724
C           -7.07680038480495       -0.06591397541766        0.04494405687435
C           -7.33100504376148        1.29150165501691        0.07387153816022
C           -6.27175733325429        2.19535206087439        0.12144433033220
C           -4.98111196820267        1.73478890326029        0.09933143205120
C           -4.69214628598460        0.35260357334307        0.02764560691201
C           -3.38667448662937       -0.17268408191811        0.01367845776032
C           -2.26765568049221        2.51419695780360       -1.20655637366254
C           -1.89539161431127        3.82787389773520       -1.33768696917145
H            0.06801386599315        4.11564610278659        1.42952094861193
H           -0.58422036166082        1.74634291591918        1.64734096377738
H            0.41767081869931        1.25622520291425       -1.02310558012848
H            2.84146315456373        1.21805849584313       -1.03651667362624
H            3.84417932696252       -3.24407366866064       -0.96095310909194
H            5.66012247283610       -4.81830597561497       -1.49236381835940
H            8.00985425457819       -4.18256125058426       -1.20832949561567
H            8.61790295229007       -1.92152005630041       -0.41218968610730
H            8.60533458002051        0.66794311861178        0.49723601448061
H            7.97392491602363        2.92751087509752        1.27915702849301
H            5.61741706508718        3.55048102720506        1.53250516621586
H            3.81748971250040        1.96252688969177        0.98799995717473
H            2.82876451788410       -2.54320857659690        1.02044046665945
H            0.36700907003631       -2.50522234633983        1.04738778646225
H           -2.94667237050964       -4.20142050886622        0.43543788248355
H           -4.81563755601878       -5.84662002532084        0.33430632626901
H           -7.12267275969599       -5.02279615626559        0.00625137920744
H           -7.58465333652935       -2.65519439307713       -0.16218061805087
H           -7.92042014307378       -0.73681940857681        0.04936210227800
H           -8.34955800437769        1.64901778078295        0.08045158981851
H           -6.46492101248671        3.25628763189705        0.18134536256276
H           -4.16889124068922        2.43938865912986        0.16518765029598
H           -2.90999142204918        2.05193982531893       -1.94203932555898
H           -2.24402032835331        4.41442653336039       -2.17506508281456

          :  Hamiltonian                  GFN2-xTB          :
         :: gradient norm              0.000046329317 Eh/a0 ::
         :: HOMO-LUMO gap              0.498409174874 eV    ::
         :: SCC energy              -111.661272622537 Eh    ::
         :: -> dispersion             -0.098314513421 Eh    ::
         :: -> Gsolv                  -0.050671215033 Eh    ::
         :: repulsion energy           2.063894393074 Eh    ::

    * Orbital Energies and Occupations

         #    Occupation            Energy/Eh            Energy/eV
      -------------------------------------------------------------
         1        2.0000           -0.6929787             -18.8569
       ...           ...                  ...                  ...
        91        2.0000           -0.4224854             -11.4964
        92        2.0000           -0.4183666             -11.3843
        93        2.0000           -0.4165541             -11.3350
        94        2.0000           -0.4163235             -11.3287
        95        2.0000           -0.4159076             -11.3174
        96        2.0000           -0.4092422             -11.1360
        97        2.0000           -0.4007398             -10.9047
        98        2.0000           -0.3905918             -10.6285
        99        2.0000           -0.3897128             -10.6046
       100        2.0000           -0.3872390             -10.5373
       101        1.9999           -0.3805264             -10.3547
       102        1.0001           -0.3633239              -9.8865
       103        0.9999           -0.2852660              -7.7625 (HOMO)
       104        0.0001           -0.2669499              -7.2641 (LUMO)
       105                         -0.2573084              -7.0017
       106                         -0.2559746              -6.9654
       107                         -0.2522553              -6.8642
       108                         -0.2393000              -6.5117
       109                         -0.2344514              -6.3797
       110                         -0.2312795              -6.2934
       111                         -0.2209539              -6.0125
       112                         -0.2069537              -5.6315
       113                         -0.2013620              -5.4793
       114                         -0.1983545              -5.3975
       ...                                ...                  ...
       200                          1.1608543              31.5885
      -------------------------------------------------------------
                  HL-Gap            0.0183160 Eh            0.4984 eV

     #   Z          covCN         q      C6AA      α(0)
     1   7 N        0.911    -0.316    28.130     7.671
     2   6 C        1.911     0.107    28.446     8.613
     3   6 C        2.970    -0.006    28.166     8.705
     4   6 C        2.922    -0.025    28.636     8.775
     5   6 C        2.917    -0.043    29.066     8.841
     6   6 C        2.908     0.052    26.826     8.493
     7   7 N        2.810    -0.054    22.279     7.010
     8   6 C        3.147     0.122    25.086     8.194
     9   6 C        2.968    -0.005    28.146     8.702
    10   6 C        2.914    -0.039    28.975     8.827
    11   6 C        2.914    -0.039    28.978     8.827
    12   6 C        2.911     0.053    26.819     8.492
    13   7 N        2.798    -0.005    21.353     6.863
    14   6 C        3.068     0.045    26.932     8.509
    15   6 C        2.909    -0.043    29.056     8.839
    16   6 C        2.923    -0.031    28.772     8.796
    17   6 C        2.920    -0.033    28.824     8.804
    18   6 C        2.912    -0.029    28.729     8.789
    19   6 C        3.064    -0.011    28.215     8.710
    20   6 C        3.063    -0.011    28.216     8.711
    21   6 C        2.912    -0.029    28.731     8.789
    22   6 C        2.920    -0.033    28.825     8.804
    23   6 C        2.923    -0.031    28.774     8.797
    24   6 C        2.909    -0.042    29.051     8.838
    25   6 C        3.069     0.044    26.935     8.510
    26   6 C        2.913    -0.040    29.000     8.831
    27   6 C        2.925    -0.031    28.781     8.798
    28   7 N        1.879    -0.307    28.817     7.958
    29   6 C        3.169     0.082    25.817     8.302
    30   6 C        2.983    -0.004    28.117     8.698
    31   6 C        2.922    -0.027    28.669     8.780
    32   6 C        2.916    -0.030    28.751     8.793
    33   6 C        2.917    -0.026    28.664     8.779
    34   6 C        2.922    -0.034    28.843     8.807
    35   6 C        2.977     0.002    27.981     8.677
    36   6 C        2.977    -0.001    28.041     8.686
    37   6 C        2.920    -0.032    28.806     8.801
    38   6 C        2.916    -0.032    28.786     8.798
    39   6 C        2.914    -0.030    28.758     8.794
    40   6 C        2.918    -0.038    28.943     8.822
    41   6 C        2.973    -0.008    28.221     8.714
    42   6 C        3.036     0.033    27.218     8.557
    43   6 C        2.916    -0.043    29.059     8.840
    44   6 C        2.922    -0.027    28.679     8.782
    45   1 H        0.926     0.035     2.514     2.479
    46   1 H        0.926     0.035     2.512     2.479
    47   1 H        0.926     0.036     2.508     2.476
    48   1 H        0.926     0.046     2.367     2.406
    49   1 H        0.926     0.044     2.390     2.418
    50   1 H        0.926     0.042     2.423     2.434
    51   1 H        0.926     0.041     2.438     2.442
    52   1 H        0.926     0.043     2.409     2.427
    53   1 H        0.926     0.044     2.402     2.423
    54   1 H        0.926     0.040     2.443     2.444
    55   1 H        0.926     0.040     2.453     2.449
    56   1 H        0.926     0.040     2.445     2.445
    57   1 H        0.926     0.053     2.285     2.364
    58   1 H        0.926     0.060     2.200     2.319
    59   1 H        0.926     0.052     2.299     2.371
    60   1 H        0.926     0.041     2.432     2.439
    61   1 H        0.926     0.041     2.429     2.437
    62   1 H        0.926     0.042     2.418     2.432
    63   1 H        0.926     0.043     2.413     2.429
    64   1 H        0.926     0.037     2.483     2.464
    65   1 H        0.926     0.034     2.533     2.489
    66   1 H        0.926     0.033     2.541     2.493
    67   1 H        0.926     0.038     2.475     2.460
    68   1 H        0.926     0.034     2.526     2.485

molecular dipole:
                 x           y           z       tot (Debye)
 q only:        1.293      -3.063       0.208
   full:        0.904      -3.018       0.173       8.019

 projected vibrational frequencies (cm⁻¹)
eigval :       -0.00    -0.00    -0.00     0.00     0.00     0.00
eigval :       10.24    11.68    16.76    25.09    32.94    43.02
eigval :       59.48    60.48    69.25    85.75   101.97   105.44
eigval :      113.14   122.06   130.67   132.41   154.70   177.50
eigval :      180.95   198.60   202.56   220.17   251.47   256.82
eigval :      264.79   270.47   275.91   296.98   323.24   361.73
eigval :      376.20   378.74   380.86   393.88   394.80   400.77
eigval :      401.50   414.27   419.16   423.35   436.73   438.13
eigval :      458.03   475.44   493.59   506.56   513.96   524.20
eigval :      524.92   532.73   534.89   541.97   569.22   577.33
eigval :      582.08   588.59   594.84   610.52   617.81   633.44
eigval :      639.14   656.28   663.43   667.75   668.91   673.45
eigval :      674.57   698.08   710.25   724.89   730.39   752.92
eigval :      754.56   765.53   771.40   774.16   775.18   793.41
eigval :      805.98   811.48   840.07   844.76   852.33   863.35
eigval :      868.74   871.05   894.32   895.90   900.49   902.50
eigval :      903.28   910.19   910.80   911.52   914.04   915.91
eigval :      919.28   919.80   920.47   924.74   928.72   942.67
eigval :      986.15   991.38  1001.17  1009.56  1048.30  1068.17
eigval :     1071.21  1081.44  1091.65  1103.13  1110.76  1127.96
eigval :     1132.89  1135.54  1142.99  1154.12  1167.58  1173.33
eigval :     1175.55  1176.89  1178.75  1181.70  1193.66  1203.42
eigval :     1223.42  1226.07  1234.62  1237.86  1246.26  1250.10
eigval :     1255.45  1256.76  1277.10  1282.23  1288.71  1310.70
eigval :     1316.99  1323.06  1330.29  1332.71  1340.07  1347.70
eigval :     1356.69  1359.90  1384.04  1394.33  1407.66  1412.03
eigval :     1412.14  1418.84  1421.14  1425.91  1442.13  1450.99
eigval :     1454.89  1459.86  1466.22  1468.66  1475.43  1477.99
eigval :     1510.01  1537.48  1548.18  1552.92  1558.77  1565.60
eigval :     1574.03  1576.39  1576.63  1589.47  1597.32  2293.97
eigval :     3076.81  3076.84  3078.00  3079.54  3080.69  3081.34
eigval :     3085.52  3087.23  3087.34  3088.27  3088.48  3088.73
eigval :     3091.62  3092.00  3094.72  3096.43  3100.05  3101.14
eigval :     3102.54  3104.16  3111.24  3113.65  3118.87  3124.34

   temp. (K)  partition function   enthalpy   heat capacity  entropy
                                   cal/mol     cal/K/mol   cal/K/mol   J/K/mol
 298.15  VIB  0.701E+15            19528.267    126.241    120.287
         ROT  0.704E+08              888.752      2.981     38.891
         INT  0.494E+23            20417.019    129.222    159.179
         TR   0.128E+29             1481.254      4.968     44.836
         TOT                       21898.2732   134.1900   204.0148   853.5979

       T/K    H(0)-H(T)+PV         H(T)/Eh          T*S/Eh         G(T)/Eh
   ------------------------------------------------------------------------
    298.15    0.348971E-01    0.542400E+00    0.969340E-01    0.445466E+00
   ------------------------------------------------------------------------

         :::::::::::::::::::::::::::::::::::::::::::::::::::::
         ::                  THERMODYNAMIC                  ::
         :::::::::::::::::::::::::::::::::::::::::::::::::::::
         :: total free energy        -109.151912260209 Eh   ::
         ::.................................................::
         :: total energy             -109.597378233480 Eh   ::
         :: zero point energy           0.507502869927 Eh   ::
         :: G(RRHO) w/o ZPVE           -0.062036896656 Eh   ::
         :: G(RRHO) contrib.            0.445465973271 Eh   ::
         :::::::::::::::::::::::::::::::::::::::::::::::::::::

           -------------------------------------------------
          | TOTAL ENERGY             -109.597378233480 Eh   |
          | TOTAL ENTHALPY           -109.054978243949 Eh   |
          | TOTAL FREE ENERGY        -109.151912260209 Eh   |
          | GRADIENT NORM               0.000050045691 Eh/α |
          | HOMO-LUMO GAP               0.498404226144 eV   |
           -------------------------------------------------

 * finished run on 2025/09/09 at 04:47:05.776
