   * xtb version 6.7.1 (edcfbbe) compiled by 'albert@albert-system' on 2024-07-22

   ID    Z sym.   atoms
    1    7 N      1, 7, 13, 28
    2    6 C      2-6, 8-12, 14-27, 29-44
    3    1 H      45-68

          program call               : xtb data2507/toluene/CBPMCN/CBPMCN_toluene_S0_crest.xyz --gfn 2 --gbsa toluene --ohess vtight --parallel 40 --molden --ceasefiles --namespace data2507/toluene/CBPMCN/CBPMCN_toluene_S0_finalOpt
      * Solvation model:               GBSA
        Solvent                        toluene
        Solvent mass                       9.2140E+01 g/mol
          :  Hamiltonian                  GFN2-xTB          :
 * total energy  :  -109.6796458 Eh     change       -0.1340567E-08 Eh
 * total energy  :  -109.6796791 Eh     change       -0.3329475E-04 Eh
 * total energy  :  -109.6796429 Eh     change        0.3616098E-04 Eh
 * total energy  :  -109.6797031 Eh     change       -0.6017251E-04 Eh
 * total energy  :  -109.6797097 Eh     change       -0.6609589E-05 Eh
 * total energy  :  -109.6797169 Eh     change       -0.7227136E-05 Eh
 * total energy  :  -109.6797207 Eh     change       -0.3822446E-05 Eh
 * total energy  :  -109.6797229 Eh     change       -0.2174966E-05 Eh
 * total energy  :  -109.6797237 Eh     change       -0.8293322E-06 Eh
 * total energy  :  -109.6797242 Eh     change       -0.4610705E-06 Eh
 * total energy  :  -109.6797254 Eh     change       -0.1179134E-06 Eh
 * total energy  :  -109.6797255 Eh     change       -0.1376691E-06 Eh
 * total energy  :  -109.6797256 Eh     change       -0.1339223E-06 Eh
 * total energy  :  -109.6797258 Eh     change       -0.1124522E-06 Eh
 * total energy  :  -109.6797258 Eh     change        0.5995474E-08 Eh
 * total energy  :  -109.6797257 Eh     change        0.4501182E-07 Eh
 * total energy  :  -109.6797254 Eh     change        0.2615825E-06 Eh
 * total energy  :  -109.6797259 Eh     change       -0.4223553E-06 Eh
 * total energy  :  -109.6797259 Eh     change       -0.7195767E-07 Eh
   *** GEOMETRY OPTIMIZATION CONVERGED AFTER 24 ITERATIONS ***

 final structure:
================
68
 xtb: 6.7.1 (edcfbbe)
N            0.31484159359006        6.58679865302253       -0.39670643714790
C           -0.10744559108074        5.52224716103350       -0.32629925274130
C           -0.62704917287554        4.21069730211014       -0.24207737749562
C           -0.31380889609733        3.40660782829941        0.85570312401467
C           -0.81990353910812        2.12522482325628        0.93387345210557
C           -1.64174146219215        1.63777942113982       -0.08008036196361
N           -2.11342078150518        0.31555620653533       -0.01365469993348
C           -1.30449564759320       -0.80381853207023        0.01492126214651
C            0.14933698942380       -0.76460374330857       -0.01859251889258
C            0.85467081581574        0.12525075461923       -0.82790945959505
C            2.23440699140142        0.13121845757647       -0.82465125764301
C            2.94073935311552       -0.75010250269135       -0.00875718661763
N            4.33933142625782       -0.71917379619157        0.01286081763238
C            5.18002845535516       -1.80756629321402       -0.12876023704455
C            4.87065518004996       -3.13776107880137       -0.37529917454337
C            5.91782645313454       -4.03037123093238       -0.50644637397470
C            7.24447108294871       -3.61568656067196       -0.40723407566626
C            7.55872438996728       -2.28924342847586       -0.18656832243654
C            6.52324667204945       -1.37326982550072       -0.05041700079691
C            6.48252449346080        0.04809671185137        0.15700414419536
C            7.46271854333783        1.01705189645557        0.33025473185321
C            7.07167081727083        2.32552076975078        0.53536082918569
C            5.72258166801506        2.67074217568219        0.58296853318715
C            4.72952798453425        1.72427640992662        0.41414499467480
C            5.11645176734524        0.41151056968088        0.18356018581152
C            2.24008272217560       -1.66165939751694        0.77978876990326
C            0.86122244552099       -1.67314527322144        0.76569171757528
N           -1.99848775459375       -1.91124575118032        0.05788431556591
C           -3.30687137633018       -1.53675692210319        0.05304781044050
C           -4.45401851722730       -2.37914670301611        0.04100369753022
C           -4.33193860377885       -3.77303145481281        0.02226004295788
C           -5.45074667237313       -4.56658424153514       -0.03291055430527
C           -6.71034655700509       -3.97128055487878       -0.07575559633617
C           -6.84248042789554       -2.60233147979371       -0.05011488577901
C           -5.72366814272976       -1.75716069890934        0.01855643827338
C           -5.83112696763624       -0.30951106451035        0.08614313242019
C           -7.07608462338467        0.33213247928842        0.16296213706286
C           -7.18828216548330        1.69832565313650        0.27193341442021
C           -6.04555247297341        2.49017719177616        0.33003175876766
C           -4.80727888936065        1.90166869392695        0.25153688869722
C           -4.67080404031229        0.51316312208592        0.10786286488387
C           -3.41259566342354       -0.14818929284430        0.02145481810118
C           -1.95457845274183        2.44054841305060       -1.17737792504458
C           -1.45253408364356        3.72269102583428       -1.25853122743539
H            0.32128814202229        3.79160200761567        1.63910521577013
H           -0.58390446261351        1.49461952781983        1.77752216339606
H            0.32774354025906        0.79615834145681       -1.48909065147021
H            2.77372853763048        0.80823891688460       -1.46976516231014
H            3.84728980562365       -3.46681980679646       -0.47376476225766
H            5.70258201084934       -5.07202844002273       -0.69536509566451
H            8.03499567548657       -4.34399095126449       -0.51396191186726
H            8.58702180649815       -1.96533138022073       -0.12657573430268
H            8.50808058838193        0.74751465073412        0.30969243304357
H            7.81828567479942        3.09446821034087        0.66949188536553
H            5.44619747671183        3.70028718951552        0.75884334064498
H            3.68721471262566        2.00059573648100        0.46973407706561
H            2.78299291363486       -2.34526862340101        1.41460624496382
H            0.31188685921004       -2.37514049365968        1.37366984368690
H           -3.33830446639201       -4.19410157851015        0.04386127476474
H           -5.35996746304367       -5.64267178436940       -0.04955346705723
H           -7.59357069338157       -4.59141895148983       -0.12951842262339
H           -7.83682977733566       -2.18716463167354       -0.08960486397155
H           -7.98138031446556       -0.25251860370236        0.14804369206372
H           -8.16495669477408        2.15595397514181        0.32840090435659
H           -6.12991411813393        3.56101470532845        0.44232530410931
H           -3.92502437187836        2.51765437382033        0.32001300222091
H           -2.59021001828428        2.05057422712112       -1.95862908704027
H           -1.68845952415796        4.34921971529065       -2.10539852550093

          :  Hamiltonian                  GFN2-xTB          :
         :: gradient norm              0.000051652715 Eh/a0 ::
         :: HOMO-LUMO gap              1.963270349285 eV    ::
         :: SCC energy              -111.764147369861 Eh    ::
         :: -> dispersion             -0.098488904282 Eh    ::
         :: -> Gsolv                  -0.048470578397 Eh    ::
         :: repulsion energy           2.084421427151 Eh    ::

    * Orbital Energies and Occupations

         #    Occupation            Energy/Eh            Energy/eV
      -------------------------------------------------------------
         1        2.0000           -0.6982705             -19.0009
       ...           ...                  ...                  ...
        90        2.0000           -0.4231567             -11.5147
        91        2.0000           -0.4222905             -11.4911
        92        2.0000           -0.4204918             -11.4422
        93        2.0000           -0.4185662             -11.3898
        94        2.0000           -0.4150673             -11.2946
        95        2.0000           -0.4146318             -11.2827
        96        2.0000           -0.4069420             -11.0735
        97        2.0000           -0.4053154             -11.0292
        98        2.0000           -0.3888609             -10.5814
        99        2.0000           -0.3872229             -10.5369
       100        2.0000           -0.3804018             -10.3513
       101        2.0000           -0.3745428             -10.1918
       102        2.0000           -0.3637438              -9.8980 (HOMO)
       103                         -0.2915949              -7.9347 (LUMO)
       104                         -0.2670211              -7.2660
       105                         -0.2605991              -7.0913
       106                         -0.2547039              -6.9308
       107                         -0.2502362              -6.8093
       108                         -0.2451929              -6.6720
       109                         -0.2397721              -6.5245
       110                         -0.2237381              -6.0882
       111                         -0.2224054              -6.0520
       112                         -0.2185570              -5.9472
       113                         -0.2005094              -5.4561
       ...                                ...                  ...
       200                          1.1513512              31.3299
      -------------------------------------------------------------
                  HL-Gap            0.0721489 Eh            1.9633 eV

     #   Z          covCN         q      C6AA      α(0)
     1   7 N        0.911    -0.256    26.653     7.467
     2   6 C        1.912     0.120    28.151     8.569
     3   6 C        2.973     0.020    27.564     8.612
     4   6 C        2.926    -0.014    28.374     8.735
     5   6 C        2.920    -0.034    28.852     8.808
     6   6 C        2.911     0.076    26.299     8.409
     7   7 N        2.840    -0.050    22.201     6.998
     8   6 C        3.187     0.133    24.676     8.105
     9   6 C        2.973    -0.005    28.142     8.702
    10   6 C        2.922    -0.034    28.852     8.808
    11   6 C        2.921    -0.042    29.054     8.839
    12   6 C        2.912     0.067    26.501     8.441
    13   7 N        2.802    -0.042    22.059     6.976
    14   6 C        3.072     0.046    26.886     8.502
    15   6 C        2.910    -0.052    29.281     8.873
    16   6 C        2.924    -0.034    28.851     8.808
    17   6 C        2.920    -0.042    29.035     8.836
    18   6 C        2.912    -0.034    28.852     8.808
    19   6 C        3.067    -0.017    28.374     8.735
    20   6 C        3.066    -0.017    28.371     8.734
    21   6 C        2.912    -0.034    28.848     8.807
    22   6 C        2.920    -0.042    29.035     8.836
    23   6 C        2.924    -0.034    28.859     8.810
    24   6 C        2.910    -0.052    29.285     8.874
    25   6 C        3.073     0.046    26.894     8.503
    26   6 C        2.920    -0.041    29.008     8.832
    27   6 C        2.926    -0.026    28.662     8.780
    28   7 N        1.893    -0.306    28.771     7.952
    29   6 C        3.205     0.060    26.088     8.320
    30   6 C        2.985    -0.002    28.063     8.690
    31   6 C        2.921    -0.033    28.815     8.803
    32   6 C        2.917    -0.031    28.765     8.795
    33   6 C        2.917    -0.033    28.819     8.803
    34   6 C        2.921    -0.036    28.889     8.814
    35   6 C        2.979    -0.003    28.101     8.696
    36   6 C        2.979     0.000    28.013     8.682
    37   6 C        2.922    -0.034    28.847     8.808
    38   6 C        2.916    -0.033    28.813     8.802
    39   6 C        2.917    -0.032    28.787     8.798
    40   6 C        2.919    -0.041    29.022     8.834
    41   6 C        2.978    -0.004    28.126     8.699
    42   6 C        3.069     0.020    27.498     8.598
    43   6 C        2.919    -0.032    28.805     8.801
    44   6 C        2.925    -0.016    28.401     8.740
    45   1 H        0.926     0.058     2.222     2.331
    46   1 H        0.926     0.054     2.274     2.358
    47   1 H        0.926     0.035     2.518     2.481
    48   1 H        0.926     0.048     2.340     2.392
    49   1 H        0.926     0.032     2.560     2.502
    50   1 H        0.926     0.032     2.559     2.502
    51   1 H        0.926     0.030     2.592     2.518
    52   1 H        0.926     0.032     2.559     2.501
    53   1 H        0.926     0.032     2.554     2.499
    54   1 H        0.926     0.030     2.592     2.518
    55   1 H        0.926     0.031     2.574     2.509
    56   1 H        0.926     0.028     2.613     2.528
    57   1 H        0.926     0.053     2.288     2.366
    58   1 H        0.926     0.054     2.273     2.357
    59   1 H        0.926     0.045     2.377     2.411
    60   1 H        0.926     0.035     2.523     2.484
    61   1 H        0.926     0.034     2.531     2.488
    62   1 H        0.926     0.037     2.493     2.469
    63   1 H        0.926     0.040     2.454     2.450
    64   1 H        0.926     0.035     2.519     2.482
    65   1 H        0.926     0.033     2.543     2.494
    66   1 H        0.926     0.027     2.624     2.533
    67   1 H        0.926     0.058     2.220     2.330
    68   1 H        0.926     0.059     2.212     2.326

molecular dipole:
                 x           y           z       tot (Debye)
 q only:       -0.541      -0.444       0.075
   full:       -0.870      -0.454       0.079       2.503

 projected vibrational frequencies (cm⁻¹)
eigval :       -0.00    -0.00    -0.00    -0.00    -0.00    -0.00
eigval :       10.03    14.77    18.70    25.94    32.23    44.97
eigval :       56.60    57.91    72.33    81.66    92.68   102.81
eigval :      109.46   119.95   123.64   129.88   145.89   170.53
eigval :      176.52   203.08   212.18   219.34   245.85   260.12
eigval :      263.71   270.76   276.76   299.26   341.74   368.52
eigval :      370.32   379.21   382.37   392.06   398.58   406.13
eigval :      414.21   423.15   425.08   433.22   437.11   463.91
eigval :      466.76   498.20   514.70   517.87   523.05   532.30
eigval :      534.19   534.52   541.16   547.16   574.35   582.15
eigval :      585.56   596.09   607.14   615.69   640.06   643.41
eigval :      652.34   669.53   672.31   674.49   680.90   689.71
eigval :      697.18   706.70   710.47   733.00   739.03   756.62
eigval :      764.94   768.68   777.37   779.81   782.46   806.96
eigval :      820.75   824.08   862.20   864.83   865.83   873.34
eigval :      875.16   878.14   897.25   902.17   902.77   907.39
eigval :      911.79   915.30   919.36   920.57   923.26   925.05
eigval :      926.42   926.74   927.72   933.29   938.69   972.46
eigval :     1004.74  1011.17  1014.97  1029.91  1066.58  1069.05
eigval :     1072.43  1084.51  1106.32  1115.46  1125.19  1129.77
eigval :     1133.99  1149.44  1150.44  1169.22  1174.40  1177.50
eigval :     1179.22  1180.16  1181.00  1182.78  1200.91  1202.95
eigval :     1228.22  1234.23  1242.57  1252.06  1254.50  1256.93
eigval :     1263.75  1281.19  1295.87  1298.67  1301.85  1307.90
eigval :     1315.97  1322.47  1336.78  1343.69  1354.91  1359.26
eigval :     1364.79  1371.49  1397.16  1404.89  1406.05  1416.26
eigval :     1425.70  1426.54  1427.92  1433.80  1471.53  1473.42
eigval :     1481.59  1485.81  1511.50  1514.38  1542.62  1549.28
eigval :     1556.30  1563.12  1567.52  1573.56  1580.45  1586.92
eigval :     1591.38  1592.71  1596.97  1603.11  1612.02  2365.76
eigval :     3071.54  3072.06  3072.58  3074.28  3077.40  3078.52
eigval :     3082.50  3084.75  3085.01  3086.64  3088.74  3090.40
eigval :     3091.82  3092.94  3093.03  3094.48  3097.70  3099.82
eigval :     3099.99  3101.23  3103.20  3104.90  3111.23  3114.15

   temp. (K)  partition function   enthalpy   heat capacity  entropy
                                   cal/mol     cal/K/mol   cal/K/mol   J/K/mol
 298.15  VIB  0.549E+15            19340.402    124.529    119.463
         ROT  0.681E+08              888.752      2.981     38.823
         INT  0.374E+23            20229.155    127.510    158.287
         TR   0.128E+29             1481.254      4.968     44.836
         TOT                       21710.4087   132.4782   203.1232   849.8673

       T/K    H(0)-H(T)+PV         H(T)/Eh          T*S/Eh         G(T)/Eh
   ------------------------------------------------------------------------
    298.15    0.345977E-01    0.545889E+00    0.965104E-01    0.449379E+00
   ------------------------------------------------------------------------

         :::::::::::::::::::::::::::::::::::::::::::::::::::::
         ::                  THERMODYNAMIC                  ::
         :::::::::::::::::::::::::::::::::::::::::::::::::::::
         :: total free energy        -109.230347076230 Eh   ::
         ::.................................................::
         :: total energy             -109.679725942049 Eh   ::
         :: zero point energy           0.511291499493 Eh   ::
         :: G(RRHO) w/o ZPVE           -0.061912633675 Eh   ::
         :: G(RRHO) contrib.            0.449378865818 Eh   ::
         :::::::::::::::::::::::::::::::::::::::::::::::::::::

           -------------------------------------------------
          | TOTAL ENERGY             -109.679725942049 Eh   |
          | TOTAL ENTHALPY           -109.133836704031 Eh   |
          | TOTAL FREE ENERGY        -109.230347076230 Eh   |
          | GRADIENT NORM               0.000051665018 Eh/α |
          | HOMO-LUMO GAP               1.963271410734 eV   |
           -------------------------------------------------

 * finished run on 2025/09/09 at 04:43:35.825
