   * xtb version 6.7.1 (edcfbbe) compiled by 'albert@albert-system' on 2024-07-22

   ID    Z sym.   atoms
    1    7 N      1, 7, 13, 28
    2    6 C      2-6, 8-12, 14-27, 29-44
    3    1 H      45-68

          program call               : xtb data2507/toluene/CBPMCN/CBPMCN_toluene_S0_finalOpt.xtbopt.xyz --gfn 2 --uhf 2 --gbsa toluene --ohess vtight --parallel 40 --molden --ceasefiles --namespace data2507/toluene/CBPMCN/CBPMCN_toluene_T1_preOpt
      * Solvation model:               GBSA
        Solvent                        toluene
        Solvent mass                       9.2140E+01 g/mol
          :  Hamiltonian                  GFN2-xTB          :
 * total energy  :  -109.5869713 Eh     change       -0.3384798E-08 Eh
 * total energy  :  -109.5919565 Eh     change       -0.4985169E-02 Eh
 * total energy  :  -109.5943078 Eh     change       -0.2351286E-02 Eh
 * total energy  :  -109.5950157 Eh     change       -0.7079504E-03 Eh
 * total energy  :  -109.5956565 Eh     change       -0.6407169E-03 Eh
 * total energy  :  -109.5959849 Eh     change       -0.3284850E-03 Eh
 * total energy  :  -109.5962395 Eh     change       -0.2545340E-03 Eh
 * total energy  :  -109.5964234 Eh     change       -0.1839750E-03 Eh
 * total energy  :  -109.5965358 Eh     change       -0.1123593E-03 Eh
 * total energy  :  -109.5966266 Eh     change       -0.9083391E-04 Eh
 * total energy  :  -109.5973554 Eh     change       -0.3553778E-05 Eh
 * total energy  :  -109.5973588 Eh     change       -0.3432997E-05 Eh
 * total energy  :  -109.5973621 Eh     change       -0.3231628E-05 Eh
 * total energy  :  -109.5973651 Eh     change       -0.3023128E-05 Eh
 * total energy  :  -109.5973679 Eh     change       -0.2804650E-05 Eh
 * total energy  :  -109.5973704 Eh     change       -0.2533382E-05 Eh
 * total energy  :  -109.5973727 Eh     change       -0.2217300E-05 Eh
 * total energy  :  -109.5973745 Eh     change       -0.1878277E-05 Eh
 * total energy  :  -109.5973745 Eh     change       -0.5925585E-08 Eh
   *** GEOMETRY OPTIMIZATION CONVERGED AFTER 68 ITERATIONS ***

 final structure:
================
68
 xtb: 6.7.1 (edcfbbe)
N           -0.03683390838834        6.85179890483937       -0.61692285839162
C           -0.40398904698651        5.76300788573164       -0.51059068536349
C           -0.84713566829097        4.44217709625979       -0.38117603782126
C           -0.40785263156139        3.64780484036593        0.69363512595225
C           -0.83307046092361        2.34957533636989        0.81346110051595
C           -1.72600389079154        1.80382241367748       -0.12586681433742
N           -2.12802705352690        0.47768645619340       -0.00653221620562
C           -1.25058768271854       -0.61165334691198        0.19429273021874
C            0.15328682900829       -0.60220072739159        0.10681831355553
C            0.92238287115568        0.39709425113848       -0.54952252365690
C            2.28689678837331        0.32716786615322       -0.57939366710579
C            2.97359076311725       -0.73740185691464        0.03140240668643
N            4.35931037893005       -0.77383208650475        0.02847399835024
C            5.14788379915028       -1.87911849034564       -0.24403966009189
C            4.77677238583699       -3.15637525091293       -0.64469106654996
C            5.78176012960755       -4.07551422346998       -0.88796485254581
C            7.12556407801708       -3.73602813602126       -0.75445448572091
C            7.50306550466428       -2.45419585122245       -0.39310504006963
C            6.51238401955429       -1.51775153377705       -0.14190218831023
C            6.54141647648955       -0.12276847381745        0.21367299227573
C            7.56901293306103        0.77100744179729        0.47211124676745
C            7.24382041908195        2.06899159978575        0.82660955621967
C            5.91479330729442        2.46752076937657        0.94445016140965
C            4.87379913221183        1.59117421172464        0.69509843779249
C            5.19321583254834        0.29720975835440        0.30376780825763
C            2.22256386875756       -1.76877173370511        0.63158067673779
C            0.86046038124290       -1.70770145107698        0.65982117286442
N           -1.94089017512786       -1.75250513274181        0.38069431020416
C           -3.22177611235577       -1.45006626648870        0.23156411110564
C           -4.33044552378129       -2.34628065308611        0.23105265119594
C           -4.13677755494223       -3.72617353860776        0.33960358157278
C           -5.20940677545858       -4.58836298959638        0.26895039639122
C           -6.48372916409293       -4.07077805326374        0.07409637111988
C           -6.68653193305406       -2.70695735773613       -0.02199383459732
C           -5.62441938782300       -1.80031996562401        0.06922019782234
C           -5.80952764785581       -0.35564679974535        0.03326016671871
C           -7.08329137289166        0.21221271033420        0.04586333659098
C           -7.28182376682225        1.57906283194847        0.07123701111614
C           -6.18651678889922        2.43893832726899        0.11529179435902
C           -4.91564203177066        1.92614938045364        0.09454406808960
C           -4.68354045672482        0.53314275819249        0.02751306330736
C           -3.40067901879602       -0.04533509314334        0.01956385031548
C           -2.16700566472341        2.59728133801150       -1.19856819345974
C           -1.73337497184974        3.89218321651919       -1.32746612976217
H            0.26191308920794        4.07462304041210        1.42583639268535
H           -0.50102306161425        1.73899983770507        1.63991140124496
H            0.42756017169470        1.18533051374010       -1.09247478558837
H            2.84892063977453        1.07087432146269       -1.12420132916938
H            3.74120763152593       -3.42511166745934       -0.78166653063520
H            5.51679285083682       -5.07621096737442       -1.19492123562445
H            7.88171093591099       -4.48142764401426       -0.95033553053705
H            8.54509035395968       -2.18462745302929       -0.31461035902728
H            8.59932516170319        0.45741036480857        0.40364278816220
H            8.02931612635526        2.78196920946232        1.02759203057725
H            5.68990926859829        3.48064467196397        1.24297846582445
H            3.84922702806166        1.90645419616436        0.81678400174335
H            2.73885480560978       -2.58275234361762        1.11669865933095
H            0.27967896446610       -2.47947078513475        1.13877456173737
H           -3.12785778793332       -4.08664581857425        0.46776906983493
H           -5.06115144903686       -5.65444523958927        0.35224499813966
H           -7.32933268596034       -4.73879425390793       -0.00187973152212
H           -7.69297398869725       -2.35409559781053       -0.17933880522796
H           -7.95351239585073       -0.42383351388463        0.05375258078997
H           -8.28487823960767        1.97805510206441        0.07784108000699
H           -6.33620539279115        3.50701971979379        0.17221172047759
H           -4.07535310919117        2.59717608472670        0.15903371467634
H           -2.83444724520030        2.16869052945702       -1.93209093888301
H           -2.05931489844947        4.49797703477758       -2.16026421656937

          :  Hamiltonian                  GFN2-xTB          :
         :: gradient norm              0.000071383987 Eh/a0 ::
         :: HOMO-LUMO gap              0.500460461734 eV    ::
         :: SCC energy              -111.661234005319 Eh    ::
         :: -> dispersion             -0.098391625918 Eh    ::
         :: -> Gsolv                  -0.050760596816 Eh    ::
         :: repulsion energy           2.063859461747 Eh    ::

    * Orbital Energies and Occupations

         #    Occupation            Energy/Eh            Energy/eV
      -------------------------------------------------------------
         1        2.0000           -0.6930957             -18.8601
       ...           ...                  ...                  ...
        91        2.0000           -0.4226063             -11.4997
        92        2.0000           -0.4184196             -11.3858
        93        2.0000           -0.4165763             -11.3356
        94        2.0000           -0.4162748             -11.3274
        95        2.0000           -0.4157809             -11.3140
        96        2.0000           -0.4093554             -11.1391
        97        2.0000           -0.4005728             -10.9001
        98        2.0000           -0.3906390             -10.6298
        99        2.0000           -0.3896851             -10.6039
       100        2.0000           -0.3874012             -10.5417
       101        1.9999           -0.3806349             -10.3576
       102        1.0001           -0.3633368              -9.8869
       103        0.9999           -0.2851519              -7.7594 (HOMO)
       104        0.0001           -0.2667602              -7.2589 (LUMO)
       105                         -0.2572893              -7.0012
       106                         -0.2560039              -6.9662
       107                         -0.2522060              -6.8629
       108                         -0.2393569              -6.5132
       109                         -0.2345459              -6.3823
       110                         -0.2312598              -6.2929
       111                         -0.2212174              -6.0196
       112                         -0.2070209              -5.6333
       113                         -0.2011831              -5.4745
       114                         -0.1983925              -5.3985
       ...                                ...                  ...
       200                          1.1608904              31.5894
      -------------------------------------------------------------
                  HL-Gap            0.0183917 Eh            0.5005 eV

     #   Z          covCN         q      C6AA      α(0)
     1   7 N        0.911    -0.317    28.143     7.673
     2   6 C        1.911     0.107    28.448     8.614
     3   6 C        2.970    -0.006    28.171     8.706
     4   6 C        2.922    -0.025    28.636     8.776
     5   6 C        2.917    -0.043    29.071     8.842
     6   6 C        2.908     0.052    26.830     8.493
     7   7 N        2.810    -0.053    22.271     7.009
     8   6 C        3.149     0.122    25.071     8.190
     9   6 C        2.968    -0.005    28.143     8.702
    10   6 C        2.915    -0.039    28.961     8.825
    11   6 C        2.915    -0.040    28.984     8.828
    12   6 C        2.911     0.053    26.814     8.491
    13   7 N        2.798    -0.005    21.346     6.862
    14   6 C        3.067     0.044    26.936     8.510
    15   6 C        2.909    -0.043    29.057     8.839
    16   6 C        2.923    -0.031    28.772     8.796
    17   6 C        2.920    -0.033    28.822     8.804
    18   6 C        2.912    -0.029    28.729     8.789
    19   6 C        3.064    -0.010    28.213     8.710
    20   6 C        3.063    -0.010    28.214     8.710
    21   6 C        2.912    -0.029    28.731     8.789
    22   6 C        2.920    -0.033    28.822     8.804
    23   6 C        2.922    -0.031    28.775     8.797
    24   6 C        2.910    -0.042    29.051     8.838
    25   6 C        3.068     0.044    26.939     8.511
    26   6 C        2.913    -0.040    29.004     8.831
    27   6 C        2.924    -0.031    28.777     8.797
    28   7 N        1.878    -0.307    28.818     7.958
    29   6 C        3.171     0.082    25.810     8.299
    30   6 C        2.983    -0.004    28.115     8.698
    31   6 C        2.922    -0.027    28.670     8.781
    32   6 C        2.916    -0.030    28.751     8.793
    33   6 C        2.917    -0.026    28.664     8.779
    34   6 C        2.922    -0.034    28.844     8.807
    35   6 C        2.977     0.002    27.981     8.677
    36   6 C        2.977    -0.001    28.042     8.686
    37   6 C        2.920    -0.032    28.806     8.801
    38   6 C        2.916    -0.032    28.787     8.798
    39   6 C        2.914    -0.030    28.758     8.794
    40   6 C        2.918    -0.038    28.944     8.822
    41   6 C        2.973    -0.008    28.220     8.714
    42   6 C        3.036     0.033    27.223     8.558
    43   6 C        2.916    -0.043    29.065     8.841
    44   6 C        2.922    -0.027    28.681     8.782
    45   1 H        0.926     0.035     2.518     2.481
    46   1 H        0.926     0.035     2.519     2.482
    47   1 H        0.926     0.035     2.511     2.478
    48   1 H        0.926     0.047     2.361     2.403
    49   1 H        0.926     0.045     2.385     2.415
    50   1 H        0.926     0.042     2.421     2.433
    51   1 H        0.926     0.041     2.437     2.441
    52   1 H        0.926     0.043     2.408     2.427
    53   1 H        0.926     0.044     2.400     2.423
    54   1 H        0.926     0.040     2.442     2.444
    55   1 H        0.926     0.040     2.454     2.450
    56   1 H        0.926     0.040     2.443     2.444
    57   1 H        0.926     0.053     2.279     2.361
    58   1 H        0.926     0.059     2.208     2.324
    59   1 H        0.926     0.052     2.299     2.371
    60   1 H        0.926     0.041     2.432     2.438
    61   1 H        0.926     0.042     2.429     2.437
    62   1 H        0.926     0.042     2.417     2.431
    63   1 H        0.926     0.043     2.413     2.429
    64   1 H        0.926     0.037     2.484     2.464
    65   1 H        0.926     0.034     2.533     2.489
    66   1 H        0.926     0.033     2.539     2.492
    67   1 H        0.926     0.038     2.474     2.460
    68   1 H        0.926     0.034     2.528     2.486

molecular dipole:
                 x           y           z       tot (Debye)
 q only:        1.177      -3.104       0.201
   full:        0.787      -3.045       0.162       8.005

 projected vibrational frequencies (cm⁻¹)
eigval :       -0.00     0.00     0.00     0.00     0.00     0.00
eigval :       12.99    13.75    18.94    28.01    34.27    45.64
eigval :       60.79    62.73    72.98    89.06   105.06   107.68
eigval :      114.67   124.07   130.85   135.01   157.36   178.17
eigval :      182.14   200.60   203.36   221.07   251.26   256.41
eigval :      266.20   273.33   277.41   298.34   323.12   361.88
eigval :      376.21   379.12   380.57   394.85   395.33   400.72
eigval :      402.56   414.92   419.89   424.08   437.67   438.70
eigval :      458.09   476.62   494.25   506.99   514.24   524.61
eigval :      525.66   535.15   535.51   544.66   569.37   577.68
eigval :      581.83   588.80   595.43   610.59   618.55   633.73
eigval :      639.22   657.78   663.19   668.14   669.32   674.76
eigval :      675.22   698.22   710.73   725.89   730.53   753.18
eigval :      754.87   771.75   772.49   774.48   781.57   794.01
eigval :      807.41   811.14   839.05   846.54   854.63   863.97
eigval :      871.41   872.64   894.40   895.12   904.32   905.10
eigval :      906.24   910.47   911.73   912.81   918.47   919.64
eigval :      920.15   921.47   922.31   931.16   932.78   942.95
eigval :      985.91   991.46  1001.27  1009.64  1048.62  1068.62
eigval :     1072.19  1081.78  1092.12  1102.98  1111.29  1128.30
eigval :     1133.21  1136.10  1143.74  1153.99  1167.53  1173.80
eigval :     1175.45  1176.64  1177.35  1180.60  1192.96  1203.46
eigval :     1224.20  1225.78  1235.02  1238.19  1245.82  1249.46
eigval :     1255.41  1257.74  1276.85  1282.70  1289.30  1310.47
eigval :     1316.95  1322.91  1329.93  1332.14  1340.24  1347.56
eigval :     1356.77  1360.19  1384.09  1394.42  1408.29  1412.08
eigval :     1412.39  1418.47  1421.69  1426.45  1441.33  1450.59
eigval :     1454.89  1459.79  1465.75  1468.88  1475.11  1478.21
eigval :     1509.82  1537.19  1548.05  1552.89  1558.86  1565.81
eigval :     1573.55  1576.02  1576.45  1589.85  1597.43  2293.53
eigval :     3076.38  3076.47  3077.60  3079.85  3080.43  3081.39
eigval :     3086.13  3087.27  3087.50  3088.03  3088.49  3088.77
eigval :     3092.14  3095.00  3095.46  3096.62  3100.45  3101.18
eigval :     3102.90  3103.25  3111.10  3112.93  3115.52  3124.10

   temp. (K)  partition function   enthalpy   heat capacity  entropy
                                   cal/mol     cal/K/mol   cal/K/mol   J/K/mol
 298.15  VIB  0.270E+15            19449.724    126.294    119.154
         ROT  0.701E+08              888.752      2.981     38.882
         INT  0.189E+23            20338.476    129.275    158.036
         TR   0.128E+29             1481.254      4.968     44.836
         TOT                       21819.7303   134.2431   202.8722   848.8175

       T/K    H(0)-H(T)+PV         H(T)/Eh          T*S/Eh         G(T)/Eh
   ------------------------------------------------------------------------
    298.15    0.347720E-01    0.542581E+00    0.963912E-01    0.446190E+00
   ------------------------------------------------------------------------

         :::::::::::::::::::::::::::::::::::::::::::::::::::::
         ::                  THERMODYNAMIC                  ::
         :::::::::::::::::::::::::::::::::::::::::::::::::::::
         :: total free energy        -109.151184944744 Eh   ::
         ::.................................................::
         :: total energy             -109.597374546867 Eh   ::
         :: zero point energy           0.507808798794 Eh   ::
         :: G(RRHO) w/o ZPVE           -0.061619196671 Eh   ::
         :: G(RRHO) contrib.            0.446189602123 Eh   ::
         :::::::::::::::::::::::::::::::::::::::::::::::::::::

           -------------------------------------------------
          | TOTAL ENERGY             -109.597374546867 Eh   |
          | TOTAL ENTHALPY           -109.054793794518 Eh   |
          | TOTAL FREE ENERGY        -109.151184944744 Eh   |
          | GRADIENT NORM               0.000071558390 Eh/α |
          | HOMO-LUMO GAP               0.500463676868 eV   |
           -------------------------------------------------

 * finished run on 2025/09/09 at 04:43:43.072
