   * xtb version 6.7.1 (edcfbbe) compiled by 'albert@albert-system' on 2024-07-22

   ID    Z sym.   atoms
    1    6 C      1-27, 29-53, 55-64
    2    8 O      28
    3    7 N      54
    4    1 H      65-113

          program call               : xtb data2507/toluene/SIR-C/SIR-C_toluene_S0_crest.xyz --gfn 2 --gbsa toluene --ohess vtight --parallel 40 --molden --ceasefiles --namespace data2507/toluene/SIR-C/SIR-C_toluene_S0_finalOpt
      * Solvation model:               GBSA
        Solvent                        toluene
        Solvent mass                       9.2140E+01 g/mol
          :  Hamiltonian                  GFN2-xTB          :
 * total energy  :  -164.8693155 Eh     change       -0.4506489E-08 Eh
 * total energy  :  -164.8694526 Eh     change       -0.1370369E-03 Eh
 * total energy  :  -164.8695556 Eh     change       -0.1030013E-03 Eh
 * total energy  :  -164.8696132 Eh     change       -0.5760944E-04 Eh
 * total energy  :  -164.8697080 Eh     change       -0.9480760E-04 Eh
 * total energy  :  -164.8698139 Eh     change       -0.1058959E-03 Eh
 * total energy  :  -164.8698916 Eh     change       -0.7773683E-04 Eh
 * total energy  :  -164.8699782 Eh     change       -0.8657238E-04 Eh
 * total energy  :  -164.8700252 Eh     change       -0.4701869E-04 Eh
 * total energy  :  -164.8701031 Eh     change       -0.7787251E-04 Eh
 * total energy  :  -164.8727651 Eh     change       -0.1281369E-05 Eh
 * total energy  :  -164.8727662 Eh     change       -0.1170375E-05 Eh
 * total energy  :  -164.8727674 Eh     change       -0.1175557E-05 Eh
 * total energy  :  -164.8727686 Eh     change       -0.1152028E-05 Eh
 * total energy  :  -164.8727696 Eh     change       -0.1037200E-05 Eh
 * total energy  :  -164.8727705 Eh     change       -0.8705152E-06 Eh
 * total energy  :  -164.8727713 Eh     change       -0.8303674E-06 Eh
 * total energy  :  -164.8727721 Eh     change       -0.7710292E-06 Eh
 * total energy  :  -164.8727721 Eh     change       -0.5116505E-08 Eh
   *** GEOMETRY OPTIMIZATION CONVERGED AFTER 340 ITERATIONS ***

 final structure:
================
113
 xtb: 6.7.1 (edcfbbe)
C            0.14909044739967        4.88901865653480       -1.34770726685612
C            0.64201320879324        3.64827176510393       -0.66599150812576
C            1.78295007185772        3.66746961108698        0.12637756451153
C            2.22583100523721        2.52885821898218        0.76436847943342
C            1.52968090418580        1.32272607517573        0.64980109143394
C            0.37582106272863        1.29634292288776       -0.13574230994607
C           -0.04237986961030        2.44839333298763       -0.78229708903146
C           -0.46385891505924        0.03666108880952       -0.28777282810180
C           -1.84390043970830        0.36223664843098        0.23015601708881
C           -2.01217475565566        0.58545908712032        1.59267473561036
C           -3.24868047338863        0.90001364059832        2.11742711353939
C           -4.36844481917309        1.00479444519763        1.29068061390782
C           -5.69348934507789        1.32476206312887        1.84979175881302
C           -5.82968185887130        2.40884883415000        2.71169235742231
C           -7.06620988698109        2.76490773521448        3.21771317667792
C           -8.18972293491732        2.03613229246627        2.86409603973138
C           -8.06644103027730        0.95194213695594        2.01444273264702
C           -6.82737512525733        0.57763765540850        1.50348062030846
C           -6.73178742593159       -0.61323159062303        0.63815921003575
C           -7.56477767432010       -0.74541519172139       -0.46917909683570
C           -7.47737069950004       -1.85828216147969       -1.28588181221518
C           -6.56554269865645       -2.86045172115732       -1.00024149143816
C           -5.74485063690093       -2.74622297334476        0.10999002179442
C           -5.82513735320886       -1.63122336632584        0.92310790619070
C           -4.19817907797210        0.81463850152525       -0.07035572949588
C           -2.95258869785923        0.49141874329973       -0.60763553373752
C           -2.85669595544665        0.28018488217151       -2.06171292824051
O           -3.80475470683816        0.50015627372499       -2.81060334695696
C           -1.57336579569531       -0.22930172429355       -2.56548521441484
C           -1.48954133498387       -0.60873822769704       -3.90905652692984
C           -0.32458820531120       -1.12106288183348       -4.42750301746123
C            0.80631122444465       -1.24855299760155       -3.61639668179885
C            2.03930356284593       -1.83826292083201       -4.16469890864432
C            1.94848381607045       -3.05001212513103       -4.84607539093587
C            3.07451321187099       -3.67309580148532       -5.34999635011631
C            4.31732522960639       -3.08517971040984       -5.18081513619236
C            4.42065577362599       -1.88052373906364       -4.51108438943456
C            3.29513949105954       -1.23990036384924       -3.99766701283050
C            3.46224572891428        0.07220419978123       -3.34741997989987
C            4.46293448815677        0.25936803759371       -2.39703460898569
C            4.66600157719156        1.50061330122568       -1.82247741590967
C            3.87704414624371        2.57508199797633       -2.19507396968635
C            2.87817585198513        2.39963470205705       -3.13760851156867
C            2.67059104764247        1.15886415910312       -3.71007125893792
C            0.72621696148801       -0.85821984879480       -2.28555915973517
C           -0.45084386393697       -0.36005453945715       -1.74436618034660
C            0.09513959847909       -1.11572791159537        0.52437100192688
C           -0.59804170796218       -2.31580623329078        0.51336566638326
C           -0.15856373712151       -3.42655542467332        1.21839003294401
C           -0.94323689874047       -4.70379858783654        1.20831104621272
C            1.01654869205236       -3.30499861668143        1.94992680397121
C            1.72064612583180       -2.11914973191730        1.97596633027784
C            1.27341426339324       -1.00191558305354        1.26495166262258
N            1.97750059148114        0.18943210129253        1.30709718689242
C            3.18706961373617        0.25315709716007        2.05835688095486
C            3.17994261401371        0.68339474993113        3.37619458671874
C            4.36155901717241        0.74585390437550        4.09543813573824
C            5.57554662453990        0.38015276328086        3.52480553636757
C            6.89551625738676        0.43736291275129        4.27869406773843
C            7.85410762771497        1.38123122766965        3.53695590256129
C            7.49802090415421       -0.97436690435042        4.33865315265727
C            6.73536240862001        0.95056905170052        5.71288148064028
C            5.56084930409581       -0.05584405250561        2.20092638083968
C            4.38888695053677       -0.12011024884723        1.47320727017684
H           -0.45073742405276        4.63838619309327       -2.22007019428485
H           -0.47499438489498        5.46907109829186       -0.66602714704051
H            0.98103308399429        5.51824705298140       -1.65718381248192
H            2.33559389048936        4.58841676513216        0.24537419400070
H            3.12117608317845        2.56851529735033        1.36537936243863
H           -0.93600593665065        2.40481894882919       -1.39110275235503
H           -1.15800964656258        0.49924830646863        2.24862221952898
H           -3.35944299606472        1.04704303969319        3.18214423397372
H           -4.95422080540293        2.98898453313264        2.96663371483350
H           -7.15379400103915        3.61189951841903        3.88232285275029
H           -9.16000768000751        2.30985538122873        3.25211303549657
H           -8.93810249750617        0.36939730533564        1.75194090940979
H           -8.26772558560549        0.04212907987112       -0.70231679845808
H           -8.12045119394321       -1.94187181272044       -2.15041829623250
H           -6.49588492141047       -3.72860253740686       -1.63970689086135
H           -5.03800575123770       -3.52992474013843        0.34267200456175
H           -5.18727810124508       -1.54930226461868        1.79157600217174
H           -5.02970264397559        0.91554142256510       -0.75278696634434
H           -2.37263075353398       -0.49391386783537       -4.52177272768753
H           -0.27282788860302       -1.41086219373787       -5.46688534539626
H            0.97932834164896       -3.51462776101282       -4.95910823896760
H            2.98262665818838       -4.61399964731976       -5.87235230342573
H            5.20306239778039       -3.56163745181729       -5.57482964238988
H            5.38645863384344       -1.40869148832824       -4.39992991614533
H            5.07810467968172       -0.58076360479274       -2.10523703635479
H            5.44493820582647        1.63327825912526       -1.08566729096177
H            4.04234747577327        3.54643997675899       -1.75502907119414
H            2.26048876087315        3.23458164955078       -3.43296342543353
H            1.90220011900645        1.03307946671572       -4.45914997756471
H            1.59289315232787       -0.96566864644316       -1.65007047046901
H           -1.50862579123826       -2.37780039557128       -0.06789282597637
H           -0.29667370561960       -5.55768181031185        1.39750932711825
H           -1.70823740326293       -4.67951649398434        1.98609703576364
H           -1.44181313233667       -4.84208275323130        0.25113079787331
H            1.38846916376571       -4.15069270506382        2.51054211741864
H            2.62906831411944       -2.05107651707017        2.55472987447639
H            2.24673906179093        0.97299038790023        3.83767330564880
H            4.31541317920133        1.08737651130749        5.11624178522304
H            8.06565085296497        1.02506745449815        2.53258630391644
H            8.79602140469231        1.45540001187700        4.07625924340842
H            7.42044177274170        2.37672302709159        3.46241898551482
H            7.69399105962202       -1.36558273040244        3.34415877046212
H            8.43674679743271       -0.95650812220028        4.88826382628719
H            6.81552078327554       -1.65465816542874        4.84467096431977
H            6.33221335935482        1.96076811988335        5.72529898708197
H            6.08615407955925        0.29867794602833        6.29302105260247
H            7.70849486566373        0.97249893046043        6.19937522753157
H            6.47987053920295       -0.35273026928334        1.71920751115481
H            4.39471286509093       -0.45606167280986        0.44734036044452

          :  Hamiltonian                  GFN2-xTB          :
         :: gradient norm              0.000051167181 Eh/a0 ::
         :: HOMO-LUMO gap              1.403888896893 eV    ::
         :: SCC energy              -167.921813989606 Eh    ::
         :: -> dispersion             -0.172665462351 Eh    ::
         :: -> Gsolv                  -0.064669985650 Eh    ::
         :: repulsion energy           3.049041924371 Eh    ::

    * Orbital Energies and Occupations

         #    Occupation            Energy/Eh            Energy/eV
      -------------------------------------------------------------
         1        2.0000           -0.7002606             -19.0551
       ...           ...                  ...                  ...
       142        2.0000           -0.4054525             -11.0329
       143        2.0000           -0.4033327             -10.9752
       144        2.0000           -0.4028615             -10.9624
       145        2.0000           -0.3983234             -10.8389
       146        2.0000           -0.3977524             -10.8234
       147        2.0000           -0.3960339             -10.7766
       148        2.0000           -0.3953009             -10.7567
       149        2.0000           -0.3945060             -10.7351
       150        2.0000           -0.3931186             -10.6973
       151        2.0000           -0.3854031             -10.4874
       152        2.0000           -0.3835988             -10.4383
       153        2.0000           -0.3810811             -10.3697
       154        2.0000           -0.3433536              -9.3431 (HOMO)
       155                         -0.2917616              -7.9392 (LUMO)
       156                         -0.2513197              -6.8388
       157                         -0.2459893              -6.6937
       158                         -0.2385811              -6.4921
       159                         -0.2366472              -6.4395
       160                         -0.2328312              -6.3357
       161                         -0.2291604              -6.2358
       162                         -0.2271770              -6.1818
       163                         -0.2230263              -6.0689
       164                         -0.2219811              -6.0404
       165                         -0.2212043              -6.0193
       ...                                ...                  ...
       305                          0.6991574              19.0250
      -------------------------------------------------------------
                  HL-Gap            0.0515920 Eh            1.4039 eV

     #   Z          covCN         q      C6AA      α(0)
     1   6 C        3.757    -0.105    22.556     6.771
     2   6 C        2.964     0.004    27.937     8.670
     3   6 C        2.925    -0.042    29.033     8.836
     4   6 C        2.923    -0.059    29.462     8.901
     5   6 C        2.925     0.058    26.704     8.474
     6   6 C        2.990    -0.013    28.331     8.731
     7   6 C        2.931    -0.046    29.143     8.853
     8   6 C        3.928     0.017    20.232     6.392
     9   6 C        2.988     0.014    27.685     8.631
    10   6 C        2.922    -0.034    28.836     8.806
    11   6 C        2.924    -0.029    28.715     8.788
    12   6 C        2.975     0.013    27.717     8.636
    13   6 C        2.980     0.006    27.892     8.663
    14   6 C        2.924    -0.034    28.858     8.810
    15   6 C        2.918    -0.032    28.799     8.800
    16   6 C        2.918    -0.032    28.787     8.798
    17   6 C        2.925    -0.034    28.850     8.808
    18   6 C        2.979     0.007    27.868     8.659
    19   6 C        2.977     0.012    27.745     8.640
    20   6 C        2.925    -0.034    28.836     8.806
    21   6 C        2.918    -0.030    28.738     8.791
    22   6 C        2.920    -0.032    28.799     8.800
    23   6 C        2.919    -0.031    28.776     8.797
    24   6 C        2.924    -0.033    28.824     8.804
    25   6 C        2.931    -0.022    28.561     8.764
    26   6 C        2.975    -0.025    28.613     8.774
    27   6 C        2.833     0.223    23.304     7.911
    28   8 O        0.858    -0.450    22.713     6.390
    29   6 C        2.976    -0.027    28.659     8.781
    30   6 C        2.923    -0.021    28.528     8.759
    31   6 C        2.922    -0.037    28.912     8.818
    32   6 C        2.977     0.022    27.500     8.602
    33   6 C        2.979     0.006    27.884     8.662
    34   6 C        2.926    -0.033    28.827     8.805
    35   6 C        2.918    -0.031    28.783     8.798
    36   6 C        2.918    -0.031    28.766     8.795
    37   6 C        2.926    -0.034    28.853     8.809
    38   6 C        2.978     0.008    27.844     8.656
    39   6 C        2.977     0.010    27.780     8.646
    40   6 C        2.926    -0.035    28.874     8.812
    41   6 C        2.918    -0.030    28.747     8.792
    42   6 C        2.920    -0.030    28.757     8.794
    43   6 C        2.919    -0.029    28.725     8.789
    44   6 C        2.924    -0.032    28.803     8.801
    45   6 C        2.928    -0.035    28.879     8.813
    46   6 C        2.985     0.016    27.642     8.624
    47   6 C        2.988    -0.014    28.362     8.736
    48   6 C        2.932    -0.046    29.134     8.852
    49   6 C        2.964     0.004    27.942     8.670
    50   6 C        3.757    -0.107    22.589     6.776
    51   6 C        2.925    -0.043    29.068     8.842
    52   6 C        2.922    -0.060    29.491     8.906
    53   6 C        2.925     0.057    26.718     8.477
    54   7 N        2.752    -0.075    22.701     7.076
    55   6 C        2.927     0.062    26.607     8.459
    56   6 C        2.920    -0.041    29.019     8.834
    57   6 C        2.925    -0.039    28.966     8.826
    58   6 C        2.972     0.011    27.768     8.644
    59   6 C        3.902     0.026    20.077     6.369
    60   6 C        3.761    -0.106    22.573     6.773
    61   6 C        3.761    -0.106    22.575     6.773
    62   6 C        3.761    -0.109    22.629     6.781
    63   6 C        2.927    -0.034    28.844     8.808
    64   6 C        2.920    -0.041    29.021     8.834
    65   1 H        0.925     0.038     2.478     2.462
    66   1 H        0.924     0.046     2.370     2.408
    67   1 H        0.925     0.045     2.383     2.414
    68   1 H        0.926     0.034     2.531     2.488
    69   1 H        0.926     0.033     2.549     2.497
    70   1 H        0.925     0.016     2.801     2.617
    71   1 H        0.926     0.038     2.475     2.460
    72   1 H        0.926     0.046     2.374     2.409
    73   1 H        0.926     0.035     2.514     2.480
    74   1 H        0.926     0.035     2.515     2.480
    75   1 H        0.926     0.035     2.518     2.482
    76   1 H        0.926     0.035     2.523     2.484
    77   1 H        0.926     0.031     2.567     2.506
    78   1 H        0.926     0.031     2.575     2.509
    79   1 H        0.926     0.030     2.593     2.518
    80   1 H        0.926     0.030     2.593     2.518
    81   1 H        0.926     0.028     2.622     2.532
    82   1 H        0.926     0.044     2.401     2.423
    83   1 H        0.926     0.046     2.365     2.405
    84   1 H        0.926     0.042     2.416     2.431
    85   1 H        0.926     0.035     2.522     2.484
    86   1 H        0.926     0.035     2.510     2.477
    87   1 H        0.926     0.036     2.503     2.474
    88   1 H        0.926     0.037     2.485     2.465
    89   1 H        0.925     0.032     2.554     2.499
    90   1 H        0.926     0.035     2.522     2.483
    91   1 H        0.926     0.032     2.552     2.498
    92   1 H        0.926     0.029     2.593     2.518
    93   1 H        0.926     0.025     2.665     2.553
    94   1 H        0.926     0.035     2.511     2.478
    95   1 H        0.925     0.019     2.754     2.595
    96   1 H        0.925     0.044     2.393     2.419
    97   1 H        0.924     0.046     2.367     2.406
    98   1 H        0.925     0.040     2.443     2.444
    99   1 H        0.926     0.033     2.545     2.495
   100   1 H        0.926     0.031     2.573     2.508
   101   1 H        0.926     0.036     2.501     2.473
   102   1 H        0.926     0.048     2.350     2.397
   103   1 H        0.925     0.038     2.470     2.458
   104   1 H        0.925     0.041     2.438     2.442
   105   1 H        0.925     0.034     2.530     2.487
   106   1 H        0.925     0.038     2.470     2.458
   107   1 H        0.925     0.041     2.436     2.441
   108   1 H        0.925     0.034     2.531     2.488
   109   1 H        0.925     0.037     2.483     2.464
   110   1 H        0.925     0.037     2.484     2.465
   111   1 H        0.925     0.039     2.456     2.451
   112   1 H        0.926     0.041     2.436     2.441
   113   1 H        0.926     0.039     2.464     2.455

molecular dipole:
                 x           y           z       tot (Debye)
 q only:        2.770      -0.271       1.868
   full:        2.620      -0.272       1.761       8.054

 projected vibrational frequencies (cm⁻¹)
eigval :       -0.00    -0.00     0.00     0.00     0.00     0.00
eigval :      -12.80     8.70    12.38    19.64    23.77    27.43
eigval :       31.26    31.47    32.43    37.98    39.43    45.92
eigval :       47.56    51.31    55.91    60.29    66.49    72.23
eigval :       79.61    83.64    90.15    91.44    97.82   101.79
eigval :      103.86   117.47   124.50   128.28   132.62   135.84
eigval :      162.19   178.66   182.06   183.53   190.77   202.43
eigval :      209.83   220.05   229.27   233.81   248.90   256.81
eigval :      258.88   266.06   269.60   289.13   296.62   302.23
eigval :      308.09   310.34   311.54   322.88   326.74   334.73
eigval :      343.66   349.30   360.10   361.31   362.36   371.01
eigval :      376.46   377.53   382.13   395.23   400.67   404.87
eigval :      408.35   425.53   426.68   437.07   438.37   452.46
eigval :      455.40   466.21   471.54   489.43   496.31   503.91
eigval :      511.11   517.55   524.71   535.64   537.49   538.73
eigval :      546.12   551.94   576.37   578.90   582.42   585.45
eigval :      589.63   590.10   597.52   604.33   612.30   618.06
eigval :      627.50   632.24   635.56   659.95   665.56   668.16
eigval :      670.77   673.61   674.73   685.63   701.68   704.94
eigval :      711.35   712.30   725.92   738.09   739.07   745.34
eigval :      757.10   759.08   763.36   782.02   785.57   786.01
eigval :      810.41   812.73   813.83   816.29   834.69   841.58
eigval :      863.17   867.56   877.45   878.09   880.43   883.20
eigval :      884.85   886.92   887.99   889.80   897.86   903.41
eigval :      903.81   911.00   912.33   914.30   916.29   919.79
eigval :      923.05   924.68   925.73   925.89   926.62   927.73
eigval :      928.25   929.84   930.87   931.41   932.72   934.28
eigval :      955.24   958.58   959.95   962.47   963.59   963.80
eigval :      970.20   995.06  1013.77  1019.62  1026.47  1029.02
eigval :     1029.61  1033.35  1033.78  1034.09  1034.98  1078.17
eigval :     1079.85  1087.51  1088.78  1092.39  1101.35  1103.26
eigval :     1119.89  1120.97  1135.76  1137.10  1140.03  1144.13
eigval :     1145.04  1146.96  1148.61  1178.12  1179.21  1181.26
eigval :     1181.86  1182.74  1184.54  1194.04  1196.66  1198.01
eigval :     1200.44  1203.55  1218.34  1223.94  1225.01  1232.03
eigval :     1238.06  1240.12  1246.68  1249.64  1253.14  1258.49
eigval :     1266.33  1267.83  1273.97  1278.31  1280.47  1281.49
eigval :     1284.02  1286.17  1289.52  1293.93  1298.27  1310.20
eigval :     1310.90  1312.95  1316.26  1318.95  1327.11  1334.43
eigval :     1336.31  1339.31  1341.89  1362.39  1393.00  1395.55
eigval :     1398.50  1400.69  1402.63  1403.15  1407.09  1419.33
eigval :     1422.33  1422.78  1424.53  1426.85  1435.14  1435.24
eigval :     1450.19  1452.77  1476.32  1480.21  1481.49  1481.93
eigval :     1483.05  1484.08  1486.26  1488.73  1490.07  1490.80
eigval :     1494.81  1497.26  1499.42  1503.29  1507.17  1510.07
eigval :     1515.60  1550.07  1561.13  1566.21  1567.28  1569.09
eigval :     1569.16  1581.11  1582.00  1582.61  1583.55  1588.71
eigval :     1589.98  1592.62  1600.20  1600.32  1600.79  1605.09
eigval :     1613.67  1632.40  2985.76  2986.44  3021.48  3021.92
eigval :     3025.63  3026.11  3027.88  3029.27  3029.83  3031.15
eigval :     3032.01  3034.01  3037.53  3045.66  3049.04  3059.24
eigval :     3061.04  3063.72  3065.78  3067.62  3070.15  3071.07
eigval :     3072.35  3072.51  3073.30  3074.13  3074.24  3074.26
eigval :     3074.92  3075.04  3078.12  3078.23  3079.30  3079.47
eigval :     3080.44  3084.35  3085.55  3086.19  3086.49  3087.69
eigval :     3088.10  3088.56  3089.73  3090.61  3095.79  3097.43
eigval :     3097.89  3098.76  3117.22

   temp. (K)  partition function   enthalpy   heat capacity  entropy
                                   cal/mol     cal/K/mol   cal/K/mol   J/K/mol
 298.15  VIB  0.463E+27            33094.754    202.120    208.511
         ROT  0.146E+09              888.752      2.981     40.345
         INT  0.678E+35            33983.506    205.101    248.856
         TR   0.229E+29             1481.254      4.968     45.984
         TOT                       35464.7598   210.0692   294.8394  1233.6081

       T/K    H(0)-H(T)+PV         H(T)/Eh          T*S/Eh         G(T)/Eh
   ------------------------------------------------------------------------
    298.15    0.565167E-01    0.955749E+00    0.140088E+00    0.815661E+00
   ------------------------------------------------------------------------

         :::::::::::::::::::::::::::::::::::::::::::::::::::::
         ::                  THERMODYNAMIC                  ::
         :::::::::::::::::::::::::::::::::::::::::::::::::::::
         :: total free energy        -164.057110618928 Eh   ::
         ::.................................................::
         :: total energy             -164.872772066076 Eh   ::
         :: zero point energy           0.899232472257 Eh   ::
         :: G(RRHO) w/o ZPVE           -0.083571025109 Eh   ::
         :: G(RRHO) contrib.            0.815661447148 Eh   ::
         :::::::::::::::::::::::::::::::::::::::::::::::::::::

           -------------------------------------------------
          | TOTAL ENERGY             -164.872772066076 Eh   |
          | TOTAL ENTHALPY           -163.917022901602 Eh   |
          | TOTAL FREE ENERGY        -164.057110618928 Eh   |
          | GRADIENT NORM               0.000051163060 Eh/α |
          | HOMO-LUMO GAP               1.403888645767 eV   |
           -------------------------------------------------

 * finished run on 2025/09/11 at 23:03:00.685
