   * xtb version 6.7.1 (edcfbbe) compiled by 'albert@albert-system' on 2024-07-22

   ID    Z sym.   atoms
    1    6 C      1-27, 29-53, 55-64
    2    8 O      28
    3    7 N      54
    4    1 H      65-113

          program call               : xtb data2507/toluene/SIR-C/SIR-C_toluene_S0_finalOpt.xtbopt.xyz --gfn 2 --uhf 2 --gbsa toluene --ohess vtight --parallel 40 --molden --ceasefiles --namespace data2507/toluene/SIR-C/SIR-C_toluene_T1_preOpt
      * Solvation model:               GBSA
        Solvent                        toluene
        Solvent mass                       9.2140E+01 g/mol
          :  Hamiltonian                  GFN2-xTB          :
 * total energy  :  -164.7940226 Eh     change       -0.1258883E-08 Eh
 * total energy  :  -164.7971752 Eh     change       -0.3152534E-02 Eh
 * total energy  :  -164.7979933 Eh     change       -0.8181422E-03 Eh
 * total energy  :  -164.7980551 Eh     change       -0.6181123E-04 Eh
 * total energy  :  -164.7980994 Eh     change       -0.4430970E-04 Eh
 * total energy  :  -164.7981299 Eh     change       -0.3046393E-04 Eh
 * total energy  :  -164.7981541 Eh     change       -0.2415798E-04 Eh
 * total energy  :  -164.7981687 Eh     change       -0.1465099E-04 Eh
 * total energy  :  -164.7981764 Eh     change       -0.7729650E-05 Eh
 * total energy  :  -164.7981882 Eh     change       -0.1180119E-04 Eh
 * total energy  :  -164.7982558 Eh     change       -0.1221167E-05 Eh
 * total energy  :  -164.7982567 Eh     change       -0.9392620E-06 Eh
 * total energy  :  -164.7982575 Eh     change       -0.7518985E-06 Eh
 * total energy  :  -164.7982582 Eh     change       -0.7570830E-06 Eh
 * total energy  :  -164.7982590 Eh     change       -0.7600715E-06 Eh
 * total energy  :  -164.7982597 Eh     change       -0.7395192E-06 Eh
 * total energy  :  -164.7982605 Eh     change       -0.7178930E-06 Eh
 * total energy  :  -164.7982611 Eh     change       -0.5941302E-06 Eh
 * total energy  :  -164.7982611 Eh     change       -0.5655522E-08 Eh
   *** GEOMETRY OPTIMIZATION CONVERGED AFTER 44 ITERATIONS ***

 final structure:
================
113
 xtb: 6.7.1 (edcfbbe)
C            0.18256976542961        4.88334523775334       -1.36119141187526
C            0.66003867606052        3.63941805734833       -0.68571703378283
C            1.79762574629249        3.66127020346992        0.12537746794527
C            2.23741527087925        2.52667038379128        0.76113662453334
C            1.53668033866444        1.31753587173174        0.63164702610508
C            0.38495577579648        1.28596083937572       -0.17190153625846
C           -0.02271307356002        2.44098357479758       -0.82089619399669
C           -0.44488475310517        0.03782682359473       -0.32297893088384
C           -1.84017233762524        0.36091493380150        0.19494444780500
C           -1.98717522467539        0.61600379506150        1.54733293574754
C           -3.21869428543852        0.94203952138460        2.08959105156598
C           -4.34534747578179        1.02056943899431        1.26660297845053
C           -5.66555126312635        1.36235038732338        1.82577018277578
C           -5.79548473811722        2.48270921020617        2.64093074631999
C           -7.02690174088893        2.85908918991566        3.14465811559179
C           -8.15347331886109        2.11566785667584        2.83410308949765
C           -8.03694289777136        0.99562201715384        2.03129433710831
C           -6.80233697024931        0.59979481513314        1.52582545711604
C           -6.71326617416220       -0.62944891487608        0.71551117424020
C           -7.55596006740680       -0.81572885955958       -0.37624821253336
C           -7.47227573519950       -1.96507411256936       -1.14122004851353
C           -6.55548078978606       -2.95050903725403       -0.81730096776886
C           -5.72568231464835       -2.78251650043411        0.27918525324507
C           -5.80202359586794       -1.63123218974774        1.03981280143030
C           -4.20061758911898        0.78797179890711       -0.08626943879291
C           -2.95691099228781        0.44917251070319       -0.64563889259343
C           -2.89460543879068        0.17625495616584       -2.06673834903481
O           -3.91723945442756        0.29229362426303       -2.81036751422226
C           -1.62632659574758       -0.27175725460042       -2.57805055964221
C           -1.54417624294904       -0.66832016352369       -3.93110283151391
C           -0.37705110220652       -1.14603594719850       -4.46104693895364
C            0.78640163362339       -1.23041407858474       -3.68283802814011
C            2.01882412279817       -1.78986864990597       -4.24099004627496
C            1.93993476482763       -2.95486923003891       -5.00824166746043
C            3.06966703903713       -3.55851096831372       -5.52214453179068
C            4.31782107957768       -3.00806078281333       -5.27454063754767
C            4.41444310277870       -1.85016512461063       -4.52569108003756
C            3.28372629804496       -1.22277874456992       -4.00943876518131
C            3.46087024459535        0.06267450026089       -3.31133093690593
C            4.45124252158355        0.20896537207148       -2.34257689184011
C            4.68081862232677        1.43560805118397       -1.74643518046683
C            3.92866501237790        2.53756355268005       -2.11448252903824
C            2.93604856857561        2.40218398149882       -3.07095708542695
C            2.70202499404005        1.17653263787375       -3.66439472806509
C            0.71101431441287       -0.81752620709562       -2.34907120724127
C           -0.46484108179934       -0.35996089159183       -1.79368404726336
C            0.10556749222310       -1.11513518103950        0.47095724975933
C           -0.57498271998352       -2.32234474749724        0.44586064036427
C           -0.12938115066120       -3.43183464913411        1.14836412213123
C           -0.89193090852226       -4.71612720100709        1.12359606546692
C            1.04069214779062       -3.30712650735071        1.90212909452433
C            1.73441122305371       -2.12191267143547        1.94530374635978
C            1.28253165412429       -1.00202666294964        1.22892634815849
N            1.97053473855654        0.18832391526639        1.28696808143357
C            3.17084611671082        0.25271139746467        2.05668894029421
C            3.14828450527894        0.73278963454891        3.35708038035129
C            4.31966680151977        0.79299974143216        4.09271109544972
C            5.53427669658782        0.38009802857364        3.55570074660324
C            6.84208608870558        0.43709512073281        4.32863997480018
C            7.82574409445154        1.34487919275141        3.57467296566021
C            7.42077130350870       -0.98174736476030        4.43667591584321
C            6.66719489675753        0.99225229995041        5.74530781870449
C            5.53133666871323       -0.10327590018848        2.24791709255789
C            4.37086198857312       -0.17073191139205        1.50252777107813
H           -0.47474779174926        4.64537207276818       -2.19382676069468
H           -0.37752830645579        5.49600066299587       -0.65327203419084
H            1.02109450542097        5.47563488707999       -1.72134091759818
H            2.34110746635897        4.58572213104598        0.25077953731420
H            3.12658059314020        2.56293473559544        1.36999120691272
H           -0.90764760734036        2.39486583481614       -1.43970739266645
H           -1.12237302612314        0.55219132573375        2.19368721148477
H           -3.31385055698369        1.11573944960312        3.15105841462114
H           -4.91747381760656        3.07297339056153        2.86210713835468
H           -7.10852993793393        3.73384031035435        3.77343105264821
H           -9.12047975365729        2.40586719536752        3.21869599233171
H           -8.91042488516457        0.40138874124657        1.80227099424262
H           -8.26179573748422       -0.04064807667712       -0.64135019947856
H           -8.12119168631651       -2.08933007117332       -1.99661307318116
H           -6.48757761680669       -3.84596586992415       -1.41823920468441
H           -5.01432554131933       -3.55272611664467        0.54121390282926
H           -5.15487185647859       -1.50397352279935        1.89580397499972
H           -5.04180359287276        0.86275255641543       -0.76041345758466
H           -2.44381019314571       -0.58627937897421       -4.52533156995106
H           -0.34451528271570       -1.43714987739352       -5.50198859134331
H            0.96994102886735       -3.39985178310660       -5.17937974241604
H            2.97940233461397       -4.46050976114437       -6.11050225730909
H            5.20839580070134       -3.47359804182114       -5.67098156208271
H            5.38331160647083       -1.39961427861313       -4.36055552214637
H            5.04164568281323       -0.65180896421598       -2.05922194365607
H            5.45521390167526        1.53607205576383       -0.99966248284147
H            4.12001523406495        3.49920479051864       -1.66351758981219
H            2.34698960625410        3.25797850345940       -3.36569007744958
H            1.93865496419735        1.08042384748541       -4.42299203407630
H            1.59338987503661       -0.89043713715945       -1.72857668333482
H           -1.47790019454728       -2.38585669337368       -0.14505880052925
H           -0.22334680519738       -5.56766560263074        1.22609986137655
H           -1.59842797856573       -4.74102689549215        1.95466559224761
H           -1.45715726227822       -4.81200126657144        0.19967327518826
H            1.40520209951343       -4.15575465617549        2.46138010457435
H            2.63276682128747       -2.04760073166408        2.53738123115138
H            2.21474897067741        1.05892196396009        3.79132784625029
H            4.26480520467909        1.17196521121106        5.09926705955916
H            8.04537707578781        0.95836024829158        2.58337278229870
H            8.76120158074996        1.41744719094306        4.12499995819136
H            7.41106388438052        2.34542750409020        3.46818253063578
H            7.63224266275665       -1.40250849247589        3.45763969071730
H            8.34825153202804       -0.96249215413346        5.00469376004906
H            6.71886688227653       -1.63830695875315        4.94720689730741
H            6.28514483652780        2.01037506924390        5.72437276846717
H            5.99642590743063        0.36871944208577        6.33200733269588
H            7.63218090334804        1.00836027211477        6.24767168351097
H            6.45061813032952       -0.43562311169497        1.79189342724684
H            4.38483940730034       -0.54515120064437        0.49066716373026

          :  Hamiltonian                  GFN2-xTB          :
         :: gradient norm              0.000064084112 Eh/a0 ::
         :: HOMO-LUMO gap              0.792905717213 eV    ::
         :: SCC energy              -167.837642224888 Eh    ::
         :: -> dispersion             -0.172925257624 Eh    ::
         :: -> Gsolv                  -0.076969716502 Eh    ::
         :: repulsion energy           3.039381165151 Eh    ::

    * Orbital Energies and Occupations

         #    Occupation            Energy/Eh            Energy/eV
      -------------------------------------------------------------
         1        2.0000           -0.6932301             -18.8638
       ...           ...                  ...                  ...
       143        2.0000           -0.4030326             -10.9671
       144        2.0000           -0.4026894             -10.9577
       145        2.0000           -0.4007658             -10.9054
       146        2.0000           -0.4002286             -10.8908
       147        2.0000           -0.3966055             -10.7922
       148        2.0000           -0.3938820             -10.7181
       149        2.0000           -0.3893020             -10.5934
       150        2.0000           -0.3881115             -10.5611
       151        2.0000           -0.3761813             -10.2364
       152        2.0000           -0.3740984             -10.1797
       153        1.9736           -0.3678932             -10.0109
       154        1.0264           -0.3610400              -9.8244
       155        1.0000           -0.2779944              -7.5646 (HOMO)
       156        0.0000           -0.2488552              -6.7717 (LUMO)
       157                         -0.2418865              -6.5821
       158                         -0.2408352              -6.5535
       159                         -0.2398695              -6.5272
       160                         -0.2382002              -6.4818
       161                         -0.2368194              -6.4442
       162                         -0.2349875              -6.3943
       163                         -0.2309064              -6.2833
       164                         -0.2281302              -6.2077
       165                         -0.2217175              -6.0332
       166                         -0.2180462              -5.9333
       ...                                ...                  ...
       305                          0.7043706              19.1669
      -------------------------------------------------------------
                  HL-Gap            0.0291393 Eh            0.7929 eV

     #   Z          covCN         q      C6AA      α(0)
     1   6 C        3.758    -0.112    22.690     6.791
     2   6 C        2.964     0.027    27.389     8.584
     3   6 C        2.923    -0.033    28.834     8.806
     4   6 C        2.919    -0.047    29.176     8.858
     5   6 C        2.929     0.059    26.670     8.469
     6   6 C        2.988     0.005    27.913     8.667
     7   6 C        2.929    -0.039    28.963     8.826
     8   6 C        3.929     0.022    20.148     6.379
     9   6 C        2.987    -0.005    28.139     8.702
    10   6 C        2.921    -0.040    28.984     8.829
    11   6 C        2.922    -0.051    29.259     8.871
    12   6 C        2.974     0.006    27.875     8.660
    13   6 C        2.980     0.006    27.877     8.661
    14   6 C        2.925    -0.036    28.886     8.814
    15   6 C        2.918    -0.033    28.834     8.805
    16   6 C        2.918    -0.033    28.834     8.805
    17   6 C        2.925    -0.035    28.878     8.813
    18   6 C        2.980     0.005    27.907     8.665
    19   6 C        2.977     0.012    27.731     8.638
    20   6 C        2.925    -0.033    28.829     8.805
    21   6 C        2.919    -0.029    28.736     8.791
    22   6 C        2.920    -0.032    28.800     8.800
    23   6 C        2.919    -0.031    28.779     8.797
    24   6 C        2.925    -0.032    28.805     8.801
    25   6 C        2.932    -0.033    28.813     8.803
    26   6 C        2.976    -0.021    28.522     8.760
    27   6 C        2.838     0.168    24.378     8.091
    28   8 O        0.857    -0.521    24.263     6.604
    29   6 C        2.976    -0.026    28.656     8.781
    30   6 C        2.922    -0.035    28.865     8.810
    31   6 C        2.920    -0.041    29.028     8.835
    32   6 C        2.975    -0.006    28.167     8.706
    33   6 C        2.976     0.004    27.939     8.670
    34   6 C        2.926    -0.038    28.951     8.824
    35   6 C        2.917    -0.034    28.854     8.808
    36   6 C        2.917    -0.038    28.939     8.821
    37   6 C        2.926    -0.037    28.922     8.819
    38   6 C        2.978    -0.000    28.033     8.685
    39   6 C        2.977     0.011    27.754     8.642
    40   6 C        2.925    -0.038    28.944     8.823
    41   6 C        2.918    -0.033    28.828     8.805
    42   6 C        2.920    -0.035    28.872     8.812
    43   6 C        2.919    -0.031    28.785     8.798
    44   6 C        2.925    -0.032    28.790     8.799
    45   6 C        2.927    -0.041    29.024     8.835
    46   6 C        2.982    -0.005    28.130     8.700
    47   6 C        2.986     0.004    27.915     8.667
    48   6 C        2.929    -0.038    28.951     8.824
    49   6 C        2.964     0.027    27.399     8.586
    50   6 C        3.758    -0.113    22.721     6.796
    51   6 C        2.923    -0.035    28.876     8.812
    52   6 C        2.918    -0.048    29.200     8.861
    53   6 C        2.929     0.059    26.682     8.471
    54   7 N        2.754    -0.009    21.422     6.874
    55   6 C        2.931     0.053    26.814     8.492
    56   6 C        2.919    -0.038    28.933     8.821
    57   6 C        2.926    -0.035    28.877     8.813
    58   6 C        2.972     0.017    27.628     8.622
    59   6 C        3.903     0.027    20.059     6.366
    60   6 C        3.761    -0.108    22.604     6.777
    61   6 C        3.761    -0.108    22.609     6.778
    62   6 C        3.761    -0.111    22.670     6.787
    63   6 C        2.928    -0.030    28.752     8.794
    64   6 C        2.919    -0.037    28.927     8.820
    65   1 H        0.925     0.048     2.339     2.392
    66   1 H        0.924     0.063     2.159     2.298
    67   1 H        0.925     0.060     2.202     2.321
    68   1 H        0.926     0.055     2.254     2.348
    69   1 H        0.926     0.054     2.267     2.354
    70   1 H        0.926     0.035     2.517     2.481
    71   1 H        0.925     0.023     2.686     2.563
    72   1 H        0.926     0.031     2.569     2.507
    73   1 H        0.926     0.033     2.542     2.493
    74   1 H        0.926     0.033     2.541     2.493
    75   1 H        0.926     0.033     2.549     2.497
    76   1 H        0.926     0.031     2.566     2.505
    77   1 H        0.925     0.028     2.619     2.531
    78   1 H        0.926     0.028     2.612     2.527
    79   1 H        0.926     0.028     2.609     2.526
    80   1 H        0.926     0.030     2.586     2.515
    81   1 H        0.926     0.028     2.616     2.529
    82   1 H        0.926     0.025     2.660     2.550
    83   1 H        0.925     0.024     2.675     2.558
    84   1 H        0.925     0.025     2.654     2.548
    85   1 H        0.926     0.025     2.654     2.548
    86   1 H        0.926     0.026     2.637     2.539
    87   1 H        0.926     0.028     2.620     2.531
    88   1 H        0.926     0.030     2.585     2.514
    89   1 H        0.925     0.030     2.588     2.516
    90   1 H        0.926     0.035     2.519     2.482
    91   1 H        0.926     0.033     2.550     2.497
    92   1 H        0.926     0.028     2.620     2.531
    93   1 H        0.926     0.022     2.705     2.572
    94   1 H        0.926     0.018     2.758     2.597
    95   1 H        0.926     0.036     2.498     2.471
    96   1 H        0.925     0.059     2.215     2.327
    97   1 H        0.924     0.064     2.153     2.295
    98   1 H        0.925     0.051     2.304     2.374
    99   1 H        0.926     0.055     2.263     2.353
   100   1 H        0.926     0.053     2.283     2.363
   101   1 H        0.926     0.045     2.383     2.414
   102   1 H        0.926     0.058     2.227     2.334
   103   1 H        0.925     0.040     2.449     2.447
   104   1 H        0.925     0.042     2.418     2.432
   105   1 H        0.925     0.036     2.502     2.474
   106   1 H        0.925     0.040     2.448     2.447
   107   1 H        0.925     0.042     2.417     2.431
   108   1 H        0.925     0.036     2.503     2.474
   109   1 H        0.925     0.039     2.457     2.451
   110   1 H        0.925     0.039     2.459     2.452
   111   1 H        0.925     0.041     2.438     2.442
   112   1 H        0.926     0.050     2.314     2.379
   113   1 H        0.926     0.047     2.358     2.401

molecular dipole:
                 x           y           z       tot (Debye)
 q only:        5.408       0.255       4.558
   full:        5.176       0.228       4.280      17.081

 projected vibrational frequencies (cm⁻¹)
eigval :       -0.00    -0.00    -0.00    -0.00     0.00     0.00
eigval :        3.55     9.76    12.62    20.92    25.41    29.71
eigval :       30.74    32.43    37.13    40.82    45.76    47.13
eigval :       51.31    54.84    59.06    62.17    68.31    81.10
eigval :       82.35    86.04    89.91    93.92   102.23   104.18
eigval :      116.81   125.14   129.39   131.09   138.71   139.43
eigval :      162.09   179.44   181.27   183.38   189.57   203.78
eigval :      213.16   219.17   228.44   233.40   249.10   257.56
eigval :      259.80   265.39   268.99   290.68   295.76   299.47
eigval :      306.41   307.89   314.78   318.23   320.57   332.02
eigval :      337.95   348.11   358.13   362.21   362.38   366.53
eigval :      373.36   376.44   380.08   393.86   398.53   401.32
eigval :      407.42   422.07   424.10   433.46   436.98   446.93
eigval :      455.16   462.50   482.55   489.01   496.48   501.22
eigval :      508.22   514.50   530.22   531.42   533.86   536.37
eigval :      536.99   546.50   570.80   576.13   578.75   583.57
eigval :      587.01   589.59   590.96   598.31   609.52   612.62
eigval :      613.66   619.42   623.17   634.20   659.68   662.52
eigval :      669.30   671.38   674.21   682.47   683.66   693.68
eigval :      702.96   703.87   709.32   724.59   738.03   745.19
eigval :      755.04   756.57   761.10   773.96   780.73   784.51
eigval :      805.52   808.79   810.00   814.60   816.90   820.86
eigval :      866.19   867.50   868.80   873.13   876.04   876.26
eigval :      878.66   880.89   885.04   888.07   889.34   889.66
eigval :      897.31   900.27   907.88   911.31   912.85   914.59
eigval :      916.57   918.45   919.24   920.48   923.49   923.92
eigval :      925.61   927.45   928.81   929.44   929.66   930.21
eigval :      947.18   956.76   959.90   961.86   962.39   964.01
eigval :      965.16   993.12  1012.04  1016.95  1020.49  1022.45
eigval :     1023.58  1027.39  1027.79  1034.09  1034.97  1074.61
eigval :     1077.70  1080.49  1087.17  1088.26  1100.52  1101.93
eigval :     1118.35  1121.23  1124.80  1134.74  1138.74  1141.28
eigval :     1144.48  1146.27  1146.87  1166.22  1178.62  1180.67
eigval :     1181.21  1181.58  1182.49  1187.54  1190.74  1191.88
eigval :     1195.31  1200.93  1201.81  1212.47  1219.50  1225.24
eigval :     1231.32  1232.42  1243.07  1245.72  1249.32  1251.90
eigval :     1256.44  1262.97  1269.96  1276.68  1277.91  1280.45
eigval :     1281.59  1284.28  1286.42  1287.67  1294.06  1309.88
eigval :     1310.49  1316.50  1317.39  1319.02  1319.99  1324.49
eigval :     1341.14  1343.45  1344.90  1349.30  1358.05  1394.28
eigval :     1394.57  1396.37  1400.41  1403.44  1406.33  1418.42
eigval :     1419.68  1420.25  1423.75  1427.86  1432.93  1433.68
eigval :     1434.41  1445.50  1448.99  1458.46  1467.03  1467.83
eigval :     1469.49  1469.57  1472.55  1474.79  1477.60  1480.58
eigval :     1486.79  1488.87  1489.24  1489.84  1493.59  1497.52
eigval :     1502.64  1512.25  1515.29  1522.23  1532.06  1541.26
eigval :     1547.24  1555.04  1566.60  1566.92  1575.19  1580.17
eigval :     1582.00  1582.28  1587.15  1589.81  1591.98  1596.27
eigval :     1598.79  1600.40  2991.15  2991.25  3023.53  3024.35
eigval :     3027.86  3028.25  3032.05  3032.09  3033.66  3036.79
eigval :     3038.83  3041.44  3043.24  3046.11  3049.15  3059.34
eigval :     3059.84  3060.98  3061.89  3063.98  3066.01  3066.42
eigval :     3067.38  3068.49  3069.41  3071.71  3073.11  3073.25
eigval :     3074.05  3075.92  3076.55  3077.56  3079.15  3080.12
eigval :     3081.94  3083.14  3084.21  3084.41  3084.48  3086.42
eigval :     3087.28  3087.42  3088.91  3091.62  3095.60  3104.08
eigval :     3107.56  3109.98  3124.29

   temp. (K)  partition function   enthalpy   heat capacity  entropy
                                   cal/mol     cal/K/mol   cal/K/mol   J/K/mol
 298.15  VIB  0.479E+27            33144.373    204.036    209.144
         ROT  0.146E+09              888.752      2.981     40.346
         INT  0.701E+35            34033.125    207.017    249.490
         TR   0.229E+29             1481.254      4.968     45.984
         TOT                       35514.3791   211.9851   295.4738  1236.2625

       T/K    H(0)-H(T)+PV         H(T)/Eh          T*S/Eh         G(T)/Eh
   ------------------------------------------------------------------------
    298.15    0.565958E-01    0.952778E+00    0.140389E+00    0.812389E+00
   ------------------------------------------------------------------------

         :::::::::::::::::::::::::::::::::::::::::::::::::::::
         ::                  THERMODYNAMIC                  ::
         :::::::::::::::::::::::::::::::::::::::::::::::::::::
         :: total free energy        -163.985872515000 Eh   ::
         ::.................................................::
         :: total energy             -164.798261052417 Eh   ::
         :: zero point energy           0.896181920405 Eh   ::
         :: G(RRHO) w/o ZPVE           -0.083793382988 Eh   ::
         :: G(RRHO) contrib.            0.812388537417 Eh   ::
         :::::::::::::::::::::::::::::::::::::::::::::::::::::

           -------------------------------------------------
          | TOTAL ENERGY             -164.798261052417 Eh   |
          | TOTAL ENTHALPY           -163.845483366394 Eh   |
          | TOTAL FREE ENERGY        -163.985872515000 Eh   |
          | GRADIENT NORM               0.000067216669 Eh/α |
          | HOMO-LUMO GAP               0.792920377477 eV   |
           -------------------------------------------------

 * finished run on 2025/09/11 at 23:03:17.840
