   * xtb version 6.7.1 (edcfbbe) compiled by 'albert@albert-system' on 2024-07-22

   ID    Z sym.   atoms
    1    6 C      1-27, 29-53, 55-64
    2    8 O      28
    3    7 N      54
    4    1 H      65-113

          program call               : xtb data2507/toluene/SIR-C/SIR-C.xyz --gfn 2 --gbsa toluene --ohess vtight --parallel 40 --molden --ceasefiles --namespace data2507/toluene/SIR-C/SIR-C_toluene_S0_preOpt
      * Solvation model:               GBSA
        Solvent                        toluene
        Solvent mass                       9.2140E+01 g/mol
          :  Hamiltonian                  GFN2-xTB          :
 * total energy  :  -164.8388071 Eh     change       -0.3261334E-08 Eh
 * total energy  :  -164.8569519 Eh     change       -0.1814483E-01 Eh
 * total energy  :  -164.8630718 Eh     change       -0.6119941E-02 Eh
 * total energy  :  -164.8646084 Eh     change       -0.1536507E-02 Eh
 * total energy  :  -164.8654120 Eh     change       -0.8036127E-03 Eh
 * total energy  :  -164.8658587 Eh     change       -0.4467123E-03 Eh
 * total energy  :  -164.8662253 Eh     change       -0.3665912E-03 Eh
 * total energy  :  -164.8666198 Eh     change       -0.3945755E-03 Eh
 * total energy  :  -164.8671052 Eh     change       -0.4853927E-03 Eh
 * total energy  :  -164.8676921 Eh     change       -0.5868899E-03 Eh
 * total energy  :  -164.8721042 Eh     change       -0.1352891E-05 Eh
 * total energy  :  -164.8721054 Eh     change       -0.1269033E-05 Eh
 * total energy  :  -164.8721066 Eh     change       -0.1168991E-05 Eh
 * total energy  :  -164.8721077 Eh     change       -0.1066297E-05 Eh
 * total energy  :  -164.8721086 Eh     change       -0.9621351E-06 Eh
 * total energy  :  -164.8721095 Eh     change       -0.8657393E-06 Eh
 * total energy  :  -164.8721103 Eh     change       -0.8207034E-06 Eh
 * total energy  :  -164.8721110 Eh     change       -0.7097625E-06 Eh
 * total energy  :  -164.8721110 Eh     change       -0.8138755E-08 Eh
   *** GEOMETRY OPTIMIZATION CONVERGED AFTER 94 ITERATIONS ***

 final structure:
================
113
 xtb: 6.7.1 (edcfbbe)
C           -0.17979424654358        2.22300356676356        4.75095036580883
C            0.23588906155289        1.43473251680801        3.54560624179521
C            1.29295291296848        0.53517146092124        3.60334884087758
C            1.66047725692764       -0.20249740103262        2.49868205466330
C            0.97126000716640       -0.07961439580978        1.28946897840647
C           -0.10064941968120        0.81258762938480        1.22530593803541
C           -0.44374524755397        1.55563512530025        2.34336832068029
C           -0.93440836059251        0.97751471427226       -0.03689603610769
C           -2.35357791898017        0.60926021106876        0.32168597666677
C           -2.64468735358245       -0.71719195248791        0.62517415546753
C           -3.91903513998649       -1.10764998887815        0.97708821227132
C           -4.95599607493638       -0.17474851407769        1.04743398609220
C           -6.32084014658216       -0.57766661344783        1.43075070057048
C           -6.97163577678118        0.11568259523095        2.44704984296318
C           -8.23590741998885       -0.25521747841995        2.86605408282739
C           -8.86950285072652       -1.33262993027534        2.26896867775579
C           -8.23673359719014       -2.02494127997751        1.25305514839979
C           -6.96630717607819       -1.65957643330199        0.81734168222633
C           -6.34937621770449       -2.39485445821981       -0.30227218942828
C           -5.84405790924167       -1.71641496859561       -1.40848625541995
C           -5.27680301939703       -2.41290945576905       -2.45919679246531
C           -5.20366560474519       -3.79573475895808       -2.42082256158122
C           -5.71405312949430       -4.48031169351683       -1.33048007484904
C           -6.28797089491568       -3.78566648524769       -0.28092683206106
C           -4.66460377840203        1.15032497737338        0.77307287303908
C           -3.37868528446355        1.55185655526388        0.40655215736452
C           -3.15097558341197        2.97651663229504        0.11141653480800
O           -4.02558652293004        3.82052106960933        0.28957738594328
C           -1.83001295243930        3.33115814819754       -0.42577702456071
C           -1.62568299182761        4.63782689101120       -0.88120717294415
C           -0.42031301539195        5.01784142268393       -1.42067772213682
C            0.63212624237803        4.10165184728990       -1.49574315659308
C            1.91148272829630        4.49874718122120       -2.10771145977442
C            1.88850054991907        5.09497131072390       -3.36625372972403
C            3.05912631718539        5.44774674756931       -4.01094504573458
C            4.27823001159650        5.21002478504651       -3.39762147461268
C            4.31412706633809        4.62717966413403       -2.14479627710834
C            3.14332308306187        4.26615546864784       -1.48186404492223
C            3.23966933491887        3.70673861310293       -0.12165855507918
C            4.15475512354405        2.69446677667226        0.15719027325828
C            4.28951228235433        2.20090339815970        1.44194624791203
C            3.51647503280318        2.71542267602438        2.46833782556312
C            2.60382179492193        3.72184825229059        2.20218035586104
C            2.46572767232937        4.21517636602910        0.91848587976624
C            0.43235810157146        2.80776936382200       -1.03158303446564
C           -0.78833585581166        2.40412397167022       -0.50899091643129
C           -0.46251889760196        0.05980458332026       -1.14901277731055
C           -1.15073320179092        0.08738249341069       -2.35328066425715
C           -0.77734300403184       -0.69831555948140       -3.43162652965426
C           -1.52129367926759       -0.65306025244979       -4.73218518426832
C            0.32414742172530       -1.53296075289652       -3.27452851848230
C            1.01885035015097       -1.57937824139468       -2.08544001013967
C            0.63817542570835       -0.78496211099415       -0.99917480102035
N            1.34028318288818       -0.83958205353080        0.19301785893707
C            2.46599881730345       -1.70839573367078        0.29340877329717
C            2.30074872979510       -3.04220012082159        0.64226438556686
C            3.39995776766335       -3.87485137220105        0.72314147743923
C            4.68864867038747       -3.41211434120049        0.46201786871604
C            5.86317553605064       -4.37378508235077        0.55994345888416
C            7.20335685932805       -3.70414892517328        0.24104255744162
C            5.65203523439388       -5.52205477081410       -0.43838023245822
C            5.93472087206835       -4.93251180094429        1.98899752471368
C            4.83431265818948       -2.07275593052590        0.11866075727913
C            3.74002979025902       -1.22909641915519        0.03329610936216
H            0.67978512355653        2.46312575513274        5.37304100951212
H           -0.67522078399939        3.14605155976257        4.45751467287580
H           -0.87989874122884        1.64331336877999        5.35471862037649
H            1.83665431261277        0.40760015286243        4.52847977074807
H            2.48823754104411       -0.89127413964948        2.56795193148721
H           -1.27513310984410        2.24465654541544        2.27187170723262
H           -1.85430943643718       -1.45191933207829        0.57833037837959
H           -4.11806153621934       -2.14251973479481        1.21181016475090
H           -6.46579491911245        0.94443362137882        2.92199245761153
H           -8.72382484978247        0.29304029377866        3.65866689116892
H           -9.85687699234430       -1.62953308390169        2.59113527602961
H           -8.73762291308238       -2.85224821674998        0.77059742221935
H           -5.90849321031292       -0.63844371454805       -1.44701605708493
H           -4.89284450256633       -1.87370373411842       -3.31250673573804
H           -4.75465556931916       -4.33810525487969       -3.24011732226128
H           -5.66443300596315       -5.55936820961648       -1.29720503912929
H           -6.67580901205986       -4.32065057533421        0.57462114921453
H           -5.43626164747412        1.90672359471412        0.81583450164314
H           -2.44860097156685        5.33440382047147       -0.80322784833835
H           -0.27522823838397        6.02941695290012       -1.77092388785074
H            0.93564911199298        5.26100061212121       -3.84843305482947
H            3.02024836898595        5.90566782404058       -4.98840524596297
H            5.19861174224886        5.48496415090035       -3.89168120275127
H            5.26346734253872        4.46631384476641       -1.65432352395046
H            4.75629616172971        2.28966822661801       -0.64516017201942
H            5.00299588606702        1.41574524024415        1.64658756661213
H            3.62760649112311        2.33577941746457        3.47234722431630
H            2.00027636113273        4.12930997875448        2.99949761952947
H            1.76663364454737        5.01503817365671        0.72173772676461
H            1.23803784087796        2.09165126436628       -1.09965746691756
H           -2.00159394015397        0.74986036443909       -2.44241866749621
H           -0.85327496677079       -0.35970691718679       -5.54168773589109
H           -1.92434965542675       -1.63612285903094       -4.97435727641326
H           -2.34144316273500        0.05906827059679       -4.68487656172354
H            0.64290162518916       -2.15616189466202       -4.09780872602756
H            1.87029643513125       -2.23564148152450       -1.99043668483570
H            1.31016264421731       -3.42240260989190        0.84628786243333
H            3.24046171006298       -4.90686605027690        0.99550553676745
H            7.21512262443302       -3.31369853708012       -0.77410067060310
H            8.00283450604740       -4.43734632120189        0.32693917901071
H            7.41428161130825       -2.89636690816860        0.93818082759537
H            5.57277366284476       -5.13137117256699       -1.45116114987144
H            6.49392807322883       -6.21001212529867       -0.39942885612113
H            4.74675073498651       -6.08043626968045       -0.21667006188176
H            6.06067396633446       -4.12229369814356        2.70474745513578
H            5.03216318763492       -5.47899365996453        2.24819298818018
H            6.78092932088040       -5.60976152992819        2.08288854224034
H            5.80805631720747       -1.66295323268411       -0.09285345016832
H            3.86846819330697       -0.19087950997666       -0.23336552104246

          :  Hamiltonian                  GFN2-xTB          :
         :: gradient norm              0.000062498990 Eh/a0 ::
         :: HOMO-LUMO gap              1.388133445666 eV    ::
         :: SCC energy              -167.921028922403 Eh    ::
         :: -> dispersion             -0.171840141252 Eh    ::
         :: -> Gsolv                  -0.064325190880 Eh    ::
         :: repulsion energy           3.048917874651 Eh    ::

    * Orbital Energies and Occupations

         #    Occupation            Energy/Eh            Energy/eV
      -------------------------------------------------------------
         1        2.0000           -0.7010468             -19.0765
       ...           ...                  ...                  ...
       142        2.0000           -0.4056838             -11.0392
       143        2.0000           -0.4036961             -10.9851
       144        2.0000           -0.4033584             -10.9759
       145        2.0000           -0.3985251             -10.8444
       146        2.0000           -0.3978325             -10.8256
       147        2.0000           -0.3961423             -10.7796
       148        2.0000           -0.3953490             -10.7580
       149        2.0000           -0.3943769             -10.7315
       150        2.0000           -0.3928426             -10.6898
       151        2.0000           -0.3868117             -10.5257
       152        2.0000           -0.3835780             -10.4377
       153        2.0000           -0.3813212             -10.3763
       154        2.0000           -0.3432133              -9.3393 (HOMO)
       155                         -0.2922003              -7.9512 (LUMO)
       156                         -0.2511737              -6.8348
       157                         -0.2466056              -6.7105
       158                         -0.2394600              -6.5160
       159                         -0.2358986              -6.4191
       160                         -0.2329399              -6.3386
       161                         -0.2288777              -6.2281
       162                         -0.2272874              -6.1848
       163                         -0.2231208              -6.0714
       164                         -0.2225311              -6.0554
       165                         -0.2213948              -6.0245
       ...                                ...                  ...
       305                          0.6984475              19.0057
      -------------------------------------------------------------
                  HL-Gap            0.0510130 Eh            1.3881 eV

     #   Z          covCN         q      C6AA      α(0)
     1   6 C        3.757    -0.105    22.555     6.771
     2   6 C        2.964     0.004    27.938     8.670
     3   6 C        2.925    -0.042    29.033     8.836
     4   6 C        2.923    -0.059    29.464     8.901
     5   6 C        2.926     0.058    26.703     8.474
     6   6 C        2.990    -0.013    28.334     8.732
     7   6 C        2.931    -0.046    29.146     8.854
     8   6 C        3.928     0.017    20.230     6.392
     9   6 C        2.988     0.015    27.676     8.630
    10   6 C        2.922    -0.033    28.818     8.803
    11   6 C        2.924    -0.025    28.629     8.775
    12   6 C        2.974     0.014    27.705     8.634
    13   6 C        2.980     0.005    27.894     8.663
    14   6 C        2.925    -0.034    28.835     8.806
    15   6 C        2.918    -0.032    28.791     8.799
    16   6 C        2.918    -0.032    28.790     8.799
    17   6 C        2.925    -0.035    28.860     8.810
    18   6 C        2.979     0.006    27.876     8.661
    19   6 C        2.977     0.012    27.752     8.641
    20   6 C        2.924    -0.032    28.794     8.800
    21   6 C        2.919    -0.030    28.745     8.792
    22   6 C        2.920    -0.032    28.792     8.799
    23   6 C        2.918    -0.031    28.767     8.795
    24   6 C        2.925    -0.035    28.874     8.812
    25   6 C        2.931    -0.026    28.645     8.777
    26   6 C        2.975    -0.025    28.615     8.775
    27   6 C        2.833     0.223    23.309     7.912
    28   8 O        0.858    -0.451    22.725     6.391
    29   6 C        2.976    -0.027    28.665     8.782
    30   6 C        2.923    -0.021    28.529     8.759
    31   6 C        2.922    -0.037    28.909     8.817
    32   6 C        2.977     0.023    27.493     8.601
    33   6 C        2.980     0.006    27.884     8.662
    34   6 C        2.926    -0.033    28.827     8.805
    35   6 C        2.918    -0.031    28.783     8.798
    36   6 C        2.918    -0.031    28.767     8.795
    37   6 C        2.926    -0.034    28.853     8.809
    38   6 C        2.978     0.008    27.846     8.656
    39   6 C        2.977     0.010    27.781     8.646
    40   6 C        2.925    -0.035    28.877     8.813
    41   6 C        2.918    -0.030    28.751     8.793
    42   6 C        2.920    -0.030    28.756     8.794
    43   6 C        2.919    -0.029    28.726     8.789
    44   6 C        2.925    -0.032    28.806     8.802
    45   6 C        2.928    -0.035    28.875     8.812
    46   6 C        2.985     0.016    27.639     8.624
    47   6 C        2.988    -0.015    28.370     8.737
    48   6 C        2.931    -0.045    29.125     8.851
    49   6 C        2.964     0.004    27.940     8.670
    50   6 C        3.757    -0.106    22.582     6.775
    51   6 C        2.925    -0.043    29.072     8.842
    52   6 C        2.922    -0.060    29.485     8.905
    53   6 C        2.926     0.057    26.717     8.477
    54   7 N        2.752    -0.075    22.706     7.077
    55   6 C        2.927     0.062    26.607     8.459
    56   6 C        2.920    -0.041    29.015     8.833
    57   6 C        2.927    -0.034    28.858     8.810
    58   6 C        2.972     0.011    27.768     8.644
    59   6 C        3.902     0.026    20.078     6.369
    60   6 C        3.761    -0.109    22.629     6.781
    61   6 C        3.761    -0.106    22.576     6.773
    62   6 C        3.761    -0.106    22.576     6.773
    63   6 C        2.925    -0.038    28.952     8.824
    64   6 C        2.921    -0.042    29.034     8.836
    65   1 H        0.925     0.045     2.383     2.414
    66   1 H        0.925     0.038     2.475     2.460
    67   1 H        0.924     0.046     2.372     2.409
    68   1 H        0.926     0.034     2.532     2.488
    69   1 H        0.926     0.032     2.554     2.499
    70   1 H        0.925     0.016     2.797     2.615
    71   1 H        0.926     0.037     2.490     2.467
    72   1 H        0.926     0.042     2.418     2.431
    73   1 H        0.926     0.032     2.560     2.502
    74   1 H        0.926     0.034     2.533     2.489
    75   1 H        0.926     0.035     2.519     2.482
    76   1 H        0.926     0.036     2.505     2.475
    77   1 H        0.926     0.024     2.680     2.560
    78   1 H        0.926     0.031     2.575     2.509
    79   1 H        0.926     0.032     2.559     2.502
    80   1 H        0.926     0.033     2.545     2.495
    81   1 H        0.926     0.033     2.543     2.494
    82   1 H        0.925     0.046     2.365     2.405
    83   1 H        0.926     0.047     2.360     2.403
    84   1 H        0.926     0.042     2.417     2.431
    85   1 H        0.926     0.035     2.522     2.484
    86   1 H        0.926     0.035     2.510     2.478
    87   1 H        0.926     0.036     2.503     2.474
    88   1 H        0.926     0.037     2.484     2.465
    89   1 H        0.925     0.033     2.549     2.497
    90   1 H        0.926     0.035     2.522     2.483
    91   1 H        0.926     0.032     2.554     2.499
    92   1 H        0.926     0.030     2.591     2.517
    93   1 H        0.926     0.025     2.662     2.551
    94   1 H        0.926     0.035     2.516     2.480
    95   1 H        0.925     0.018     2.768     2.602
    96   1 H        0.925     0.046     2.366     2.405
    97   1 H        0.925     0.047     2.361     2.403
    98   1 H        0.925     0.038     2.478     2.462
    99   1 H        0.926     0.034     2.532     2.488
   100   1 H        0.926     0.031     2.570     2.507
   101   1 H        0.926     0.036     2.508     2.477
   102   1 H        0.926     0.041     2.442     2.444
   103   1 H        0.925     0.038     2.480     2.462
   104   1 H        0.925     0.039     2.456     2.451
   105   1 H        0.925     0.038     2.480     2.463
   106   1 H        0.925     0.034     2.529     2.487
   107   1 H        0.925     0.041     2.436     2.441
   108   1 H        0.925     0.038     2.474     2.460
   109   1 H        0.925     0.034     2.528     2.487
   110   1 H        0.925     0.038     2.475     2.460
   111   1 H        0.925     0.041     2.436     2.441
   112   1 H        0.926     0.048     2.344     2.394
   113   1 H        0.926     0.040     2.454     2.450

molecular dipole:
                 x           y           z       tot (Debye)
 q only:        2.611      -2.205      -0.231
   full:        2.478      -2.113      -0.229       8.299

 projected vibrational frequencies (cm⁻¹)
eigval :       -0.00    -0.00     0.00     0.00     0.00     0.00
eigval :        5.80     7.30    11.16    14.70    20.14    25.09
eigval :       27.60    29.62    33.87    37.03    41.51    42.13
eigval :       47.14    52.07    55.65    58.51    64.10    79.13
eigval :       82.49    87.31    90.42    94.65    99.40   103.35
eigval :      105.30   120.05   124.66   131.66   132.24   135.11
eigval :      157.40   171.49   174.65   184.07   191.86   200.63
eigval :      207.44   218.20   225.24   232.42   243.98   255.18
eigval :      257.53   262.75   274.53   288.24   297.16   301.11
eigval :      305.72   316.78   318.69   324.81   326.55   333.94
eigval :      339.19   348.87   361.07   361.51   363.17   368.37
eigval :      374.93   376.48   382.28   397.20   399.52   404.39
eigval :      406.30   423.92   427.31   436.68   437.63   448.90
eigval :      455.74   467.78   471.91   486.38   494.27   502.12
eigval :      511.28   516.43   525.38   535.55   537.74   539.04
eigval :      545.74   551.45   577.40   580.06   583.28   585.10
eigval :      588.51   590.21   596.57   602.84   612.13   618.82
eigval :      627.18   632.23   635.99   660.52   665.02   667.37
eigval :      670.44   673.36   673.93   685.06   703.18   705.01
eigval :      709.54   713.19   726.54   738.73   739.26   743.66
eigval :      756.94   758.39   762.46   785.44   786.19   786.76
eigval :      807.14   811.95   816.57   818.54   834.24   841.95
eigval :      867.58   868.07   871.57   874.83   878.96   880.62
eigval :      885.94   886.74   887.20   887.92   896.28   903.14
eigval :      904.48   911.87   912.84   913.41   919.82   921.22
eigval :      922.19   923.35   925.49   925.83   927.27   927.53
eigval :      930.17   930.79   930.87   931.57   932.54   933.05
eigval :      954.98   959.38   960.10   961.84   963.30   963.91
eigval :      969.71   997.02  1014.79  1019.38  1026.77  1029.47
eigval :     1029.83  1033.57  1034.07  1034.17  1035.15  1077.85
eigval :     1079.71  1086.47  1089.35  1092.38  1101.08  1103.27
eigval :     1119.74  1121.50  1136.88  1137.09  1139.80  1143.39
eigval :     1143.65  1146.63  1146.93  1178.76  1179.70  1180.06
eigval :     1181.07  1181.45  1184.39  1193.38  1196.60  1197.90
eigval :     1201.06  1203.52  1217.33  1221.78  1225.40  1231.69
eigval :     1237.80  1241.20  1245.50  1248.61  1252.14  1257.19
eigval :     1266.74  1267.33  1273.72  1277.82  1279.37  1282.10
eigval :     1284.71  1286.39  1289.24  1294.37  1300.37  1310.10
eigval :     1310.59  1312.74  1316.35  1318.83  1326.82  1333.48
eigval :     1338.43  1340.12  1342.02  1364.15  1393.81  1395.40
eigval :     1398.90  1401.83  1402.24  1403.47  1406.47  1418.74
eigval :     1419.05  1422.49  1424.64  1427.09  1433.87  1435.04
eigval :     1450.56  1454.30  1476.71  1481.29  1481.58  1483.75
eigval :     1483.86  1486.17  1486.50  1488.42  1489.32  1490.50
eigval :     1494.95  1496.40  1498.83  1502.46  1506.52  1511.56
eigval :     1515.78  1549.92  1560.91  1566.23  1567.26  1569.13
eigval :     1569.18  1581.15  1581.67  1582.53  1583.61  1587.52
eigval :     1590.02  1593.09  1599.55  1600.31  1600.78  1605.96
eigval :     1614.08  1630.79  2985.78  2998.22  3011.93  3021.68
eigval :     3021.99  3025.60  3026.11  3029.70  3029.84  3031.58
eigval :     3032.02  3037.47  3041.03  3045.14  3048.53  3059.44
eigval :     3060.51  3063.92  3066.26  3069.48  3070.67  3071.13
eigval :     3072.03  3072.90  3073.31  3074.98  3075.53  3075.55
eigval :     3075.65  3076.19  3077.53  3078.36  3078.98  3080.35
eigval :     3080.42  3081.29  3084.95  3085.93  3088.06  3089.02
eigval :     3090.36  3091.24  3092.11  3093.09  3093.96  3095.90
eigval :     3098.18  3099.24  3117.88

   temp. (K)  partition function   enthalpy   heat capacity  entropy
                                   cal/mol     cal/K/mol   cal/K/mol   J/K/mol
 298.15  VIB  0.250E+28            33145.357    202.062    210.004
         ROT  0.147E+09              888.752      2.981     40.353
         INT  0.368E+36            34034.109    205.043    250.357
         TR   0.229E+29             1481.254      4.968     45.984
         TOT                       35515.3631   210.0115   296.3409  1239.8905

       T/K    H(0)-H(T)+PV         H(T)/Eh          T*S/Eh         G(T)/Eh
   ------------------------------------------------------------------------
    298.15    0.565973E-01    0.955735E+00    0.140801E+00    0.814934E+00
   ------------------------------------------------------------------------

         :::::::::::::::::::::::::::::::::::::::::::::::::::::
         ::                  THERMODYNAMIC                  ::
         :::::::::::::::::::::::::::::::::::::::::::::::::::::
         :: total free energy        -164.057177494093 Eh   ::
         ::.................................................::
         :: total energy             -164.872111046452 Eh   ::
         :: zero point energy           0.899137359902 Eh   ::
         :: G(RRHO) w/o ZPVE           -0.084203807543 Eh   ::
         :: G(RRHO) contrib.            0.814933552359 Eh   ::
         :::::::::::::::::::::::::::::::::::::::::::::::::::::

           -------------------------------------------------
          | TOTAL ENERGY             -164.872111046452 Eh   |
          | TOTAL ENTHALPY           -163.916376352853 Eh   |
          | TOTAL FREE ENERGY        -164.057177494093 Eh   |
          | GRADIENT NORM               0.000062499050 Eh/α |
          | HOMO-LUMO GAP               1.388133735586 eV   |
           -------------------------------------------------

 * finished run on 2025/09/11 at 22:41:14.981
