   * xtb version 6.7.1 (edcfbbe) compiled by 'albert@albert-system' on 2024-07-22

   ID    Z sym.   atoms
    1    6 C      1-27, 29-53, 55-64
    2    8 O      28
    3    7 N      54
    4    1 H      65-113

          program call               : xtb data2507/toluene/SIR-C/SIR-C_toluene_T1_crest.xyz --gfn 2 --uhf 2 --gbsa toluene --ohess vtight --parallel 40 --molden --ceasefiles --namespace data2507/toluene/SIR-C/SIR-C_toluene_T1_finalOpt
      * Solvation model:               GBSA
        Solvent                        toluene
        Solvent mass                       9.2140E+01 g/mol
          :  Hamiltonian                  GFN2-xTB          :
 * total energy  :  -164.7972469 Eh     change       -0.5677776E-08 Eh
 * total energy  :  -164.7974682 Eh     change       -0.2213489E-03 Eh
 * total energy  :  -164.7975873 Eh     change       -0.1190576E-03 Eh
 * total energy  :  -164.7976286 Eh     change       -0.4130702E-04 Eh
 * total energy  :  -164.7976922 Eh     change       -0.6361487E-04 Eh
 * total energy  :  -164.7977630 Eh     change       -0.7081864E-04 Eh
 * total energy  :  -164.7978270 Eh     change       -0.6403731E-04 Eh
 * total energy  :  -164.7978721 Eh     change       -0.4506731E-04 Eh
 * total energy  :  -164.7979126 Eh     change       -0.4044647E-04 Eh
 * total energy  :  -164.7979387 Eh     change       -0.2610653E-04 Eh
 * total energy  :  -164.7983420 Eh     change       -0.2823646E-06 Eh
 * total energy  :  -164.7983423 Eh     change       -0.2919496E-06 Eh
 * total energy  :  -164.7983427 Eh     change       -0.3440710E-06 Eh
 * total energy  :  -164.7983430 Eh     change       -0.3693747E-06 Eh
 * total energy  :  -164.7983435 Eh     change       -0.4642405E-06 Eh
 * total energy  :  -164.7983441 Eh     change       -0.6172294E-06 Eh
 * total energy  :  -164.7983448 Eh     change       -0.6505581E-06 Eh
 * total energy  :  -164.7983454 Eh     change       -0.6613863E-06 Eh
 * total energy  :  -164.7983454 Eh     change       -0.3151769E-08 Eh
   *** GEOMETRY OPTIMIZATION CONVERGED AFTER 68 ITERATIONS ***

 final structure:
================
113
 xtb: 6.7.1 (edcfbbe)
C            0.23187807019775        0.24767861994457       -5.05235561670584
C            0.69817637793507        0.51936466957540       -3.65937845441679
C            1.83001763903331        1.30352237699235       -3.42384715726239
C            2.25511053570079        1.56934740410531       -2.14545310875012
C            1.54475254496901        1.07950979618022       -1.03867043570330
C            0.39954855891530        0.29735217944726       -1.26323252082295
C            0.00683224114694        0.02545325358075       -2.56423285945824
C           -0.43947630569389       -0.22907334217369       -0.12788816973226
C           -1.82741806992927        0.38081386878157       -0.27915141204903
C           -1.96377286373061        1.74279932697648       -0.07520072553346
C           -3.18726046340980        2.37427551796980       -0.22087677283472
C           -4.31673328529648        1.63359666141731       -0.57940829252806
C           -5.62819659969622        2.28886051297779       -0.73335105173134
C           -5.73798610269489        3.41723451394975       -1.54037747709724
C           -6.95908751501194        4.03374820813822       -1.74176667196203
C           -8.09484119742586        3.52452337347366       -1.13421067896659
C           -7.99836661633041        2.40718127862677       -0.32512618470936
C           -6.77482926504851        1.78015505782546       -0.10915704902573
C           -6.71010465192498        0.61614984955186        0.79430512187549
C           -7.57911763605351       -0.45690382975481        0.61952050344742
C           -7.52495675952044       -1.55083374505564        1.46414013478043
C           -6.61101282995840       -1.58200799631411        2.50355152697493
C           -5.75297997343048       -0.51150150682911        2.69533097193900
C           -5.80050793678233        0.57926005719956        1.84793635207734
C           -4.18266650426449        0.27851407637600       -0.80437720921840
C           -2.94594774515288       -0.37270488837242       -0.65695885285364
C           -2.89223808084330       -1.80348848057768       -0.87527136396813
O           -3.91135857070335       -2.45547678557746       -1.26075145808474
C           -1.63800527549132       -2.44834904002951       -0.58799043029671
C           -1.56940003486566       -3.85723601259827       -0.65656258426790
C           -0.41860704318642       -4.52788179201735       -0.34409776026792
C            0.74100631222718       -3.83346024431797        0.02879772292231
C            1.95405752344015       -4.55549433957232        0.41646688777759
C            1.83740027758889       -5.65982667945714        1.26425521121490
C            2.94791837688355       -6.34966807411371        1.70692620983128
C            4.21378100453876       -5.94324756704711        1.31368553669151
C            4.34772989371283       -4.85876355721398        0.46688006475655
C            3.23720160948955       -4.15989387419486        0.00151371330178
C            3.45462331338582       -3.08295413295607       -0.98053717603292
C            4.43684762413983       -2.11872695119130       -0.76641801726129
C            4.70213892501171       -1.15625936565589       -1.72360896230323
C            3.99417383107140       -1.14636672246325       -2.91286039626791
C            3.01058700586394       -2.09628185135050       -3.13370479754752
C            2.74113901173039       -3.05596218654572       -2.17692139471346
C            0.68065908950503       -2.43725274662149        0.07248768621279
C           -0.47834945709804       -1.74896481250961       -0.21578960198165
C            0.10809281315053        0.16160442495684        1.21711165407239
C           -0.57240337380368       -0.24790486456593        2.35351052461807
C           -0.13796497831879        0.08073085638662        3.62836346104325
C           -0.89447632838054       -0.35435881136919        4.84071290459840
C            1.01748099615379        0.85772369098557        3.74953006252708
C            1.71057673545540        1.27738040207107        2.64025303855474
C            1.27466215366135        0.93192155117764        1.35071866412000
N            1.96560550560951        1.36253444663576        0.24057155512804
C            3.15809742537618        2.12348126666890        0.42618648771980
C            3.13952464129335        3.50419177308566        0.30056724403765
C            4.30249032865459        4.23190671104804        0.48703674618063
C            5.50526683079899        3.60791589152128        0.80008785714333
C            6.80245811147994        4.37142047962858        1.01185461442784
C            7.83973357881943        3.88452621842977       -0.01134395590116
C            7.30971331703145        4.10404124728025        2.43697839776971
C            6.63295609732498        5.88376158863180        0.83930629914298
C            5.49959244734640        2.21895534563843        0.92202446950149
C            4.34724306433460        1.48008048824248        0.74137675618357
H           -0.39156112712921        1.07302492254405       -5.39950728637284
H            1.07425518108961        0.15630024111799       -5.73443967768402
H           -0.36467450700228       -0.66064852562425       -5.09125465472566
H            2.38197695592302        1.70300903706825       -4.26141350400321
H            3.14223272823946        2.16156283813257       -1.98816377855621
H           -0.87289283009167       -0.58360053087416       -2.71665160910265
H           -1.09752756966685        2.32354084005360        0.21105892079968
H           -3.27449159702035        3.43473895213900       -0.03708206964401
H           -4.85220078408846        3.79862636165238       -2.02833968624304
H           -7.02563100874114        4.90656527609015       -2.37506996590770
H           -9.05358130349054        3.99824376757240       -1.28787783085863
H           -8.87940602081567        2.01743734016334        0.16514619167084
H           -8.28371168013821       -0.44213358923730       -0.20053905208768
H           -8.19608964296500       -2.38347462056937        1.30772727306223
H           -6.56657664428403       -2.43881934561448        3.16050507968669
H           -5.04261823463302       -0.52754298422012        3.50952778887624
H           -5.13179915058035        1.41378375919171        2.00263721138529
H           -5.02680718798799       -0.32527955880290       -1.10550507948811
H           -2.46611309965910       -4.38157212073038       -0.95670607636786
H           -0.39571866647196       -5.60687803852299       -0.41213317013648
H            0.85288897582090       -5.96074793898365        1.59397178470494
H            2.82877715207670       -7.19993386335290        2.36322303932506
H            5.08923570412598       -6.47505173141190        1.65683730861552
H            5.33112896896916       -4.56087271316505        0.13045490705811
H            4.99180940148909       -2.12932774021390        0.16185076234350
H            5.46958603889882       -0.41647161169526       -1.54675576944620
H            4.21255480709688       -0.40649388245468       -3.66763292832703
H            2.45616009995313       -2.09699127847610       -4.06040517985433
H            1.98519177798009       -3.80573059209506       -2.36069361009156
H            1.56081580029686       -1.88480158143732        0.37078345583470
H           -1.46746170918953       -0.84020840189710        2.22485758788857
H           -1.50963320764945       -1.22365529583142        4.62238440967863
H           -0.21504124209490       -0.59124783540224        5.65653846606874
H           -1.55031785311565        0.45093290774959        5.17490597909670
H            1.37016340859797        1.13471141088970        4.73170983883243
H            2.59599959114604        1.88147421197625        2.75904792431081
H            2.21511283197774        4.00746731614016        0.05828029729494
H            4.25039595432135        5.30256198569379        0.38328915729764
H            8.05434315122319        2.82650550900928        0.11032232111012
H            8.76977097942150        4.43517325606357        0.11123462965813
H            7.47552800102757        4.04598984235178       -1.02411356291264
H            7.51546962637546        3.04922471250766        2.59607968414214
H            8.22791302871438        4.65935936693061        2.61508561555684
H            6.56830112909710        4.42218655739272        3.16739091165840
H            6.29782071013547        6.12980738265964       -0.16574505698550
H            5.92648738909742        6.28548613169814        1.56213893755072
H            7.59059152267188        6.37427851709369        1.00101638576484
H            6.40991721375703        1.69318764458651        1.16379558455276
H            4.35939222312533        0.40546138173289        0.83853613007718

          :  Hamiltonian                  GFN2-xTB          :
         :: gradient norm              0.000044686185 Eh/a0 ::
         :: HOMO-LUMO gap              0.792992450222 eV    ::
         :: SCC energy              -167.837611374125 Eh    ::
         :: -> dispersion             -0.172833090069 Eh    ::
         :: -> Gsolv                  -0.077096743992 Eh    ::
         :: repulsion energy           3.039265933500 Eh    ::

    * Orbital Energies and Occupations

         #    Occupation            Energy/Eh            Energy/eV
      -------------------------------------------------------------
         1        2.0000           -0.6932114             -18.8632
       ...           ...                  ...                  ...
       143        2.0000           -0.4030714             -10.9681
       144        2.0000           -0.4026796             -10.9575
       145        2.0000           -0.4007346             -10.9045
       146        2.0000           -0.4002753             -10.8920
       147        2.0000           -0.3966494             -10.7934
       148        2.0000           -0.3938380             -10.7169
       149        2.0000           -0.3892958             -10.5933
       150        2.0000           -0.3881012             -10.5608
       151        2.0000           -0.3764306             -10.2432
       152        2.0000           -0.3740770             -10.1792
       153        1.9738           -0.3678668             -10.0102
       154        1.0263           -0.3610015              -9.8233
       155        1.0000           -0.2779542              -7.5635 (HOMO)
       156        0.0000           -0.2488131              -6.7705 (LUMO)
       157                         -0.2417711              -6.5789
       158                         -0.2410988              -6.5606
       159                         -0.2397932              -6.5251
       160                         -0.2383145              -6.4849
       161                         -0.2367579              -6.4425
       162                         -0.2348907              -6.3917
       163                         -0.2307745              -6.2797
       164                         -0.2281488              -6.2082
       165                         -0.2216849              -6.0324
       166                         -0.2181401              -5.9359
       ...                                ...                  ...
       305                          0.7042339              19.1632
      -------------------------------------------------------------
                  HL-Gap            0.0291411 Eh            0.7930 eV

     #   Z          covCN         q      C6AA      α(0)
     1   6 C        3.758    -0.112    22.689     6.791
     2   6 C        2.964     0.027    27.391     8.585
     3   6 C        2.923    -0.034    28.836     8.806
     4   6 C        2.919    -0.047    29.176     8.858
     5   6 C        2.929     0.059    26.672     8.470
     6   6 C        2.988     0.005    27.914     8.667
     7   6 C        2.929    -0.039    28.966     8.826
     8   6 C        3.929     0.022    20.148     6.379
     9   6 C        2.987    -0.005    28.139     8.701
    10   6 C        2.921    -0.040    28.988     8.829
    11   6 C        2.923    -0.051    29.262     8.871
    12   6 C        2.974     0.006    27.874     8.660
    13   6 C        2.980     0.006    27.876     8.661
    14   6 C        2.925    -0.036    28.884     8.814
    15   6 C        2.918    -0.033    28.833     8.805
    16   6 C        2.918    -0.033    28.834     8.806
    17   6 C        2.925    -0.035    28.878     8.813
    18   6 C        2.979     0.005    27.907     8.665
    19   6 C        2.977     0.012    27.733     8.638
    20   6 C        2.925    -0.033    28.832     8.806
    21   6 C        2.919    -0.030    28.741     8.791
    22   6 C        2.920    -0.032    28.803     8.801
    23   6 C        2.919    -0.031    28.780     8.797
    24   6 C        2.924    -0.032    28.805     8.801
    25   6 C        2.932    -0.033    28.812     8.803
    26   6 C        2.976    -0.021    28.522     8.760
    27   6 C        2.838     0.168    24.378     8.091
    28   8 O        0.857    -0.522    24.267     6.605
    29   6 C        2.976    -0.026    28.656     8.781
    30   6 C        2.922    -0.035    28.866     8.811
    31   6 C        2.920    -0.041    29.027     8.835
    32   6 C        2.975    -0.006    28.166     8.705
    33   6 C        2.976     0.004    27.939     8.670
    34   6 C        2.926    -0.038    28.950     8.824
    35   6 C        2.917    -0.034    28.854     8.809
    36   6 C        2.917    -0.038    28.939     8.822
    37   6 C        2.926    -0.037    28.921     8.819
    38   6 C        2.978    -0.000    28.033     8.685
    39   6 C        2.977     0.012    27.751     8.641
    40   6 C        2.925    -0.038    28.943     8.823
    41   6 C        2.918    -0.033    28.830     8.805
    42   6 C        2.920    -0.035    28.875     8.812
    43   6 C        2.919    -0.031    28.785     8.798
    44   6 C        2.925    -0.032    28.790     8.799
    45   6 C        2.927    -0.041    29.025     8.835
    46   6 C        2.982    -0.005    28.134     8.701
    47   6 C        2.986     0.005    27.913     8.666
    48   6 C        2.929    -0.038    28.948     8.823
    49   6 C        2.963     0.027    27.398     8.586
    50   6 C        3.758    -0.113    22.722     6.796
    51   6 C        2.923    -0.035    28.879     8.813
    52   6 C        2.918    -0.048    29.202     8.862
    53   6 C        2.929     0.059    26.686     8.472
    54   7 N        2.754    -0.008    21.417     6.873
    55   6 C        2.931     0.053    26.812     8.492
    56   6 C        2.919    -0.038    28.933     8.821
    57   6 C        2.926    -0.035    28.877     8.813
    58   6 C        2.973     0.017    27.626     8.621
    59   6 C        3.903     0.027    20.059     6.366
    60   6 C        3.761    -0.108    22.605     6.778
    61   6 C        3.761    -0.108    22.610     6.778
    62   6 C        3.761    -0.111    22.670     6.787
    63   6 C        2.928    -0.030    28.753     8.794
    64   6 C        2.919    -0.037    28.923     8.819
    65   1 H        0.924     0.063     2.162     2.299
    66   1 H        0.925     0.059     2.210     2.325
    67   1 H        0.925     0.049     2.332     2.388
    68   1 H        0.926     0.055     2.257     2.349
    69   1 H        0.926     0.055     2.263     2.352
    70   1 H        0.926     0.035     2.517     2.481
    71   1 H        0.925     0.023     2.685     2.562
    72   1 H        0.926     0.031     2.571     2.507
    73   1 H        0.926     0.033     2.545     2.495
    74   1 H        0.926     0.033     2.541     2.493
    75   1 H        0.926     0.033     2.548     2.496
    76   1 H        0.926     0.032     2.565     2.504
    77   1 H        0.925     0.028     2.616     2.529
    78   1 H        0.926     0.028     2.610     2.526
    79   1 H        0.926     0.029     2.607     2.525
    80   1 H        0.926     0.030     2.585     2.514
    81   1 H        0.926     0.028     2.614     2.528
    82   1 H        0.926     0.025     2.664     2.552
    83   1 H        0.925     0.024     2.677     2.559
    84   1 H        0.925     0.025     2.656     2.548
    85   1 H        0.926     0.025     2.654     2.548
    86   1 H        0.926     0.026     2.637     2.539
    87   1 H        0.926     0.028     2.620     2.531
    88   1 H        0.926     0.030     2.586     2.515
    89   1 H        0.925     0.030     2.590     2.517
    90   1 H        0.926     0.035     2.519     2.482
    91   1 H        0.926     0.033     2.550     2.497
    92   1 H        0.926     0.028     2.620     2.531
    93   1 H        0.926     0.022     2.705     2.572
    94   1 H        0.926     0.019     2.755     2.595
    95   1 H        0.926     0.036     2.498     2.472
    96   1 H        0.925     0.050     2.315     2.379
    97   1 H        0.925     0.059     2.205     2.322
    98   1 H        0.924     0.064     2.151     2.294
    99   1 H        0.926     0.055     2.261     2.351
   100   1 H        0.926     0.053     2.281     2.362
   101   1 H        0.926     0.045     2.379     2.412
   102   1 H        0.926     0.058     2.226     2.333
   103   1 H        0.925     0.040     2.449     2.447
   104   1 H        0.925     0.042     2.418     2.432
   105   1 H        0.925     0.036     2.501     2.473
   106   1 H        0.925     0.040     2.447     2.446
   107   1 H        0.925     0.042     2.416     2.431
   108   1 H        0.925     0.036     2.503     2.474
   109   1 H        0.925     0.039     2.457     2.451
   110   1 H        0.925     0.039     2.459     2.452
   111   1 H        0.925     0.041     2.437     2.441
   112   1 H        0.926     0.051     2.313     2.378
   113   1 H        0.926     0.047     2.358     2.401

molecular dipole:
                 x           y           z       tot (Debye)
 q only:        5.421       4.381       1.310
   full:        5.187       4.110       1.244      17.117

 projected vibrational frequencies (cm⁻¹)
eigval :       -0.00    -0.00    -0.00     0.00     0.00     0.00
eigval :        9.17    13.11    17.78    20.76    24.71    30.01
eigval :       30.86    32.91    38.55    41.96    47.29    49.15
eigval :       56.92    59.92    66.53    71.36    81.51    82.34
eigval :       84.87    88.54    92.30    96.92   101.96   104.29
eigval :      117.21   124.37   128.66   130.16   137.77   141.37
eigval :      162.89   176.53   182.35   183.68   190.35   202.54
eigval :      215.26   219.70   225.96   234.39   249.57   258.93
eigval :      261.41   266.06   270.12   292.42   296.77   299.55
eigval :      306.59   308.68   314.48   315.40   318.63   331.71
eigval :      338.48   348.52   358.66   362.24   363.49   367.58
eigval :      376.95   378.92   380.49   392.43   398.13   401.25
eigval :      407.13   421.19   423.71   434.07   437.39   446.43
eigval :      455.39   463.45   484.09   489.30   496.67   501.30
eigval :      508.76   515.78   531.18   533.17   535.05   537.05
eigval :      538.36   546.29   571.13   576.69   580.16   583.89
eigval :      587.04   589.81   591.00   598.43   609.71   612.80
eigval :      613.90   619.60   623.25   634.21   659.63   662.74
eigval :      669.55   672.60   674.16   682.17   683.89   693.35
eigval :      702.91   705.05   711.00   724.88   737.88   745.45
eigval :      755.23   758.23   762.26   774.41   777.97   785.96
eigval :      805.41   808.77   810.58   813.95   819.23   824.15
eigval :      866.04   871.62   875.52   876.86   877.02   878.09
eigval :      879.47   880.73   884.75   885.29   889.29   891.16
eigval :      899.44   903.25   909.87   913.25   914.32   916.44
eigval :      918.05   918.58   919.21   920.58   920.89   927.85
eigval :      929.14   929.23   930.52   931.69   933.03   937.16
eigval :      947.12   957.06   958.78   961.76   962.46   962.79
eigval :      965.32   995.42  1013.28  1019.11  1023.38  1023.79
eigval :     1025.51  1027.82  1029.56  1033.40  1033.65  1074.76
eigval :     1077.60  1080.72  1087.79  1088.75  1101.04  1102.07
eigval :     1119.78  1120.34  1124.58  1134.67  1139.03  1142.65
eigval :     1144.95  1146.63  1147.22  1166.42  1179.79  1180.44
eigval :     1181.50  1182.10  1182.68  1187.49  1189.61  1192.45
eigval :     1198.33  1201.02  1202.54  1212.94  1219.37  1224.92
eigval :     1230.82  1232.57  1243.69  1246.15  1249.58  1251.46
eigval :     1256.53  1263.14  1270.05  1277.04  1278.25  1281.35
eigval :     1281.93  1284.39  1286.39  1287.84  1294.13  1309.92
eigval :     1310.72  1316.39  1317.54  1318.50  1319.76  1323.81
eigval :     1341.18  1342.89  1345.25  1349.10  1357.87  1394.77
eigval :     1398.14  1399.34  1401.13  1402.51  1406.86  1418.55
eigval :     1419.79  1420.60  1423.74  1427.50  1432.63  1433.71
eigval :     1434.16  1445.48  1449.17  1459.74  1467.30  1469.32
eigval :     1470.31  1471.07  1473.29  1475.20  1477.57  1480.58
eigval :     1487.00  1487.80  1489.51  1490.12  1493.86  1497.62
eigval :     1501.41  1511.35  1514.73  1522.08  1532.27  1541.51
eigval :     1547.31  1555.11  1566.20  1567.10  1575.15  1580.15
eigval :     1582.26  1582.30  1587.38  1589.96  1591.51  1596.33
eigval :     1598.74  1600.55  2990.91  2991.90  3023.57  3024.09
eigval :     3027.44  3027.77  3031.76  3033.60  3033.72  3033.92
eigval :     3039.39  3041.29  3045.05  3046.08  3049.37  3059.53
eigval :     3060.83  3060.87  3063.42  3064.16  3065.96  3067.41
eigval :     3068.01  3068.82  3070.00  3073.41  3073.72  3073.78
eigval :     3074.31  3075.69  3076.99  3079.23  3080.36  3080.82
eigval :     3081.23  3083.42  3083.58  3084.49  3084.57  3087.00
eigval :     3087.32  3088.67  3088.94  3094.14  3095.71  3104.22
eigval :     3108.13  3110.35  3124.50

   temp. (K)  partition function   enthalpy   heat capacity  entropy
                                   cal/mol     cal/K/mol   cal/K/mol   J/K/mol
 298.15  VIB  0.465E+26            33026.501    204.506    206.714
         ROT  0.147E+09              888.752      2.981     40.350
         INT  0.683E+34            33915.253    207.487    247.063
         TR   0.229E+29             1481.254      4.968     45.984
         TOT                       35396.5073   212.4553   293.0472  1226.1097

       T/K    H(0)-H(T)+PV         H(T)/Eh          T*S/Eh         G(T)/Eh
   ------------------------------------------------------------------------
    298.15    0.564079E-01    0.953070E+00    0.139236E+00    0.813834E+00
   ------------------------------------------------------------------------

         :::::::::::::::::::::::::::::::::::::::::::::::::::::
         ::                  THERMODYNAMIC                  ::
         :::::::::::::::::::::::::::::::::::::::::::::::::::::
         :: total free energy        -163.984511142065 Eh   ::
         ::.................................................::
         :: total energy             -164.798345439961 Eh   ::
         :: zero point energy           0.896662573303 Eh   ::
         :: G(RRHO) w/o ZPVE           -0.082828275407 Eh   ::
         :: G(RRHO) contrib.            0.813834297896 Eh   ::
         :::::::::::::::::::::::::::::::::::::::::::::::::::::

           -------------------------------------------------
          | TOTAL ENERGY             -164.798345439961 Eh   |
          | TOTAL ENTHALPY           -163.845274941834 Eh   |
          | TOTAL FREE ENERGY        -163.984511142065 Eh   |
          | GRADIENT NORM               0.000050250520 Eh/α |
          | HOMO-LUMO GAP               0.792970685510 eV   |
           -------------------------------------------------

 * finished run on 2025/09/11 at 23:17:30.734
