   * xtb version 6.7.1 (edcfbbe) compiled by 'albert@albert-system' on 2024-07-22

   ID    Z sym.   atoms
    1    6 C      1-8, 10-13, 15-26
    2   35 Br     9
    3    7 N      14
    4    1 H      27-50

          program call               : xtb data2507/gas/BuPCzBCO/BuPCzBCO_gas_S0_crest.xyz --gfn 2 --ohess vtight --parallel 40 --molden --ceasefiles --namespace data2507/gas/BuPCzBCO/BuPCzBCO_gas_S0_finalOpt
          :  Hamiltonian                  GFN2-xTB          :
 * total energy  :   -70.7055262 Eh     change       -0.3665122E-09 Eh
 * total energy  :   -70.7055264 Eh     change       -0.2687733E-06 Eh
 * total energy  :   -70.7055267 Eh     change       -0.2682487E-06 Eh
 * total energy  :   -70.7055271 Eh     change       -0.3966793E-06 Eh
 * total energy  :   -70.7055274 Eh     change       -0.2862017E-06 Eh
 * total energy  :   -70.7055276 Eh     change       -0.2008134E-06 Eh
 * total energy  :   -70.7055278 Eh     change       -0.2194878E-06 Eh
 * total energy  :   -70.7055280 Eh     change       -0.1849879E-06 Eh
 * total energy  :   -70.7055281 Eh     change       -0.7830972E-07 Eh
   *** GEOMETRY OPTIMIZATION CONVERGED AFTER 9 ITERATIONS ***

 final structure:
================
50
 xtb: 6.7.1 (edcfbbe)
C            1.66327218065702        5.53917139003655       -0.12469957650667
C            0.72179750500126        4.37340273028893       -0.08242078309046
C           -0.65828050902524        4.60802253876179       -0.05880338376384
C           -1.56963037324004        3.57489760339993       -0.03658758553644
C           -1.09527104568950        2.26900548012615       -0.02248882129747
C           -1.72690877178499        0.98172081828752       -0.01930862668062
C           -3.04916458934722        0.56316092918834       -0.00364126748398
C           -3.29854429333389       -0.79312975510057        0.01598150378831
Br          -5.12622728455743       -1.36095789602029        0.02929200359600
C           -2.28510556514177       -1.75999550251396        0.03644137864309
C           -2.61700941241704       -3.21793208681458        0.07751044241665
C           -0.96589257404073       -1.33663472450033        0.02037718209422
C           -0.68773631843533        0.02191073003822       -0.02293147493360
N            0.52782724734243        0.66790118858246       -0.02323086608995
C            1.78732714031188        0.04841446618895       -0.02117337759599
C            2.74850613708651        0.40829441492759        0.91718116529617
C            3.98577893425997       -0.20274435364508        0.90923324695911
C            4.30822566975441       -1.19310313951849       -0.01656741244490
C            5.68498125644040       -1.83638888247263        0.02420270500331
C            6.75017313418534       -0.75020590621911       -0.18223537253291
C            5.87186655785818       -2.90020642464807       -1.06083748782176
C            5.88329524588893       -2.50686866561765        1.39109368603772
C            3.33459555054945       -1.54482598764117       -0.94388457150653
C            2.09382168882670       -0.93325997682339       -0.95417256348671
C            0.29679113377629        2.02959010582033       -0.02262121562191
C            1.20606351673319        3.07650105006753       -0.06796069694728
H            1.53850129582467        6.15857336384059        0.76300074170422
H            2.69675803157838        5.20566181252999       -0.17277196781427
H            1.45719390412915        6.16188279608392       -0.99431512889749
H           -1.00888654520369        5.62980666842636       -0.06787948415673
H           -2.63089642960016        3.77206273472192       -0.03397615942696
H           -3.85915380931292        1.27563240215222       -0.00354714324598
H           -3.21156951096986       -3.44959168880659        0.96130238418362
H           -1.71138417356449       -3.81851677100957        0.09811681403129
H           -3.20557961304209       -3.50007002963481       -0.79570831139996
H           -0.16826624800019       -2.06351487986426        0.05263070845476
H            2.51582409929647        1.15832646472324        1.65849806090583
H            4.70890249586106        0.09977070595833        1.65133417973649
H            6.60197022356843       -0.25520382383264       -1.13981737681793
H            7.74321172394608       -1.19418353839296       -0.17349727735678
H            6.70777136616838        0.00195676139334        0.60053781453695
H            6.87111437672534       -3.32368922976490       -0.98349064604383
H            5.15537081517570       -3.70994864261482       -0.94365699691264
H            5.76659625152960       -2.46998637988675       -2.05411894758720
H            6.85755489012646       -2.98893667158712        1.43298776178200
H            5.11736309896874       -3.26222151672753        1.55439147264588
H            5.82686634214088       -1.78431664918680        2.20038122653565
H            3.53045743655336       -2.30158566331909       -1.68556689891632
H            1.36162232181120       -1.20854945808758       -1.69892911496394
H            2.26858701153072        2.88578003790656       -0.10295863117036

          :  Hamiltonian                  GFN2-xTB          :
         :: gradient norm              0.000044784972 Eh/a0 ::
         :: HOMO-LUMO gap              3.107180717780 eV    ::
         :: SCC energy               -71.903688730935 Eh    ::
         :: -> dispersion             -0.059741934007 Eh    ::
         :: repulsion energy           1.198160651689 Eh    ::

    * Orbital Energies and Occupations

         #    Occupation            Energy/Eh            Energy/eV
      -------------------------------------------------------------
         1        2.0000           -0.8231763             -22.3998
       ...           ...                  ...                  ...
        54        2.0000           -0.4407620             -11.9937
        55        2.0000           -0.4298764             -11.6975
        56        2.0000           -0.4276103             -11.6359
        57        2.0000           -0.4258553             -11.5881
        58        2.0000           -0.4216827             -11.4746
        59        2.0000           -0.4208835             -11.4528
        60        2.0000           -0.4151555             -11.2970
        61        2.0000           -0.4137729             -11.2593
        62        2.0000           -0.4052994             -11.0288
        63        2.0000           -0.3961707             -10.7804
        64        2.0000           -0.3933725             -10.7042
        65        2.0000           -0.3752279             -10.2105
        66        2.0000           -0.3630195              -9.8783 (HOMO)
        67                         -0.2488329              -6.7711 (LUMO)
        68                         -0.2359500              -6.4205
        69                         -0.2319982              -6.3130
        70                         -0.2280222              -6.2048
        71                         -0.1971196              -5.3639
        72                         -0.1908475              -5.1932
        73                         -0.1897363              -5.1630
        74                         -0.1100230              -2.9939
        75                         -0.0942074              -2.5635
        76                         -0.0665488              -1.8109
        77                          0.0073346               0.1996
       ...                                ...                  ...
       133                          0.7404592              20.1489
      -------------------------------------------------------------
                  HL-Gap            0.1141867 Eh            3.1072 eV

     #   Z          covCN         q      C6AA      α(0)
     1   6 C        3.758    -0.109    22.625     6.781
     2   6 C        2.970     0.015    27.662     8.627
     3   6 C        2.926    -0.050    29.241     8.868
     4   6 C        2.911    -0.034    28.841     8.806
     5   6 C        3.068    -0.021    28.455     8.747
     6   6 C        3.075    -0.021    28.446     8.745
     7   6 C        2.996    -0.041    29.017     8.836
     8   6 C        2.922     0.061    26.644     8.465
     9  35 Br       1.075    -0.193   190.406    22.249
    10   6 C        3.030     0.008    27.801     8.649
    11   6 C        3.763    -0.103    22.513     6.763
    12   6 C        2.918    -0.062    29.542     8.913
    13   6 C        3.074     0.044    26.937     8.510
    14   7 N        2.803    -0.042    22.044     6.973
    15   6 C        2.913     0.059    26.673     8.469
    16   6 C        2.921    -0.045    29.110     8.848
    17   6 C        2.928    -0.034    28.853     8.809
    18   6 C        2.973     0.007    27.850     8.656
    19   6 C        3.903     0.026    20.083     6.370
    20   6 C        3.762    -0.106    22.575     6.773
    21   6 C        3.761    -0.109    22.621     6.780
    22   6 C        3.762    -0.106    22.576     6.773
    23   6 C        2.925    -0.039    28.961     8.825
    24   6 C        2.921    -0.045    29.128     8.851
    25   6 C        3.080     0.046    26.885     8.501
    26   6 C        2.915    -0.060    29.499     8.906
    27   1 H        0.925     0.047     2.363     2.404
    28   1 H        0.925     0.040     2.453     2.449
    29   1 H        0.925     0.046     2.367     2.406
    30   1 H        0.926     0.031     2.575     2.510
    31   1 H        0.926     0.033     2.544     2.494
    32   1 H        0.926     0.049     2.332     2.388
    33   1 H        0.925     0.057     2.231     2.336
    34   1 H        0.925     0.040     2.451     2.448
    35   1 H        0.925     0.057     2.229     2.335
    36   1 H        0.926     0.035     2.510     2.477
    37   1 H        0.926     0.039     2.465     2.455
    38   1 H        0.926     0.036     2.507     2.476
    39   1 H        0.925     0.035     2.523     2.484
    40   1 H        0.925     0.039     2.457     2.451
    41   1 H        0.925     0.037     2.490     2.467
    42   1 H        0.925     0.038     2.471     2.458
    43   1 H        0.925     0.037     2.496     2.470
    44   1 H        0.925     0.037     2.493     2.469
    45   1 H        0.925     0.039     2.456     2.451
    46   1 H        0.925     0.034     2.523     2.484
    47   1 H        0.925     0.037     2.487     2.466
    48   1 H        0.926     0.042     2.416     2.431
    49   1 H        0.926     0.038     2.480     2.463
    50   1 H        0.926     0.029     2.603     2.523

molecular dipole:
                 x           y           z       tot (Debye)
 q only:        1.983       0.026      -0.000
   full:        2.499       0.201       0.004       6.373

 projected vibrational frequencies (cm⁻¹)
eigval :       -0.00    -0.00    -0.00     0.00     0.00     0.00
eigval :       24.10    28.52    32.07    47.73    56.41    68.49
eigval :       82.38    95.02   106.05   139.45   152.80   169.01
eigval :      173.69   179.67   202.99   219.21   223.86   242.68
eigval :      250.64   263.21   284.62   316.50   320.08   328.26
eigval :      332.88   362.83   368.30   385.96   389.43   404.65
eigval :      416.75   433.84   440.26   456.72   463.85   514.47
eigval :      537.18   562.63   565.61   579.49   581.50   602.68
eigval :      625.02   666.68   670.12   695.83   703.57   730.73
eigval :      763.64   770.62   813.23   824.29   844.60   865.07
eigval :      871.55   874.30   882.30   903.97   910.34   921.89
eigval :      933.25   960.81   962.74   963.76   971.43   989.46
eigval :     1007.73  1018.98  1020.40  1030.95  1031.38  1035.17
eigval :     1035.66  1041.73  1136.61  1143.54  1148.71  1163.28
eigval :     1188.78  1195.49  1212.50  1227.91  1228.37  1234.29
eigval :     1251.66  1277.80  1281.98  1292.13  1306.87  1319.03
eigval :     1353.68  1359.33  1373.21  1399.34  1404.89  1406.50
eigval :     1407.72  1410.62  1429.97  1431.56  1442.03  1456.49
eigval :     1476.32  1477.12  1481.09  1489.34  1491.71  1493.70
eigval :     1493.94  1502.83  1503.53  1507.77  1514.73  1519.29
eigval :     1556.04  1570.95  1584.18  1599.68  1603.85  1615.91
eigval :     2998.41  3004.71  3014.23  3018.45  3024.78  3026.46
eigval :     3028.43  3031.71  3033.49  3036.81  3040.06  3044.27
eigval :     3046.45  3047.51  3050.97  3078.92  3080.94  3083.08
eigval :     3085.16  3087.96  3092.50  3094.37  3102.32  3116.67

   temp. (K)  partition function   enthalpy   heat capacity  entropy
                                   cal/mol     cal/K/mol   cal/K/mol   J/K/mol
 298.15  VIB  0.773E+10            13943.150     87.105     85.457
         ROT  0.242E+08              888.752      2.981     36.766
         INT  0.187E+18            14831.902     90.086    122.223
         TR   0.793E+28             1481.254      4.968     43.877
         TOT                       16313.1564    95.0544   166.1007   694.9652

       T/K    H(0)-H(T)+PV         H(T)/Eh          T*S/Eh         G(T)/Eh
   ------------------------------------------------------------------------
    298.15    0.259967E-01    0.431471E+00    0.789198E-01    0.352551E+00
   ------------------------------------------------------------------------

         :::::::::::::::::::::::::::::::::::::::::::::::::::::
         ::                  THERMODYNAMIC                  ::
         :::::::::::::::::::::::::::::::::::::::::::::::::::::
         :: total free energy         -70.352977044872 Eh   ::
         ::.................................................::
         :: total energy              -70.705528079280 Eh   ::
         :: zero point energy           0.405474148167 Eh   ::
         :: G(RRHO) w/o ZPVE           -0.052923113759 Eh   ::
         :: G(RRHO) contrib.            0.352551034408 Eh   ::
         :::::::::::::::::::::::::::::::::::::::::::::::::::::

           -------------------------------------------------
          | TOTAL ENERGY              -70.705528079280 Eh   |
          | TOTAL ENTHALPY            -70.274057261615 Eh   |
          | TOTAL FREE ENERGY         -70.352977044872 Eh   |
          | GRADIENT NORM               0.000044746806 Eh/α |
          | HOMO-LUMO GAP               3.107177087366 eV   |
           -------------------------------------------------

 * finished run on 2025/07/19 at 19:07:33.097
