   * xtb version 6.7.1 (edcfbbe) compiled by 'albert@albert-system' on 2024-07-22

   ID    Z sym.   atoms
    1    6 C      1-8, 10-13, 15-26
    2   35 Br     9
    3    7 N      14
    4    1 H      27-50

          program call               : xtb data2507/gas/BuPCzBCO/BuPCzBCO_gas_T1_crest.xyz --gfn 2 --spinpol --tblite --uhf 2 --ohess vtight --parallel 40 --molden --ceasefiles --namespace data2507/gas/BuPCzBCO/BuPCzBCO_gas_T1_finalOpt
 * total energy  :   -70.5964719 Eh     change       -0.1230376E-09 Eh
 * total energy  :   -70.5965464 Eh     change       -0.7452260E-04 Eh
 * total energy  :   -70.5965798 Eh     change       -0.3342731E-04 Eh
 * total energy  :   -70.5965840 Eh     change       -0.4219359E-05 Eh
 * total energy  :   -70.5965869 Eh     change       -0.2883616E-05 Eh
 * total energy  :   -70.5965885 Eh     change       -0.1590023E-05 Eh
 * total energy  :   -70.5965900 Eh     change       -0.1510107E-05 Eh
 * total energy  :   -70.5965907 Eh     change       -0.7449770E-06 Eh
 * total energy  :   -70.5965911 Eh     change       -0.3094199E-06 Eh
 * total energy  :   -70.5965910 Eh     change        0.3201974E-07 Eh
 * total energy  :   -70.5965912 Eh     change       -0.1965330E-06 Eh
 * total energy  :   -70.5965912 Eh     change        0.4806822E-08 Eh
 * total energy  :   -70.5965913 Eh     change       -0.1265314E-06 Eh
 * total energy  :   -70.5965913 Eh     change        0.7619391E-08 Eh
 * total energy  :   -70.5965914 Eh     change       -0.9642558E-07 Eh
   *** GEOMETRY OPTIMIZATION CONVERGED AFTER 15 ITERATIONS ***

 final structure:
================
50
 xtb: 6.7.1 (edcfbbe)
C            1.65880730670435        5.53120572477266       -0.18004484942317
C            0.67241099718796        4.41497233447364       -0.10892563105671
C           -0.69172187062609        4.63064127721097       -0.06865473913969
C           -1.60766188777154        3.59127806016402       -0.00982621383797
C           -1.11790360999137        2.24934857175294        0.00807745587106
C           -1.72594246197661        1.00471949239698       -0.00396625178588
C           -3.07716731150021        0.56026403329145       -0.01330009428501
C           -3.30814058334616       -0.78213243494944        0.02759513270939
Br          -5.12462797565046       -1.36738360784115        0.02039213010092
C           -2.28506319430156       -1.77430631171137        0.08354078059996
C           -2.62324578230220       -3.22518048655309        0.15744691755992
C           -0.95024530212445       -1.34515373768066        0.06813550494331
C           -0.66828840998671       -0.00234534434893        0.00587380460323
N            0.53333142006742        0.65026000897565        0.01197291613864
C            1.79369527206480        0.05442431814475        0.01475306997421
C            2.78472290985051        0.49154796904229        0.89137466292287
C            4.03157709010860       -0.10229562876603        0.89161840693451
C            4.34021614975659       -1.14820805488846        0.02700695279115
C            5.69757798187069       -1.82988793657270       -0.00004235548865
C            6.67562691528259       -1.23804968314871        1.01833553384617
C            6.31013791031428       -1.67216476071360       -1.39930377608069
C            5.51399392281456       -3.31996181632394        0.32196923617772
C            3.33830814194235       -1.57450460076337       -0.84583730857864
C            2.09000870961699       -0.99175071515345       -0.85953270127868
C            0.29637530914217        2.03552828753000        0.00279645431106
C            1.18450337448963        3.05890106521624       -0.08039776371501
H            2.33873832736661        5.49690132831476        0.67319338988689
H            2.26744799237918        5.44519211578392       -1.08211697717204
H            1.15843876122765        6.49596584243614       -0.18823757395776
H           -1.05814576842647        5.64751906429246       -0.08363254344773
H           -2.66803456947397        3.77865001892533        0.02230435940736
H           -3.88320152499880        1.27448308348529       -0.04682284969730
H           -1.71792909750387       -3.82522489930132        0.20190256765714
H           -3.20379095610277       -3.53509350422068       -0.71379182212278
H           -3.22692256251253       -3.44075630644312        1.04105878298102
H           -0.16161996722359       -2.07978715789265        0.12093407312452
H            2.56150032475669        1.28011128470916        1.59427505437049
H            4.76383953900617        0.26262427507597        1.59294243195475
H            6.30075048497425       -1.35030576058399        2.03302980523809
H            6.85936571403428       -0.18481579990698        0.81902751482276
H            7.62683323806862       -1.76218374848723        0.95291832828022
H            7.29184812607251       -2.13958899442649       -1.43202085867800
H            5.68818621351839       -2.13512679868719       -2.16020791091292
H            6.42144179532127       -0.61800568065044       -1.64469025359162
H            6.47830586557309       -3.82334747627886        0.32502715008592
H            4.87780161581092       -3.80909347111942       -0.41033941137848
H            5.05919704693298       -3.43932952561751        1.30319825706147
H            3.53416963343394       -2.37628558172019       -1.54146270598190
H            1.34330905189985       -1.32130298407436       -1.56622684237343
H            2.24982020102954        2.90129698463068       -0.14255335567078

 projected vibrational frequencies (cm⁻¹)
eigval :       -0.00    -0.00    -0.00    -0.00     0.00     0.00
eigval :       25.01    27.88    31.29    51.28    63.68    80.59
eigval :       90.91    97.40   105.40   126.82   146.35   167.21
eigval :      170.23   173.27   189.99   215.57   219.88   223.32
eigval :      240.25   250.31   271.61   306.35   309.55   315.71
eigval :      326.31   329.42   351.84   364.45   383.24   387.65
eigval :      405.57   410.47   432.50   452.38   460.70   493.03
eigval :      516.01   532.46   542.87   553.21   573.19   597.99
eigval :      615.57   624.57   649.16   660.58   686.27   712.06
eigval :      724.12   739.77   744.17   780.48   787.47   819.24
eigval :      833.70   851.83   872.44   882.32   886.17   918.20
eigval :      927.30   931.25   949.82   960.24   962.63   963.47
eigval :      979.60  1003.11  1008.25  1011.01  1011.66  1017.02
eigval :     1034.82  1035.05  1090.07  1129.38  1142.01  1149.15
eigval :     1169.38  1173.56  1186.56  1199.72  1217.09  1226.52
eigval :     1232.51  1233.88  1255.58  1272.30  1277.86  1293.66
eigval :     1321.02  1330.37  1353.65  1369.07  1386.53  1387.76
eigval :     1400.74  1401.17  1405.77  1407.04  1411.44  1428.21
eigval :     1431.07  1470.17  1470.31  1472.86  1476.44  1486.73
eigval :     1488.78  1491.08  1493.47  1500.45  1504.53  1510.07
eigval :     1514.43  1518.67  1528.06  1539.67  1569.51  1590.63
eigval :     2967.28  2967.38  2988.33  2989.16  3024.83  3026.49
eigval :     3028.60  3031.95  3033.51  3037.01  3040.71  3044.64
eigval :     3046.80  3048.09  3051.46  3071.45  3083.61  3088.17
eigval :     3090.27  3093.99  3095.76  3107.63  3111.70  3116.05

   temp. (K)  partition function   enthalpy   heat capacity  entropy
                                   cal/mol     cal/K/mol   cal/K/mol   J/K/mol
 298.15  VIB  0.987E+10            14334.837     89.800     87.658
         ROT  0.243E+08              888.752      2.981     36.774
         INT  0.240E+18            15223.590     92.781    124.433
         TR   0.793E+28             1481.254      4.968     43.877
         TOT                       16704.8435    97.7488   168.3100   704.2091

       T/K    H(0)-H(T)+PV         H(T)/Eh          T*S/Eh         G(T)/Eh
   ------------------------------------------------------------------------
    298.15    0.266209E-01    0.426873E+00    0.799695E-01    0.346903E+00
   ------------------------------------------------------------------------

         :::::::::::::::::::::::::::::::::::::::::::::::::::::
         ::                  THERMODYNAMIC                  ::
         :::::::::::::::::::::::::::::::::::::::::::::::::::::
         :: total free energy         -70.249688084090 Eh   ::
         ::.................................................::
         :: total energy              -70.596591437786 Eh   ::
         :: zero point energy           0.400252009408 Eh   ::
         :: G(RRHO) w/o ZPVE           -0.053348655712 Eh   ::
         :: G(RRHO) contrib.            0.346903353696 Eh   ::
         :::::::::::::::::::::::::::::::::::::::::::::::::::::

           -------------------------------------------------
          | TOTAL ENERGY              -70.596591437786 Eh   |
          | TOTAL ENTHALPY            -70.169718565714 Eh   |
          | TOTAL FREE ENERGY         -70.249688084090 Eh   |
          | GRADIENT NORM               0.000052395270 Eh/α |
           -------------------------------------------------

 * finished run on 2025/07/19 at 19:09:38.841
