   * xtb version 6.7.1 (edcfbbe) compiled by 'albert@albert-system' on 2024-07-22

   ID    Z sym.   atoms
    1    6 C      1-8, 10-13, 15-26
    2   35 Br     9
    3    7 N      14
    4    1 H      27-50

          program call               : xtb data2507/gas/BuPCzBCO/BuPCzBCO_gas_S0_finalOpt.xtbopt.xyz --gfn 2 --spinpol --tblite --uhf 2 --ohess vtight --parallel 40 --molden --ceasefiles --namespace data2507/gas/BuPCzBCO/BuPCzBCO_gas_T1_preOpt
 * total energy  :   -70.5886822 Eh     change       -0.3531525E-08 Eh
 * total energy  :   -70.5926048 Eh     change       -0.3922652E-02 Eh
 * total energy  :   -70.5948453 Eh     change       -0.2240498E-02 Eh
 * total energy  :   -70.5953244 Eh     change       -0.4790752E-03 Eh
 * total energy  :   -70.5955986 Eh     change       -0.2742297E-03 Eh
 * total energy  :   -70.5956938 Eh     change       -0.9518945E-04 Eh
 * total energy  :   -70.5957232 Eh     change       -0.2944204E-04 Eh
 * total energy  :   -70.5957430 Eh     change       -0.1979714E-04 Eh
 * total energy  :   -70.5957530 Eh     change       -0.1001252E-04 Eh
 * total energy  :   -70.5957619 Eh     change       -0.8877097E-05 Eh
 * total energy  :   -70.5965901 Eh     change       -0.1513290E-05 Eh
 * total energy  :   -70.5965908 Eh     change       -0.7298230E-06 Eh
 * total energy  :   -70.5965913 Eh     change       -0.4648997E-06 Eh
 * total energy  :   -70.5965912 Eh     change        0.1190469E-06 Eh
 * total energy  :   -70.5965915 Eh     change       -0.3038274E-06 Eh
 * total energy  :   -70.5965916 Eh     change       -0.1225371E-06 Eh
 * total energy  :   -70.5965917 Eh     change       -0.1011903E-06 Eh
 * total energy  :   -70.5965917 Eh     change       -0.9305651E-08 Eh
 * total energy  :   -70.5965918 Eh     change       -0.8309594E-07 Eh
   *** GEOMETRY OPTIMIZATION CONVERGED AFTER 63 ITERATIONS ***

 final structure:
================
50
 xtb: 6.7.1 (edcfbbe)
C            1.69877911672288        5.50365640538383       -0.11686848181073
C            0.70077835899199        4.39644759490847       -0.07092589435078
C           -0.66151382203849        4.62502226763068       -0.03828693124734
C           -1.58803117666229        3.59409125322512       -0.00224658462686
C           -1.11165505749799        2.24715171231440       -0.00030845038614
C           -1.73150603831286        1.00884487368021       -0.03593533057182
C           -3.08682705206494        0.57769425086508       -0.06331628776960
C           -3.33087651211654       -0.76289160850663       -0.04495918075008
Br          -5.15289270933568       -1.33005502983373       -0.07615125080579
C           -2.31791582876644       -1.76571135751558        0.00377967186464
C           -2.67067329758168       -3.21414296229342        0.05294345279369
C           -0.97891462658016       -1.34936520843010        0.00562737878587
C           -0.68372882138157       -0.00855069092843       -0.03288188249464
N            0.52393443022976        0.63208941678879       -0.00658436455221
C            1.77937802960782        0.02570788542075       -0.00464983342140
C            2.76667959676380        0.44100571390032        0.88945040395164
C            4.00587432803252       -0.16110715551143        0.88258698319962
C            4.31817814312426       -1.19284316502607       -0.00363020320827
C            5.70187125234182       -1.81895599938142        0.03281928102985
C            6.75061922289030       -0.73166537676721       -0.24220519374430
C            5.87667831484351       -2.92535552360197       -1.01085523175426
C            5.93798854524664       -2.42928083843926        1.42198703729776
C            3.32325925992445       -1.59811554532086       -0.88829416720982
C            2.07630361799649       -1.00455487033885       -0.89447446658596
C            0.30049474427838        2.01954065796545        0.00282142570047
C            1.19931200934682        3.03508983520052       -0.05817510826759
H            2.36519532559602        5.45483430437519        0.74635137877091
H            2.32042083432845        5.41995360438891       -1.01023333808724
H            1.20792042829346        6.47327133543297       -0.12333182819372
H           -1.01770965741776        5.64562260399635       -0.04133728371469
H           -2.64676318922878        3.79140388517392        0.02392408278120
H           -3.88569676566371        1.30010030543629       -0.09260072461155
H           -3.28182536435931       -3.43740159230862        0.92950410600290
H           -1.77156501466901       -3.82370919491618        0.09348421962047
H           -3.24890147261014       -3.50475331997892       -0.82641832419037
H           -0.19762686119943       -2.09218546980519        0.05279656910733
H            2.54247531092582        1.21694491966766        1.60591112863811
H            4.74222647021009        0.17976256587420        1.59445804101705
H            6.57465562995715       -0.27693068357354       -1.21491932231309
H            7.74813988187194       -1.16555365171929       -0.23957894622862
H            6.71897821965086        0.05079693263756        0.51078982270603
H            6.88254136341658       -3.33395538051432       -0.93961674307064
H            5.17305740696617       -3.73741412008319       -0.84306615318134
H            5.74298793194978       -2.53828950311822       -2.01837093227015
H            6.91906203141349       -2.89744035049374        1.46254961131970
H            5.18539836204675       -3.18611013061041        1.63322087098646
H            5.88934186535484       -1.67397249431165        2.20133311484955
H            3.51070272354855       -2.38504036091745       -1.60018325805372
H            1.33235153633046       -1.31714020164696       -1.61177525702568
H            2.26354544175114        2.86789463854223       -0.11376648086001

 projected vibrational frequencies (cm⁻¹)
eigval :       -0.00    -0.00    -0.00    -0.00    -0.00     0.00
eigval :       24.41    29.13    31.20    51.26    62.67    80.62
eigval :       92.72    99.12   104.06   126.22   146.31   164.70
eigval :      171.66   173.94   191.54   215.64   219.55   225.87
eigval :      239.82   248.29   270.93   299.75   316.08   316.66
eigval :      326.79   330.02   351.83   363.11   382.72   387.27
eigval :      405.65   411.97   431.95   451.68   461.07   493.05
eigval :      515.98   532.49   542.84   553.22   573.21   598.16
eigval :      615.51   624.40   649.11   660.54   686.49   712.05
eigval :      723.75   739.16   744.09   780.43   787.72   818.63
eigval :      834.42   851.74   872.10   882.33   886.19   918.69
eigval :      925.74   931.91   949.97   960.31   962.77   963.58
eigval :      979.44  1002.98  1007.96  1010.87  1011.74  1017.07
eigval :     1034.90  1035.17  1090.14  1129.70  1142.15  1148.79
eigval :     1169.28  1173.24  1186.13  1199.55  1216.60  1226.54
eigval :     1232.44  1234.29  1256.08  1272.06  1278.30  1293.57
eigval :     1321.75  1330.05  1353.48  1369.02  1386.77  1388.06
eigval :     1400.70  1401.12  1405.92  1407.01  1411.60  1429.02
eigval :     1431.04  1469.79  1470.32  1473.11  1476.64  1486.95
eigval :     1489.32  1491.40  1493.74  1500.65  1504.65  1509.80
eigval :     1514.49  1519.00  1531.32  1537.85  1569.55  1590.67
eigval :     2966.98  2967.46  2987.85  2988.96  3024.81  3026.41
eigval :     3028.54  3031.83  3033.35  3037.00  3040.42  3044.59
eigval :     3046.89  3047.68  3051.01  3071.53  3083.13  3088.25
eigval :     3091.11  3093.12  3095.45  3107.60  3111.68  3116.49

   temp. (K)  partition function   enthalpy   heat capacity  entropy
                                   cal/mol     cal/K/mol   cal/K/mol   J/K/mol
 298.15  VIB  0.967E+10            14332.790     89.802     87.629
         ROT  0.242E+08              888.752      2.981     36.772
         INT  0.235E+18            15221.542     92.783    124.401
         TR   0.793E+28             1481.254      4.968     43.877
         TOT                       16702.7958    97.7513   168.2785   704.0773

       T/K    H(0)-H(T)+PV         H(T)/Eh          T*S/Eh         G(T)/Eh
   ------------------------------------------------------------------------
    298.15    0.266176E-01    0.426875E+00    0.799545E-01    0.346921E+00
   ------------------------------------------------------------------------

         :::::::::::::::::::::::::::::::::::::::::::::::::::::
         ::                  THERMODYNAMIC                  ::
         :::::::::::::::::::::::::::::::::::::::::::::::::::::
         :: total free energy         -70.249671220496 Eh   ::
         ::.................................................::
         :: total energy              -70.596591783182 Eh   ::
         :: zero point energy           0.400257510763 Eh   ::
         :: G(RRHO) w/o ZPVE           -0.053336948077 Eh   ::
         :: G(RRHO) contrib.            0.346920562686 Eh   ::
         :::::::::::::::::::::::::::::::::::::::::::::::::::::

           -------------------------------------------------
          | TOTAL ENERGY              -70.596591783182 Eh   |
          | TOTAL ENTHALPY            -70.169716673013 Eh   |
          | TOTAL FREE ENERGY         -70.249671220496 Eh   |
          | GRADIENT NORM               0.000115578932 Eh/α |
           -------------------------------------------------

 * finished run on 2025/07/19 at 19:07:38.315
