   * xtb version 6.7.1 (edcfbbe) compiled by 'albert@albert-system' on 2024-07-22

   ID    Z sym.   atoms
    1    6 C      1-8, 10-13, 15-26
    2   35 Br     9
    3    7 N      14
    4    1 H      27-50

          program call               : xtb data2507/gas/BuPCzBCO/BuPCzBCO.xyz --gfn 2 --ohess vtight --parallel 40 --molden --ceasefiles --namespace data2507/gas/BuPCzBCO/BuPCzBCO_gas_S0_preOpt
          :  Hamiltonian                  GFN2-xTB          :
 * total energy  :   -70.6942027 Eh     change       -0.8117382E-09 Eh
 * total energy  :   -70.7029347 Eh     change       -0.8732066E-02 Eh
 * total energy  :   -70.7046115 Eh     change       -0.1676742E-02 Eh
 * total energy  :   -70.7048794 Eh     change       -0.2679120E-03 Eh
 * total energy  :   -70.7050734 Eh     change       -0.1940667E-03 Eh
 * total energy  :   -70.7051728 Eh     change       -0.9940604E-04 Eh
 * total energy  :   -70.7052623 Eh     change       -0.8948200E-04 Eh
 * total energy  :   -70.7053019 Eh     change       -0.3961927E-04 Eh
 * total energy  :   -70.7053303 Eh     change       -0.2840016E-04 Eh
 * total energy  :   -70.7053217 Eh     change        0.8622780E-05 Eh
 * total energy  :   -70.7055274 Eh     change       -0.1763682E-06 Eh
 * total energy  :   -70.7055275 Eh     change       -0.1737961E-06 Eh
 * total energy  :   -70.7055277 Eh     change       -0.1848451E-06 Eh
 * total energy  :   -70.7055280 Eh     change       -0.2482207E-06 Eh
 * total energy  :   -70.7055282 Eh     change       -0.2296939E-06 Eh
 * total energy  :   -70.7055283 Eh     change       -0.1473476E-06 Eh
 * total energy  :   -70.7055285 Eh     change       -0.1530967E-06 Eh
 * total energy  :   -70.7055286 Eh     change       -0.1305084E-06 Eh
 * total energy  :   -70.7055286 Eh     change       -0.3056016E-08 Eh
   *** GEOMETRY OPTIMIZATION CONVERGED AFTER 57 ITERATIONS ***

 final structure:
================
50
 xtb: 6.7.1 (edcfbbe)
C           -2.41297650280952        4.90278686919447       -0.26062542168554
C           -2.74803757572840        3.44427124091961       -0.17329899815693
C           -4.09142784173408        3.05091514595715       -0.14523883703187
C           -4.45770535154010        1.72418826748742       -0.08246669450829
C           -3.45890082776928        0.75967829340151       -0.03122754925449
C           -3.46267511542713       -0.67329911357911        0.01865333034515
C           -4.46813399534845       -1.62785097913755        0.05940165025544
C           -4.09837480909395       -2.95485025293342        0.12556922461592
Br          -5.49274546800868       -4.26500114528336        0.17338710333638
C           -2.76394539040595       -3.37881527630768        0.16905847229824
C           -2.42413162171386       -4.83259696868879        0.26148371183704
C           -1.76333943254624       -2.42127777937966        0.12727644093565
C           -2.10806542319574       -1.08037484947512        0.03689876755276
N           -1.29840010604344        0.03249845569760        0.00481820478120
C            0.10519495936448        0.02649020826531        0.01311939354941
C            0.80946176690364        0.79949532573524        0.92668103689402
C            2.19276734523206        0.79270292804135        0.92868935271690
C            2.91521588532226        0.01248070550847        0.03367489276620
C            4.43463898137641       -0.02877285853305        0.00855341220974
C            4.92483616637039        0.43644437687109       -1.37004016497406
C            4.89949122015000       -1.46888240605737        0.26765493775987
C            5.06723856941741        0.87501716118547        1.07013887786049
C            2.19279850843962       -0.76008433354018       -0.87352596369933
C            0.81296038395940       -0.75494287866715       -0.89373123136438
C           -2.10272460399595        1.15459138999171       -0.03593605171690
C           -1.74429608448293        2.49212407070402       -0.12205801384263
H           -2.80640495738690        5.43394412598350        0.60559720844754
H           -1.33749626471164        5.05527483223489       -0.30236372506967
H           -2.86202995266308        5.34243849002790       -1.15036501403690
H           -4.85439874323216        3.81475500396853       -0.18350593520494
H           -5.49793486251997        1.43601077589324       -0.07688989007469
H           -5.50830200607724       -1.34239902677135        0.04346477751753
H           -1.34717563227956       -4.97489586651347        0.29561479773775
H           -2.82265879919877       -5.37300662111678       -0.59739167248189
H           -2.86438440987127       -5.27146740999127        1.15690177705898
H           -0.72817436351546       -2.72402821799419        0.17634964111906
H            0.27018616704516        1.39764208676149        1.64623822007588
H            2.69947538006880        1.40706507161614        1.65460398717771
H            4.55792719889536       -0.21061776366619       -2.16181527697204
H            6.01215945637078        0.42951340864914       -1.40174655496085
H            4.58026693245165        1.44896306156950       -1.56999413134817
H            5.98626691669526       -1.51580683018867        0.27137093451106
H            4.53605092061163       -1.81348331689722        1.23363739357658
H            4.53314283647590       -2.14846427577661       -0.49668951257899
H            6.15104723649503        0.80469963983551        1.00516760526789
H            4.77147007162822        0.57038642493018        2.07138524304688
H            4.78960029839739        1.91513358418223        0.91570072656472
H            2.71120791964506       -1.37790630969139       -1.59093517009384
H            0.27698138549888       -1.34623255041634       -1.62142292307627
H           -0.70554336551537        2.78554808599312       -0.15982438968217

          :  Hamiltonian                  GFN2-xTB          :
         :: gradient norm              0.000085714596 Eh/a0 ::
         :: HOMO-LUMO gap              3.107216863402 eV    ::
         :: SCC energy               -71.903667304334 Eh    ::
         :: -> dispersion             -0.059741660767 Eh    ::
         :: repulsion energy           1.198138677935 Eh    ::

    * Orbital Energies and Occupations

         #    Occupation            Energy/Eh            Energy/eV
      -------------------------------------------------------------
         1        2.0000           -0.8231823             -22.3999
       ...           ...                  ...                  ...
        54        2.0000           -0.4407615             -11.9937
        55        2.0000           -0.4303585             -11.7107
        56        2.0000           -0.4270422             -11.6204
        57        2.0000           -0.4257175             -11.5844
        58        2.0000           -0.4223681             -11.4932
        59        2.0000           -0.4204838             -11.4419
        60        2.0000           -0.4152441             -11.2994
        61        2.0000           -0.4135957             -11.2545
        62        2.0000           -0.4053556             -11.0303
        63        2.0000           -0.3961771             -10.7805
        64        2.0000           -0.3933629             -10.7039
        65        2.0000           -0.3752221             -10.2103
        66        2.0000           -0.3630224              -9.8783 (HOMO)
        67                         -0.2488343              -6.7711 (LUMO)
        68                         -0.2359177              -6.4196
        69                         -0.2320397              -6.3141
        70                         -0.2280025              -6.2043
        71                         -0.1971187              -5.3639
        72                         -0.1908519              -5.1933
        73                         -0.1897318              -5.1629
        74                         -0.1100254              -2.9939
        75                         -0.0942003              -2.5633
        76                         -0.0665397              -1.8106
        77                          0.0072583               0.1975
       ...                                ...                  ...
       133                          0.7404650              20.1491
      -------------------------------------------------------------
                  HL-Gap            0.1141881 Eh            3.1072 eV

     #   Z          covCN         q      C6AA      α(0)
     1   6 C        3.758    -0.109    22.625     6.781
     2   6 C        2.970     0.016    27.662     8.627
     3   6 C        2.926    -0.050    29.240     8.868
     4   6 C        2.911    -0.034    28.841     8.806
     5   6 C        3.069    -0.021    28.455     8.747
     6   6 C        3.075    -0.021    28.446     8.745
     7   6 C        2.996    -0.041    29.017     8.836
     8   6 C        2.922     0.061    26.644     8.465
     9  35 Br       1.075    -0.193   190.407    22.249
    10   6 C        3.030     0.008    27.801     8.649
    11   6 C        3.763    -0.103    22.514     6.763
    12   6 C        2.918    -0.062    29.542     8.913
    13   6 C        3.074     0.044    26.936     8.509
    14   7 N        2.803    -0.042    22.044     6.973
    15   6 C        2.913     0.059    26.674     8.469
    16   6 C        2.921    -0.045    29.117     8.849
    17   6 C        2.925    -0.039    28.960     8.825
    18   6 C        2.973     0.007    27.850     8.656
    19   6 C        3.903     0.026    20.083     6.370
    20   6 C        3.762    -0.106    22.576     6.773
    21   6 C        3.762    -0.106    22.575     6.773
    22   6 C        3.761    -0.109    22.621     6.780
    23   6 C        2.928    -0.034    28.855     8.809
    24   6 C        2.921    -0.045    29.122     8.850
    25   6 C        3.079     0.046    26.886     8.501
    26   6 C        2.915    -0.060    29.498     8.906
    27   1 H        0.925     0.047     2.363     2.404
    28   1 H        0.925     0.040     2.454     2.450
    29   1 H        0.925     0.046     2.367     2.406
    30   1 H        0.926     0.031     2.575     2.509
    31   1 H        0.926     0.033     2.544     2.494
    32   1 H        0.926     0.049     2.332     2.388
    33   1 H        0.925     0.040     2.450     2.448
    34   1 H        0.925     0.057     2.229     2.335
    35   1 H        0.925     0.057     2.230     2.335
    36   1 H        0.926     0.036     2.509     2.477
    37   1 H        0.926     0.039     2.465     2.455
    38   1 H        0.926     0.042     2.416     2.431
    39   1 H        0.925     0.037     2.486     2.466
    40   1 H        0.925     0.039     2.457     2.451
    41   1 H        0.925     0.034     2.524     2.484
    42   1 H        0.925     0.039     2.457     2.451
    43   1 H        0.925     0.035     2.523     2.484
    44   1 H        0.925     0.037     2.489     2.467
    45   1 H        0.925     0.038     2.471     2.458
    46   1 H        0.925     0.037     2.493     2.469
    47   1 H        0.925     0.036     2.497     2.471
    48   1 H        0.926     0.036     2.506     2.476
    49   1 H        0.926     0.038     2.480     2.463
    50   1 H        0.926     0.029     2.604     2.523

molecular dipole:
                 x           y           z       tot (Debye)
 q only:        1.771       0.887      -0.023
   full:        2.158       1.260      -0.041       6.353

 projected vibrational frequencies (cm⁻¹)
eigval :       -0.00    -0.00    -0.00     0.00     0.00     0.00
eigval :       25.03    27.82    32.46    49.44    56.52    70.77
eigval :       79.80    94.12   107.80   139.50   152.69   170.78
eigval :      173.59   178.19   201.89   219.67   222.00   243.09
eigval :      252.52   263.25   285.80   316.30   320.77   328.24
eigval :      329.91   363.66   368.44   385.69   390.47   404.66
eigval :      415.51   433.87   441.09   457.45   463.33   514.49
eigval :      537.18   562.58   565.73   579.56   581.58   602.56
eigval :      625.04   666.73   669.92   695.81   703.57   730.77
eigval :      763.57   770.64   813.18   824.47   844.41   864.98
eigval :      872.23   874.16   881.85   903.92   910.33   921.95
eigval :      933.24   960.81   962.72   963.76   971.37   989.43
eigval :     1007.68  1019.07  1020.49  1031.04  1031.46  1035.19
eigval :     1035.65  1041.69  1136.63  1143.68  1148.56  1163.36
eigval :     1188.75  1195.41  1212.61  1227.90  1228.44  1234.24
eigval :     1251.50  1277.57  1281.72  1292.71  1306.71  1318.94
eigval :     1353.53  1359.42  1373.24  1399.35  1404.93  1406.54
eigval :     1407.67  1410.65  1429.99  1431.56  1442.04  1456.36
eigval :     1476.23  1477.16  1481.12  1489.40  1491.71  1493.47
eigval :     1493.93  1502.78  1503.55  1507.76  1514.71  1519.29
eigval :     1556.01  1570.95  1584.17  1599.61  1603.75  1615.95
eigval :     2998.46  3004.48  3014.23  3018.08  3024.86  3026.53
eigval :     3028.48  3031.70  3033.56  3036.86  3040.14  3044.20
eigval :     3046.77  3047.58  3051.05  3078.94  3081.21  3081.88
eigval :     3087.05  3087.56  3092.52  3093.84  3102.43  3116.69

   temp. (K)  partition function   enthalpy   heat capacity  entropy
                                   cal/mol     cal/K/mol   cal/K/mol   J/K/mol
 298.15  VIB  0.727E+10            13939.244     87.154     85.433
         ROT  0.242E+08              888.752      2.981     36.768
         INT  0.176E+18            14827.997     90.135    122.201
         TR   0.793E+28             1481.254      4.968     43.877
         TOT                       16309.2507    95.1029   166.0783   694.8716

       T/K    H(0)-H(T)+PV         H(T)/Eh          T*S/Eh         G(T)/Eh
   ------------------------------------------------------------------------
    298.15    0.259904E-01    0.431472E+00    0.789092E-01    0.352562E+00
   ------------------------------------------------------------------------

         :::::::::::::::::::::::::::::::::::::::::::::::::::::
         ::                  THERMODYNAMIC                  ::
         :::::::::::::::::::::::::::::::::::::::::::::::::::::
         :: total free energy         -70.352966267996 Eh   ::
         ::.................................................::
         :: total energy              -70.705528626400 Eh   ::
         :: zero point energy           0.405481067606 Eh   ::
         :: G(RRHO) w/o ZPVE           -0.052918709202 Eh   ::
         :: G(RRHO) contrib.            0.352562358403 Eh   ::
         :::::::::::::::::::::::::::::::::::::::::::::::::::::

           -------------------------------------------------
          | TOTAL ENERGY              -70.705528626400 Eh   |
          | TOTAL ENTHALPY            -70.274057113478 Eh   |
          | TOTAL FREE ENERGY         -70.352966267996 Eh   |
          | GRADIENT NORM               0.000085676998 Eh/α |
          | HOMO-LUMO GAP               3.107215698759 eV   |
           -------------------------------------------------

 * finished run on 2025/07/19 at 19:05:44.953
