   * xtb version 6.7.1 (edcfbbe) compiled by 'albert@albert-system' on 2024-07-22

   ID    Z sym.   atoms
    1    6 C      1-4, 6-18, 20, 21, 23-29, 31-45, 47-52, 54-58
    2    7 N      5, 19, 22, 30
    3   16 S      46, 53
    4    1 H      59-92

          program call               : xtb data2507/toluene/oDTPA-DTPZ/oDTPA-DTPZ_toluene_S0_crest.xyz --gfn 2 --gbsa toluene --ohess vtight --parallel 40 --molden --ceasefiles --namespace data2507/toluene/oDTPA-DTPZ/oDTPA-DTPZ_toluene_S0_finalOpt
      * Solvation model:               GBSA
        Solvent                        toluene
        Solvent mass                       9.2140E+01 g/mol
          :  Hamiltonian                  GFN2-xTB          :
 * total energy  :  -146.9779136 Eh     change       -0.1163869E-08 Eh
 * total energy  :  -146.9779842 Eh     change       -0.7055327E-04 Eh
 * total energy  :  -146.9780366 Eh     change       -0.5247956E-04 Eh
 * total energy  :  -146.9780707 Eh     change       -0.3403482E-04 Eh
 * total energy  :  -146.9781020 Eh     change       -0.3133441E-04 Eh
 * total energy  :  -146.9781551 Eh     change       -0.5308483E-04 Eh
 * total energy  :  -146.9781784 Eh     change       -0.2335869E-04 Eh
 * total energy  :  -146.9782065 Eh     change       -0.2808208E-04 Eh
 * total energy  :  -146.9782313 Eh     change       -0.2473203E-04 Eh
 * total energy  :  -146.9782551 Eh     change       -0.2386255E-04 Eh
 * total energy  :  -146.9793271 Eh     change       -0.1957225E-05 Eh
 * total energy  :  -146.9793288 Eh     change       -0.1705527E-05 Eh
 * total energy  :  -146.9793303 Eh     change       -0.1508767E-05 Eh
 * total energy  :  -146.9793319 Eh     change       -0.1597135E-05 Eh
 * total energy  :  -146.9793336 Eh     change       -0.1663904E-05 Eh
 * total energy  :  -146.9793350 Eh     change       -0.1461096E-05 Eh
 * total energy  :  -146.9793360 Eh     change       -0.1008819E-05 Eh
 * total energy  :  -146.9793366 Eh     change       -0.5429821E-06 Eh
 * total energy  :  -146.9793366 Eh     change       -0.8235503E-08 Eh
   *** GEOMETRY OPTIMIZATION CONVERGED AFTER 68 ITERATIONS ***

 final structure:
================
92
 xtb: 6.7.1 (edcfbbe)
C            5.41040623784709        4.73428532900801       -3.67100374136251
C            4.03487148123946        4.75193133417358       -3.50457412360641
C            3.46884968149940        4.35936888427164       -2.30689598513436
C            4.27735433955775        3.93150065770872       -1.25337284585932
N            3.70800545797500        3.52996677490533       -0.03910023763275
C            4.35662282858833        3.81751099701859        1.17034312353420
C            4.36461770069623        2.88087913371131        2.20387476298473
C            5.00428176583513        3.16516853303646        3.39511589121366
C            5.64907176107734        4.37872237123677        3.57337379077286
C            5.64625593522279        5.31129773067426        2.54842744329742
C            5.00294510134406        5.03911525118683        1.35606512840812
C            2.49330126682105        2.84059116418420       -0.02319897228058
C            1.55044019879044        3.09049911244618        0.97530899348744
C            0.35545919298997        2.40251762942008        0.99685779108435
C            0.07136575544681        1.43141940146300        0.03892002163741
C           -1.20405132320945        0.69770107552365        0.06853823030139
C           -2.38104372353748        1.39652838001386        0.15061594590014
C           -3.62528472752118        0.73698606442900        0.11069761292237
N           -4.75866041059506        1.44532062469237        0.18837011986025
C           -5.90272568756588        0.78346701165284        0.13314064557112
C           -5.92908812217577       -0.65319183366140       -0.00579544915393
N           -4.81031585926570       -1.35497928113443       -0.08492272661948
C           -3.65086349912624       -0.68672844424451       -0.02911392206324
C           -2.43068640476587       -1.38796893305467       -0.09047287523164
C           -1.22843223936103       -0.72941847990357       -0.02912705625272
C            0.02475035187055       -1.49727065739592       -0.02211832902446
C            1.01024409525768       -1.24570635902329        0.93245837793489
C            2.18590991857307       -1.96268038283372        0.94161182545945
C            2.42614836168324       -2.94809909777817       -0.01919811119339
N            3.63615822960904       -3.64119793393214       -0.03330450077195
C            4.82186977677787       -2.98178244894637        0.32136620650977
C            5.03561828105696       -1.65778490680205       -0.06231800978790
C            6.20163319839968       -1.00869634718985        0.29468664652531
C            7.17472579646620       -1.66779754678366        1.02877795274148
C            6.97074662492169       -2.98543574790096        1.40574054623494
C            5.80391317040865       -3.64056503061258        1.06030756774802
C            3.67678553820661       -4.99139153399453       -0.40693174488332
C            2.66119449650746       -5.86438567827930       -0.01738563953837
C            2.70635911609177       -7.19452862876831       -0.38876801192932
C            3.76371385802772       -7.67718997237386       -1.14317055999053
C            4.77764295643279       -6.81488104699195       -1.52845783029873
C            4.73704249942321       -5.48129590927014       -1.16910807107401
C            1.43237551211624       -3.21748134659741       -0.96252077511083
C            0.24844421997184       -2.51035307789661       -0.95270679107001
C           -7.19392259667252       -1.29157067547020       -0.05568271617741
S           -7.44118049460077       -2.99823433448097       -0.21745290514588
C           -9.15080477330590       -2.76920880364618       -0.17868079795015
C           -9.51780514784838       -1.47057552569333       -0.05114796858545
C           -8.40032556044357       -0.60017490181433        0.02215687413545
C           -8.37377096311135        0.81967110080015        0.15909750074788
C           -9.45737458904010        1.72943707708060        0.25895934846586
C           -9.04115697595610        3.01375838933667        0.38029383043677
S           -7.32386723837928        3.18153957453533        0.38052135475903
C           -7.14208077016404        1.46724421930044        0.21043445949748
C            1.00903266259242        1.19371137304402       -0.96496331889304
C            2.19817406051535        1.88956712920545       -1.00181321418729
C            5.66146940007112        3.91431438999825       -1.42718574892690
C            6.21860006619866        4.31678199870595       -2.62579701442791
H            5.84897752050150        5.04549189283204       -4.60721219279955
H            3.39636065879276        5.08296433358036       -4.31086930607534
H            2.39652060345773        4.38500362432773       -2.17752374971949
H            3.86981426106998        1.93076224660372        2.06331179438528
H            5.00637191487072        2.42960195624225        4.18642720640173
H            6.15051094972601        4.59619324028890        4.50451566880158
H            6.14113587688063        6.26250038614217        2.68072197474367
H            4.99444552570413        5.77106546844636        0.56152205899935
H            1.76166084500876        3.83201497186623        1.73186685318390
H           -0.36419616539948        2.60594778471830        1.77679677117939
H           -2.38474680775146        2.47413914401868        0.21916700218399
H           -2.47228899008738       -2.46490801809619       -0.15626370500300
H            0.83897790721364       -0.49687114995368        1.69107633257138
H            2.93220872249596       -1.76551970775911        1.69693762571099
H            4.28211588209568       -1.14572313584399       -0.64242344109014
H            6.35491340524036        0.01579016020984       -0.01136076045146
H            8.08568571702855       -1.15808190685236        1.30440027887748
H            7.72239325098232       -3.50626915505658        1.98098250179382
H            5.64422442188593       -4.66548861550412        1.36238011418657
H            1.84114875481704       -5.49266927557759        0.57978227521153
H            1.91402631648909       -7.86038365721857       -0.07881898467440
H            3.79746506445980       -8.71787628527801       -1.42863035804364
H            5.60335614920580       -7.18124308548523       -2.12101871478159
H            5.52504739855040       -4.80943639052348       -1.47707416028583
H            1.60036580939059       -3.97838110113629       -1.71046819234229
H           -0.50255091025947       -2.71803550157398       -1.70132224447769
H           -9.78907872537976       -3.62754819117805       -0.25474136346465
H          -10.53855170609654       -1.13774558614792       -0.00991168580297
H          -10.49009966713937        1.43358239801265        0.24024840134318
H           -9.64639315971256        3.89414415188569        0.47280938988450
H            0.79674197184865        0.46041741760025       -1.72887598888673
H            2.91404199893680        1.69554995577697       -1.78702117989055
H            6.29515684691180        3.58534537937315       -0.61647857154238
H            7.29208223046298        4.29645624463750       -2.74672169906515

          :  Hamiltonian                  GFN2-xTB          :
         :: gradient norm              0.000066320521 Eh/a0 ::
         :: HOMO-LUMO gap              1.095255604203 eV    ::
         :: SCC energy              -149.625090231799 Eh    ::
         :: -> dispersion             -0.138285616358 Eh    ::
         :: -> Gsolv                  -0.064772903462 Eh    ::
         :: repulsion energy           2.645753649667 Eh    ::

    * Orbital Energies and Occupations

         #    Occupation            Energy/Eh            Energy/eV
      -------------------------------------------------------------
         1        2.0000           -0.7369149             -20.0525
       ...           ...                  ...                  ...
       125        2.0000           -0.4082586             -11.1093
       126        2.0000           -0.4080702             -11.1042
       127        2.0000           -0.4060274             -11.0486
       128        2.0000           -0.4058936             -11.0449
       129        2.0000           -0.4052526             -11.0275
       130        2.0000           -0.4047982             -11.0151
       131        2.0000           -0.4009716             -10.9110
       132        2.0000           -0.3968835             -10.7997
       133        2.0000           -0.3868082             -10.5256
       134        2.0000           -0.3837369             -10.4420
       135        2.0000           -0.3581546              -9.7459
       136        2.0000           -0.3516278              -9.5683
       137        2.0000           -0.3500617              -9.5257 (HOMO)
       138                         -0.3098118              -8.4304 (LUMO)
       139                         -0.2725608              -7.4168
       140                         -0.2471070              -6.7241
       141                         -0.2450390              -6.6678
       142                         -0.2313083              -6.2942
       143                         -0.2309880              -6.2855
       144                         -0.2308503              -6.2818
       145                         -0.2306536              -6.2764
       146                         -0.2278082              -6.1990
       147                         -0.2245807              -6.1112
       148                         -0.2225843              -6.0568
       ...                                ...                  ...
       276                          0.7284183              19.8213
      -------------------------------------------------------------
                  HL-Gap            0.0402499 Eh            1.0953 eV

     #   Z          covCN         q      C6AA      α(0)
     1   6 C        2.919    -0.039    28.974     8.827
     2   6 C        2.919    -0.030    28.748     8.792
     3   6 C        2.922    -0.048    29.201     8.862
     4   6 C        2.922     0.065    26.545     8.449
     5   7 N        2.752    -0.076    22.716     7.079
     6   6 C        2.924     0.065    26.544     8.449
     7   6 C        2.922    -0.047    29.164     8.856
     8   6 C        2.919    -0.030    28.738     8.791
     9   6 C        2.919    -0.038    28.953     8.824
    10   6 C        2.919    -0.030    28.745     8.792
    11   6 C        2.922    -0.047    29.168     8.857
    12   6 C        2.924     0.067    26.509     8.443
    13   6 C        2.921    -0.048    29.182     8.859
    14   6 C        2.923    -0.033    28.826     8.805
    15   6 C        2.978     0.005    27.917     8.667
    16   6 C        2.975     0.011    27.755     8.642
    17   6 C        2.923    -0.054    29.342     8.883
    18   6 C        2.965     0.084    26.134     8.385
    19   7 N        1.847    -0.272    27.900     7.828
    20   6 C        2.982     0.083    26.145     8.387
    21   6 C        2.981     0.083    26.142     8.387
    22   7 N        1.847    -0.272    27.905     7.829
    23   6 C        2.964     0.083    26.137     8.386
    24   6 C        2.922    -0.054    29.352     8.885
    25   6 C        2.974     0.011    27.755     8.642
    26   6 C        2.977     0.003    27.947     8.672
    27   6 C        2.923    -0.030    28.758     8.794
    28   6 C        2.921    -0.048    29.202     8.862
    29   6 C        2.923     0.066    26.511     8.444
    30   7 N        2.752    -0.075    22.693     7.075
    31   6 C        2.924     0.065    26.550     8.450
    32   6 C        2.922    -0.047    29.163     8.856
    33   6 C        2.919    -0.029    28.723     8.789
    34   6 C        2.919    -0.038    28.948     8.823
    35   6 C        2.919    -0.030    28.743     8.792
    36   6 C        2.922    -0.047    29.170     8.857
    37   6 C        2.923     0.065    26.549     8.450
    38   6 C        2.922    -0.047    29.179     8.858
    39   6 C        2.919    -0.030    28.744     8.792
    40   6 C        2.919    -0.038    28.955     8.824
    41   6 C        2.919    -0.030    28.744     8.792
    42   6 C        2.922    -0.047    29.172     8.857
    43   6 C        2.920    -0.049    29.208     8.863
    44   6 C        2.923    -0.033    28.828     8.805
    45   6 C        3.008    -0.002    28.054     8.688
    46  16 S        2.270    -0.004   141.222    20.001
    47   6 C        2.941    -0.015    28.394     8.739
    48   6 C        3.081    -0.047    29.079     8.841
    49   6 C        3.154    -0.007    27.900     8.638
    50   6 C        3.154    -0.007    27.903     8.638
    51   6 C        3.081    -0.047    29.080     8.841
    52   6 C        2.941    -0.015    28.394     8.739
    53  16 S        2.269    -0.004   141.233    20.002
    54   6 C        3.008    -0.002    28.052     8.688
    55   6 C        2.923    -0.030    28.755     8.794
    56   6 C        2.921    -0.047    29.178     8.858
    57   6 C        2.922    -0.048    29.191     8.860
    58   6 C        2.919    -0.030    28.750     8.793
    59   1 H        0.926     0.032     2.559     2.502
    60   1 H        0.926     0.033     2.544     2.494
    61   1 H        0.926     0.031     2.572     2.508
    62   1 H        0.926     0.032     2.559     2.502
    63   1 H        0.926     0.034     2.530     2.487
    64   1 H        0.926     0.033     2.546     2.495
    65   1 H        0.926     0.034     2.526     2.485
    66   1 H        0.926     0.033     2.548     2.496
    67   1 H        0.926     0.037     2.490     2.468
    68   1 H        0.926     0.036     2.502     2.474
    69   1 H        0.926     0.051     2.312     2.378
    70   1 H        0.926     0.051     2.309     2.376
    71   1 H        0.926     0.033     2.538     2.491
    72   1 H        0.926     0.035     2.510     2.478
    73   1 H        0.926     0.032     2.562     2.503
    74   1 H        0.926     0.034     2.534     2.489
    75   1 H        0.926     0.033     2.542     2.493
    76   1 H        0.926     0.035     2.522     2.483
    77   1 H        0.926     0.033     2.548     2.496
    78   1 H        0.926     0.032     2.552     2.498
    79   1 H        0.926     0.034     2.525     2.485
    80   1 H        0.926     0.033     2.544     2.494
    81   1 H        0.926     0.034     2.524     2.484
    82   1 H        0.926     0.033     2.548     2.496
    83   1 H        0.926     0.037     2.488     2.467
    84   1 H        0.926     0.036     2.499     2.472
    85   1 H        0.926     0.064     2.152     2.294
    86   1 H        0.926     0.057     2.240     2.340
    87   1 H        0.926     0.057     2.240     2.340
    88   1 H        0.926     0.064     2.153     2.295
    89   1 H        0.926     0.033     2.540     2.492
    90   1 H        0.926     0.036     2.504     2.475
    91   1 H        0.926     0.032     2.559     2.502
    92   1 H        0.926     0.034     2.533     2.489

molecular dipole:
                 x           y           z       tot (Debye)
 q only:        0.601      -0.068       0.040
   full:        0.424      -0.056       0.036       1.091

 projected vibrational frequencies (cm⁻¹)
eigval :       -0.00    -0.00    -0.00     0.00     0.00     0.00
eigval :        7.99     9.87    13.95    15.50    16.67    20.64
eigval :       32.72    38.52    49.66    50.28    53.94    56.49
eigval :       62.48    62.87    70.59    75.68    76.98    88.65
eigval :       91.01   104.89   108.41   111.10   132.23   133.57
eigval :      139.22   155.63   172.26   186.49   208.74   214.27
eigval :      214.81   232.85   233.98   235.62   271.69   283.06
eigval :      293.07   302.09   306.58   321.64   330.73   333.05
eigval :      351.41   354.19   357.99   368.32   377.59   378.30
eigval :      379.29   380.49   382.17   387.20   389.36   394.00
eigval :      409.09   426.46   439.01   446.18   449.31   452.38
eigval :      478.87   486.70   490.52   493.99   494.45   505.42
eigval :      513.11   529.44   555.51   575.87   580.33   583.38
eigval :      586.10   586.65   589.44   589.91   592.94   596.68
eigval :      601.39   605.86   615.31   625.53   640.14   654.55
eigval :      658.97   659.79   664.97   665.87   673.56   685.32
eigval :      689.69   691.93   698.54   716.87   727.02   743.15
eigval :      756.34   757.50   759.16   759.36   760.14   763.51
eigval :      765.71   766.96   812.60   814.06   816.36   823.65
eigval :      829.74   840.98   844.16   855.50   867.30   868.74
eigval :      871.42   876.21   876.79   877.37   880.42   892.91
eigval :      894.48   895.05   895.87   900.11   908.99   909.51
eigval :      910.08   916.33   917.65   918.57   923.98   927.52
eigval :      928.22   929.12   929.33   930.14   930.28   931.04
eigval :      931.80   937.31   955.38   956.69   981.85   989.37
eigval :     1003.91  1004.07  1010.54  1022.62  1030.17  1069.81
eigval :     1072.60  1081.34  1081.90  1082.81  1082.88  1094.19
eigval :     1119.98  1120.51  1122.63  1122.70  1138.54  1139.79
eigval :     1142.91  1177.94  1178.16  1179.54  1179.63  1183.38
eigval :     1184.89  1193.05  1193.94  1194.57  1195.96  1199.10
eigval :     1208.55  1212.21  1212.99  1227.08  1250.57  1265.18
eigval :     1267.05  1271.50  1272.87  1276.96  1277.23  1280.48
eigval :     1280.80  1282.15  1307.99  1308.83  1314.29  1315.13
eigval :     1316.40  1321.43  1323.37  1324.32  1324.90  1325.77
eigval :     1336.33  1337.25  1372.46  1404.11  1406.33  1411.58
eigval :     1418.47  1427.52  1434.16  1434.25  1440.70  1441.11
eigval :     1459.30  1468.95  1469.10  1469.75  1472.53  1472.76
eigval :     1479.05  1484.64  1491.60  1493.54  1510.45  1522.31
eigval :     1539.59  1552.07  1554.01  1575.61  1575.89  1579.10
eigval :     1579.61  1581.84  1590.05  1591.23  1591.35  1595.69
eigval :     1599.16  1601.90  3071.39  3071.91  3072.11  3072.19
eigval :     3072.78  3073.14  3073.22  3074.13  3075.10  3075.87
eigval :     3079.00  3081.24  3081.98  3082.29  3082.79  3083.72
eigval :     3084.32  3084.78  3085.17  3086.48  3087.23  3088.58
eigval :     3090.35  3091.16  3091.45  3093.48  3093.78  3094.12
eigval :     3094.51  3095.90  3136.49  3140.02  3159.87  3160.38

   temp. (K)  partition function   enthalpy   heat capacity  entropy
                                   cal/mol     cal/K/mol   cal/K/mol   J/K/mol
 298.15  VIB  0.362E+23            27642.872    172.419    174.568
         ROT  0.203E+09              888.752      2.981     40.996
         INT  0.736E+31            28531.625    175.400    215.564
         TR   0.210E+29             1481.254      4.968     45.816
         TOT                       30012.8786   180.3685   261.3803  1093.6152

       T/K    H(0)-H(T)+PV         H(T)/Eh          T*S/Eh         G(T)/Eh
   ------------------------------------------------------------------------
    298.15    0.478286E-01    0.738330E+00    0.124190E+00    0.614139E+00
   ------------------------------------------------------------------------

         :::::::::::::::::::::::::::::::::::::::::::::::::::::
         ::                  THERMODYNAMIC                  ::
         :::::::::::::::::::::::::::::::::::::::::::::::::::::
         :: total free energy        -146.365197169994 Eh   ::
         ::.................................................::
         :: total energy             -146.979336590803 Eh   ::
         :: zero point energy           0.690501067332 Eh   ::
         :: G(RRHO) w/o ZPVE           -0.076361646522 Eh   ::
         :: G(RRHO) contrib.            0.614139420809 Eh   ::
         :::::::::::::::::::::::::::::::::::::::::::::::::::::

           -------------------------------------------------
          | TOTAL ENERGY             -146.979336590803 Eh   |
          | TOTAL ENTHALPY           -146.241006957037 Eh   |
          | TOTAL FREE ENERGY        -146.365197169994 Eh   |
          | GRADIENT NORM               0.000066315443 Eh/α |
          | HOMO-LUMO GAP               1.095255322593 eV   |
           -------------------------------------------------

 * finished run on 2025/09/11 at 08:45:30.491
