   * xtb version 6.7.1 (edcfbbe) compiled by 'albert@albert-system' on 2024-07-22

   ID    Z sym.   atoms
    1    6 C      1-4, 6-18, 20, 21, 23-29, 31-45, 47-52, 54-58
    2    7 N      5, 19, 22, 30
    3   16 S      46, 53
    4    1 H      59-92

          program call               : xtb data2507/toluene/oDTPA-DTPZ/oDTPA-DTPZ.xyz --gfn 2 --gbsa toluene --ohess vtight --parallel 40 --molden --ceasefiles --namespace data2507/toluene/oDTPA-DTPZ/oDTPA-DTPZ_toluene_S0_preOpt
      * Solvation model:               GBSA
        Solvent                        toluene
        Solvent mass                       9.2140E+01 g/mol
          :  Hamiltonian                  GFN2-xTB          :
 * total energy  :  -146.9445242 Eh     change       -0.4951914E-09 Eh
 * total energy  :  -146.9638055 Eh     change       -0.1928133E-01 Eh
 * total energy  :  -146.9718705 Eh     change       -0.8065018E-02 Eh
 * total energy  :  -146.9747187 Eh     change       -0.2848186E-02 Eh
 * total energy  :  -146.9767414 Eh     change       -0.2022711E-02 Eh
 * total energy  :  -146.9776929 Eh     change       -0.9514271E-03 Eh
 * total energy  :  -146.9780728 Eh     change       -0.3799272E-03 Eh
 * total energy  :  -146.9782904 Eh     change       -0.2176610E-03 Eh
 * total energy  :  -146.9784248 Eh     change       -0.1343262E-03 Eh
 * total energy  :  -146.9784879 Eh     change       -0.6307806E-04 Eh
 * total energy  :  -146.9785507 Eh     change       -0.8419470E-06 Eh
 * total energy  :  -146.9785512 Eh     change       -0.5660492E-06 Eh
 * total energy  :  -146.9785514 Eh     change       -0.1458632E-06 Eh
 * total energy  :  -146.9785516 Eh     change       -0.1846553E-06 Eh
 * total energy  :  -146.9785517 Eh     change       -0.1425726E-06 Eh
 * total energy  :  -146.9785519 Eh     change       -0.1752982E-06 Eh
 * total energy  :  -146.9785521 Eh     change       -0.1987949E-06 Eh
 * total energy  :  -146.9785522 Eh     change       -0.1416338E-06 Eh
 * total energy  :  -146.9785523 Eh     change       -0.8480640E-07 Eh
   *** GEOMETRY OPTIMIZATION CONVERGED AFTER 28 ITERATIONS ***

 final structure:
================
92
 xtb: 6.7.1 (edcfbbe)
C            2.21500116062812        8.10361033089314        0.18165426542300
C            3.27919644493495        7.47868015751674        0.81169446020344
C            3.43367044171057        6.10785287317655        0.73308849960212
C            2.52343883085441        5.33844216185555        0.00836653714240
N            2.67278651131778        3.94924958605388       -0.08607813145897
C            3.95040690684519        3.37801814454436       -0.12794348461742
C            4.21650217525705        2.19468541862582        0.56045763265618
C            5.48799660153519        1.65431141942189        0.54998400930772
C            6.50917988881878        2.27705020611604       -0.14963864993527
C            6.24671709117688        3.44546795083272       -0.84715629467296
C            4.97873490065892        3.99414605988991       -0.84122765580452
C            1.53993361262765        3.13097937139759       -0.06398994082356
C            0.47329211372737        3.42569147979928        0.78640296314840
C           -0.64857453392323        2.62683194046316        0.79846266633877
C           -0.74823706895007        1.50820559451201       -0.03064044843768
C           -1.98618356231282        0.71486888226711       -0.01234331192835
C           -3.18299456888462        1.39074819234540       -0.03111577735672
C           -4.41645477884049        0.71390720872348       -0.01910517729170
N           -5.56265185233280        1.40653957261554       -0.04731401766411
C           -6.69366565480533        0.72082907382288       -0.02825576464222
C           -6.69357440425811       -0.72211253709136        0.02785430026783
N           -5.56247320296471       -1.40767203268203        0.04715201416092
C           -4.41636041930991       -0.71488943197810        0.01914953377488
C           -3.18281358119535       -1.39157169764589        0.03134045379201
C           -1.98608199213120       -0.71554186891936        0.01266109062487
C           -0.74800345154345       -1.50866476139647        0.03103559576652
C            0.31951462388649       -1.21851975876949        0.88037750093275
C            1.44769736365957       -2.01234757544042        0.89453439202378
C            1.54056970665001       -3.13087346650107        0.06438142868446
N            2.67368584535025       -3.94880647755983        0.08641201597450
C            3.95112735349568       -3.37712080046355        0.12734011719775
C            4.21638777817766       -2.19391795481670       -0.56161284460362
C            5.48768719349027       -1.65307070945554       -0.55207519104500
C            6.50951626243481       -2.27519337668005        0.14715180335378
C            6.24789139615217       -3.44347101952237        0.84521713445914
C            4.98010601035497       -3.99261515870474        0.84023571815902
C            2.52466901926769       -5.33807884296311       -0.00728429593657
C            1.45657153999806       -5.97266071943076        0.62777575971544
C            1.30543522925976       -7.34283828840349        0.53584246783687
C            2.21684060010200       -8.10341481748196       -0.17904078040499
C            3.28066381370767       -7.47854979356772       -0.80977425372726
C            3.43483149588158       -6.10764544135443       -0.73192935777141
C            0.47383473085940       -3.42608955095070       -0.78571314834335
C           -0.64821261613459       -2.62748173295564       -0.79779980942086
C           -7.94608203305097       -1.38541907626224        0.05853295886680
S           -8.16036766895497       -3.10266777079924        0.13288004525380
C           -9.87418343035906       -2.90360974956268        0.12678629225435
C          -10.26605761902365       -1.60713030611406        0.07170534897382
C           -9.16545115643419       -0.71345471225797        0.03105722048304
C           -9.16554011258575        0.71184076304165       -0.03204028302075
C          -10.26625628196845        1.60536836180736       -0.07297136572046
C           -9.87454194455666        2.90189969892112       -0.12796998467349
S           -8.16075185736065        3.10118650957855       -0.13364032082005
C           -7.94625444008427        1.38396805958180       -0.05922332425560
C            0.31921530525387        1.21850019352228       -0.88021127308631
C            1.44719178427296        2.01262121516175       -0.89439210101155
C            1.45497073441624        5.97308966429304       -0.62600112631518
C            1.30353384986991        7.34318355102559       -0.53331064129458
H            2.09645171312482        9.17467180959322        0.24818788488335
H            3.99083501891504        8.06213535872906        1.37778833306034
H            4.25823655389777        5.62381641789653        1.23588704457966
H            3.42425914300428        1.71138291506961        1.11315365757094
H            5.68264810333246        0.74584858849485        1.10053547297323
H            7.50337734625553        1.85592929541337       -0.15086674762538
H            7.03470216154126        3.93286683815463       -1.40295910854988
H            4.77593136456456        4.90515770176329       -1.38531110613519
H            0.53607758301483        4.28334919627214        1.44006376326393
H           -1.45493891036120        2.85393741573990        1.48049964493312
H           -3.20876620459708        2.46897607140537       -0.08073470736484
H           -3.20846556271328       -2.46980014460698        0.08099481735729
H            0.25180817508438       -0.37919539211861        1.55605025735141
H            2.26454806372381       -1.78133455362715        1.56243532403016
H            3.42364701895552       -1.71109325308683       -1.11401329583083
H            5.68167491578816       -0.74471226452797       -1.10303499767960
H            7.50356091437887       -1.85371064024239        0.14763318457654
H            7.03638124840760       -3.93039783059227        1.40071936234223
H            4.77797309444492       -4.90351359535113        1.38475823703738
H            0.74961843047200       -5.38360276732989        1.19390301180954
H            0.47455502929898       -7.82073069443120        1.03440051047286
H            2.09853294045808       -9.17453988830900       -0.24497126847718
H            3.99225053294092       -8.06212427365389       -1.37581068352092
H            4.25909834633183       -5.62367256027451       -1.23527942657956
H            0.53670168429653       -4.28392412237472       -1.43913702005830
H           -1.45463286754134       -2.85495861254730       -1.47964691752166
H          -10.49605858174119       -3.77635792699183        0.16577330303915
H          -11.29311659176303       -1.29183119687323        0.05971612217706
H          -11.29327639627563        1.28993341148676       -0.06123054393055
H          -10.49652337862392        3.77456499580954       -0.16711895494292
H            0.25158489012542        0.37931666276323       -1.55606589161580
H            2.26396016465798        1.78198793794888       -1.56252228774223
H            0.74796994142944        5.38414942942493       -1.19219165050558
H            0.47236603050211        7.82113145889869       -1.03133579367159

          :  Hamiltonian                  GFN2-xTB          :
         :: gradient norm              0.000044763627 Eh/a0 ::
         :: HOMO-LUMO gap              1.077274124053 eV    ::
         :: SCC energy              -149.623318805183 Eh    ::
         :: -> dispersion             -0.139939562831 Eh    ::
         :: -> Gsolv                  -0.063574336609 Eh    ::
         :: repulsion energy           2.644766499689 Eh    ::

    * Orbital Energies and Occupations

         #    Occupation            Energy/Eh            Energy/eV
      -------------------------------------------------------------
         1        2.0000           -0.7369737             -20.0541
       ...           ...                  ...                  ...
       125        2.0000           -0.4074680             -11.0878
       126        2.0000           -0.4074094             -11.0862
       127        2.0000           -0.4056855             -11.0393
       128        2.0000           -0.4054358             -11.0325
       129        2.0000           -0.4047865             -11.0148
       130        2.0000           -0.4046949             -11.0123
       131        2.0000           -0.4014228             -10.9233
       132        2.0000           -0.3964425             -10.7877
       133        2.0000           -0.3868655             -10.5271
       134        2.0000           -0.3836074             -10.4385
       135        2.0000           -0.3581265              -9.7451
       136        2.0000           -0.3519689              -9.5776
       137        2.0000           -0.3498203              -9.5191 (HOMO)
       138                         -0.3102313              -8.4418 (LUMO)
       139                         -0.2730035              -7.4288
       140                         -0.2493587              -6.7854
       141                         -0.2457996              -6.6885
       142                         -0.2321837              -6.3180
       143                         -0.2307503              -6.2790
       144                         -0.2305760              -6.2743
       145                         -0.2300939              -6.2612
       146                         -0.2271889              -6.1821
       147                         -0.2249831              -6.1221
       148                         -0.2221149              -6.0441
       ...                                ...                  ...
       276                          0.7283764              19.8201
      -------------------------------------------------------------
                  HL-Gap            0.0395891 Eh            1.0773 eV

     #   Z          covCN         q      C6AA      α(0)
     1   6 C        2.919    -0.039    28.971     8.826
     2   6 C        2.919    -0.030    28.750     8.793
     3   6 C        2.922    -0.048    29.194     8.861
     4   6 C        2.924     0.065    26.546     8.449
     5   7 N        2.752    -0.077    22.730     7.081
     6   6 C        2.923     0.065    26.545     8.449
     7   6 C        2.922    -0.048    29.183     8.859
     8   6 C        2.919    -0.029    28.726     8.789
     9   6 C        2.919    -0.039    28.959     8.825
    10   6 C        2.919    -0.030    28.753     8.793
    11   6 C        2.922    -0.048    29.182     8.859
    12   6 C        2.925     0.067    26.505     8.443
    13   6 C        2.920    -0.047    29.162     8.856
    14   6 C        2.925    -0.034    28.840     8.807
    15   6 C        2.978     0.005    27.916     8.667
    16   6 C        2.973     0.011    27.761     8.643
    17   6 C        2.926    -0.055    29.365     8.887
    18   6 C        2.965     0.083    26.141     8.386
    19   7 N        1.847    -0.272    27.914     7.830
    20   6 C        2.982     0.083    26.139     8.387
    21   6 C        2.982     0.083    26.139     8.387
    22   7 N        1.847    -0.272    27.914     7.830
    23   6 C        2.965     0.083    26.141     8.386
    24   6 C        2.926    -0.055    29.365     8.887
    25   6 C        2.973     0.011    27.761     8.643
    26   6 C        2.978     0.005    27.916     8.667
    27   6 C        2.921    -0.029    28.732     8.790
    28   6 C        2.920    -0.046    29.154     8.854
    29   6 C        2.925     0.067    26.505     8.443
    30   7 N        2.752    -0.077    22.730     7.081
    31   6 C        2.923     0.065    26.545     8.449
    32   6 C        2.922    -0.048    29.183     8.859
    33   6 C        2.919    -0.029    28.726     8.789
    34   6 C        2.919    -0.039    28.960     8.825
    35   6 C        2.919    -0.030    28.753     8.793
    36   6 C        2.922    -0.048    29.182     8.859
    37   6 C        2.924     0.065    26.546     8.449
    38   6 C        2.922    -0.048    29.197     8.861
    39   6 C        2.919    -0.030    28.746     8.792
    40   6 C        2.919    -0.039    28.971     8.826
    41   6 C        2.919    -0.030    28.750     8.793
    42   6 C        2.922    -0.048    29.194     8.861
    43   6 C        2.920    -0.047    29.162     8.856
    44   6 C        2.925    -0.034    28.840     8.807
    45   6 C        3.008    -0.002    28.055     8.689
    46  16 S        2.269    -0.004   141.222    20.001
    47   6 C        2.941    -0.015    28.394     8.739
    48   6 C        3.081    -0.047    29.079     8.841
    49   6 C        3.154    -0.007    27.902     8.638
    50   6 C        3.154    -0.007    27.902     8.638
    51   6 C        3.081    -0.047    29.079     8.841
    52   6 C        2.941    -0.015    28.394     8.739
    53  16 S        2.269    -0.004   141.222    20.001
    54   6 C        3.008    -0.002    28.055     8.689
    55   6 C        2.921    -0.029    28.732     8.790
    56   6 C        2.920    -0.046    29.154     8.854
    57   6 C        2.922    -0.048    29.197     8.861
    58   6 C        2.919    -0.030    28.746     8.792
    59   1 H        0.926     0.032     2.555     2.500
    60   1 H        0.926     0.034     2.534     2.489
    61   1 H        0.926     0.032     2.553     2.499
    62   1 H        0.926     0.030     2.583     2.513
    63   1 H        0.926     0.036     2.506     2.476
    64   1 H        0.926     0.032     2.553     2.499
    65   1 H        0.926     0.034     2.536     2.490
    66   1 H        0.926     0.032     2.554     2.499
    67   1 H        0.926     0.037     2.487     2.466
    68   1 H        0.926     0.037     2.488     2.467
    69   1 H        0.926     0.051     2.305     2.374
    70   1 H        0.926     0.051     2.305     2.374
    71   1 H        0.926     0.035     2.511     2.478
    72   1 H        0.926     0.037     2.489     2.467
    73   1 H        0.926     0.030     2.583     2.513
    74   1 H        0.926     0.036     2.507     2.476
    75   1 H        0.926     0.032     2.553     2.499
    76   1 H        0.926     0.034     2.536     2.490
    77   1 H        0.926     0.032     2.554     2.499
    78   1 H        0.926     0.031     2.572     2.508
    79   1 H        0.926     0.034     2.537     2.491
    80   1 H        0.926     0.032     2.555     2.500
    81   1 H        0.926     0.034     2.534     2.489
    82   1 H        0.926     0.032     2.553     2.499
    83   1 H        0.926     0.037     2.487     2.466
    84   1 H        0.926     0.037     2.488     2.467
    85   1 H        0.926     0.064     2.153     2.295
    86   1 H        0.926     0.056     2.241     2.341
    87   1 H        0.926     0.056     2.241     2.341
    88   1 H        0.926     0.064     2.153     2.295
    89   1 H        0.926     0.035     2.511     2.478
    90   1 H        0.926     0.037     2.489     2.467
    91   1 H        0.926     0.031     2.572     2.508
    92   1 H        0.926     0.034     2.537     2.491

molecular dipole:
                 x           y           z       tot (Debye)
 q only:        0.517       0.000      -0.000
   full:        0.330       0.000      -0.000       0.838

 projected vibrational frequencies (cm⁻¹)
eigval :       -0.00    -0.00    -0.00     0.00     0.00     0.00
eigval :       13.66    14.27    16.70    20.31    22.49    26.83
eigval :       41.31    43.70    47.07    48.25    59.28    60.37
eigval :       62.23    74.47    78.55    79.69    79.75    96.85
eigval :       99.81   100.04   108.03   118.24   131.01   138.63
eigval :      148.17   157.54   173.95   185.16   206.66   210.00
eigval :      221.14   234.81   235.33   237.89   269.47   282.55
eigval :      294.03   302.78   307.52   319.85   330.96   332.53
eigval :      352.94   359.84   364.44   370.10   379.40   381.53
eigval :      381.65   383.50   388.70   389.00   394.00   396.97
eigval :      411.27   423.31   438.06   451.17   451.90   452.40
eigval :      478.67   487.63   493.05   495.48   498.14   509.34
eigval :      513.17   531.93   555.22   575.96   581.29   584.20
eigval :      584.60   586.78   589.53   590.43   593.74   599.05
eigval :      600.71   605.19   613.91   628.64   636.66   654.34
eigval :      660.68   660.68   665.16   666.29   673.27   686.51
eigval :      690.18   690.55   700.56   714.31   727.36   741.79
eigval :      752.15   756.33   756.68   758.88   764.18   764.58
eigval :      764.87   770.73   813.29   817.32   817.53   829.07
eigval :      834.54   841.12   847.13   854.71   867.88   871.82
eigval :      873.17   873.27   875.12   878.48   880.39   892.06
eigval :      892.82   892.96   894.26   900.01   909.96   909.97
eigval :      910.48   917.42   918.78   922.74   925.79   926.13
eigval :      927.52   928.12   928.31   929.95   931.01   931.20
eigval :      931.53   940.12   955.59   956.91   982.35   989.59
eigval :     1004.22  1004.44  1011.47  1023.49  1030.20  1069.65
eigval :     1072.77  1082.21  1082.26  1083.19  1083.23  1095.24
eigval :     1120.87  1121.25  1123.11  1123.85  1138.56  1139.66
eigval :     1140.25  1176.72  1177.71  1177.81  1183.17  1183.77
eigval :     1185.89  1194.28  1195.05  1195.72  1196.41  1204.58
eigval :     1209.43  1212.77  1214.54  1226.29  1252.10  1265.83
eigval :     1265.99  1272.84  1273.40  1277.70  1277.93  1281.57
eigval :     1281.77  1282.81  1308.68  1309.13  1315.77  1315.98
eigval :     1316.89  1321.23  1322.58  1323.59  1325.26  1325.50
eigval :     1337.36  1337.59  1374.60  1401.58  1405.26  1411.24
eigval :     1417.76  1425.64  1434.25  1434.44  1441.44  1441.55
eigval :     1459.88  1467.96  1469.52  1470.05  1472.69  1473.41
eigval :     1479.55  1483.24  1490.66  1492.75  1508.57  1519.50
eigval :     1537.92  1551.39  1551.55  1575.08  1575.52  1576.01
eigval :     1579.42  1580.05  1587.77  1591.47  1591.65  1594.75
eigval :     1599.02  1600.80  3071.55  3071.57  3072.08  3072.19
eigval :     3072.55  3072.61  3076.55  3076.81  3076.90  3077.94
eigval :     3080.42  3080.83  3082.43  3082.44  3083.70  3083.75
eigval :     3085.33  3085.36  3087.40  3088.10  3088.40  3088.99
eigval :     3091.46  3092.42  3092.98  3093.56  3094.18  3094.21
eigval :     3096.12  3096.53  3137.20  3140.40  3160.01  3160.31

   temp. (K)  partition function   enthalpy   heat capacity  entropy
                                   cal/mol     cal/K/mol   cal/K/mol   J/K/mol
 298.15  VIB  0.218E+22            27459.367    172.875    171.520
         ROT  0.106E+09              888.752      2.981     39.699
         INT  0.230E+30            28348.119    175.856    211.219
         TR   0.210E+29             1481.254      4.968     45.816
         TOT                       29829.3728   180.8238   257.0354  1075.4361

       T/K    H(0)-H(T)+PV         H(T)/Eh          T*S/Eh         G(T)/Eh
   ------------------------------------------------------------------------
    298.15    0.475361E-01    0.738565E+00    0.122126E+00    0.616439E+00
   ------------------------------------------------------------------------

         :::::::::::::::::::::::::::::::::::::::::::::::::::::
         ::                  THERMODYNAMIC                  ::
         :::::::::::::::::::::::::::::::::::::::::::::::::::::
         :: total free energy        -146.362112988834 Eh   ::
         ::.................................................::
         :: total energy             -146.978552305447 Eh   ::
         :: zero point energy           0.691028999179 Eh   ::
         :: G(RRHO) w/o ZPVE           -0.074589682567 Eh   ::
         :: G(RRHO) contrib.            0.616439316613 Eh   ::
         :::::::::::::::::::::::::::::::::::::::::::::::::::::

           -------------------------------------------------
          | TOTAL ENERGY             -146.978552305447 Eh   |
          | TOTAL ENTHALPY           -146.239987174833 Eh   |
          | TOTAL FREE ENERGY        -146.362112988834 Eh   |
          | GRADIENT NORM               0.000044765653 Eh/α |
          | HOMO-LUMO GAP               1.077273269093 eV   |
           -------------------------------------------------

 * finished run on 2025/09/11 at 08:34:06.618
