   * xtb version 6.7.1 (edcfbbe) compiled by 'albert@albert-system' on 2024-07-22

   ID    Z sym.   atoms
    1    6 C      1-4, 6-18, 20, 21, 23-29, 31-45, 47-52, 54-58
    2    7 N      5, 19, 22, 30
    3   16 S      46, 53
    4    1 H      59-92

          program call               : xtb data2507/toluene/oDTPA-DTPZ/oDTPA-DTPZ_toluene_S0_finalOpt.xtbopt.xyz --gfn 2 --uhf 2 --gbsa toluene --ohess vtight --parallel 40 --molden --ceasefiles --namespace data2507/toluene/oDTPA-DTPZ/oDTPA-DTPZ_toluene_T1_preOpt
      * Solvation model:               GBSA
        Solvent                        toluene
        Solvent mass                       9.2140E+01 g/mol
          :  Hamiltonian                  GFN2-xTB          :
 * total energy  :  -146.9289716 Eh     change       -0.5402370E-07 Eh
 * total energy  :  -146.9311215 Eh     change       -0.2149929E-02 Eh
 * total energy  :  -146.9318369 Eh     change       -0.7154045E-03 Eh
 * total energy  :  -146.9319258 Eh     change       -0.8886755E-04 Eh
 * total energy  :  -146.9319641 Eh     change       -0.3838718E-04 Eh
 * total energy  :  -146.9319680 Eh     change       -0.3891477E-05 Eh
 * total energy  :  -146.9319703 Eh     change       -0.2302773E-05 Eh
 * total energy  :  -146.9319726 Eh     change       -0.2238895E-05 Eh
 * total energy  :  -146.9319748 Eh     change       -0.2236538E-05 Eh
 * total energy  :  -146.9319768 Eh     change       -0.2016847E-05 Eh
 * total energy  :  -146.9319798 Eh     change       -0.6470106E-06 Eh
 * total energy  :  -146.9319805 Eh     change       -0.6368192E-06 Eh
 * total energy  :  -146.9319809 Eh     change       -0.3935984E-06 Eh
 * total energy  :  -146.9319813 Eh     change       -0.3983581E-06 Eh
 * total energy  :  -146.9319818 Eh     change       -0.5095594E-06 Eh
 * total energy  :  -146.9319823 Eh     change       -0.5450849E-06 Eh
 * total energy  :  -146.9319828 Eh     change       -0.5033659E-06 Eh
 * total energy  :  -146.9319833 Eh     change       -0.5113007E-06 Eh
 * total energy  :  -146.9319833 Eh     change       -0.4693248E-08 Eh
   *** GEOMETRY OPTIMIZATION CONVERGED AFTER 22 ITERATIONS ***

 final structure:
================
92
 xtb: 6.7.1 (edcfbbe)
C            5.39561235141129        4.75451442057107       -3.67445406461682
C            4.02006330201214        4.75983722348735       -3.50333105019063
C            3.46217824260031        4.36436136964504       -2.30319556628544
C            4.28023947262151        3.94879629230285       -1.25081411316212
N            3.71907084285515        3.54220573735510       -0.03681343116394
C            4.36740697623246        3.82290245386471        1.17184682561740
C            4.36043634928344        2.88528378442786        2.20578398208287
C            4.99927426959603        3.16257936975976        3.39870707231254
C            5.65513673972443        4.37029649565602        3.57943009400477
C            5.66591167181189        5.30398980505911        2.55495029770882
C            5.02628706119491        5.03857321041049        1.35947082216743
C            2.50366713107567        2.85104042895582       -0.02085548627020
C            1.55409202253626        3.11213861081823        0.96890194312708
C            0.36077295057600        2.42158543634119        0.99035731817733
C            0.08510909039585        1.43649975468851        0.04264633359173
C           -1.18128813560814        0.69064718102871        0.07468625281512
C           -2.37820718428986        1.38907366376080        0.15800710325873
C           -3.61206549600547        0.74442560656358        0.11508048611458
N           -4.76486793212841        1.41400020357808        0.19011421628345
C           -5.93017623577982        0.78311359806922        0.13336328465721
C           -5.95456156436702       -0.65633433027573       -0.00712737947274
N           -4.81124666694426       -1.32440964664133       -0.08290717807035
C           -3.63617517399252       -0.69190091879214       -0.02807341941772
C           -2.42428635411710       -1.37476055427675       -0.09349103310295
C           -1.20417898349483       -0.71411145255269       -0.03155582340991
C            0.04000168944229       -1.49381837439563       -0.02197278244319
C            1.02702168330571       -1.24584837181405        0.93375738090749
C            2.20165745342158       -1.96366003675743        0.94328709114309
C            2.43670640136942       -2.95175038714970       -0.01657323190680
N            3.64576769155291       -3.64895098176694       -0.03107972888260
C            4.83269655526223       -2.99018425176994        0.31207334969544
C            5.03788211486416       -1.66227075100840       -0.06649448206441
C            6.20637274725777       -1.01292643487484        0.28053582873834
C            7.18925621291278       -1.67410496002867        1.00043623174460
C            6.99311421762969       -2.99448189101780        1.37358870589472
C            5.82508860155693       -3.65136033271231        1.03695969098077
C            3.67621644595745       -5.00061648626742       -0.39302183977141
C            2.64861215405656       -5.86039062941068       -0.00223785242156
C            2.68087749755876       -7.19235479426353       -0.36705856585911
C            3.73516942910666       -7.68926683640441       -1.11729852755163
C            4.76041867852421       -6.84031683713138       -1.50392635431134
C            4.73482520157001       -5.50540811807973       -1.14955649843845
C            1.44142677259528       -3.22228286157303       -0.95864828014814
C            0.26006023382912       -2.51127512617785       -0.95012983799378
C           -7.20687335201422       -1.28371076238078       -0.05736820780681
S           -7.44883241073066       -3.00218118784305       -0.22033867842370
C           -9.16576783256476       -2.77748058069972       -0.18411602869943
C           -9.53706734602685       -1.48287684788781       -0.05740422112979
C           -8.42810053746707       -0.59898499769489        0.01845056609393
C           -8.40400732051963        0.80726588036632        0.15275575304233
C           -9.48162123053586        1.72726260939935        0.24838801944281
C           -9.06549303943564        3.00889195929508        0.36791542433501
S           -7.34163322559734        3.17696143306786        0.37336664395361
C           -7.15983119633621        1.45138793145072        0.20645549365159
C            1.02998337275057        1.19300123570310       -0.95519128464877
C            2.21803186321580        1.88971804618549       -0.99242711490988
C            5.66494336188059        3.94467191070189       -1.42906667747596
C            6.21277137794317        4.34756474185609       -2.63142310673625
H            5.82727945715904        5.06681109616881       -4.61331435523624
H            3.37575844635442        5.08302022612312       -4.30785397086930
H            2.39056734194564        4.38199128893290       -2.16850970285618
H            3.85817924204970        1.93992988883841        2.06172164443223
H            4.99141070577412        2.42729485801364        4.18986420264243
H            6.15423306345195        4.58283160282754        4.51276272662538
H            6.16810867266126        6.25055903789540        2.69070045969108
H            5.02452209763861        5.77231619499396        0.56685487514995
H            1.75767419457521        3.86577340185198        1.71552287747514
H           -0.36569623571911        2.63266483570459        1.76170833211640
H           -2.37777650412226        2.46675125498937        0.22630797744356
H           -2.45878872675644       -2.45185871838419       -0.16175510846592
H            0.85519591784963       -0.49516243645735        1.69027267501485
H            2.94730304045169       -1.77095700371714        1.70031611741170
H            4.27781441372104       -1.15094762578933       -0.63808843161940
H            6.35454532321137        0.01304785801434       -0.02209875527471
H            8.10176159359036       -1.16374996441413        1.26892271137217
H            7.75170780436627       -3.51546853316299        1.93899093449710
H            5.66945276901782       -4.67655120310597        1.33936607899777
H            1.83257482910774       -5.47741043540853        0.59291274251418
H            1.88099192079802       -7.84827717459167       -0.05624169995598
H            3.75739974933371       -8.73109758230624       -1.39899847178372
H            5.58240335613014       -7.21862946659129       -2.09367626159700
H            5.52858808681223       -4.84279860875943       -1.46187484749980
H            1.60859315975472       -3.98266360192007       -1.70727517898920
H           -0.49263469049229       -2.71817935175539       -1.69698504911835
H           -9.79715620675855       -3.64074770827464       -0.26160997447441
H          -10.56059829865425       -1.15655319624118       -0.01775964313690
H          -10.51592654828428        1.43501328270518        0.22716209421713
H           -9.66663827391641        3.89243460758227        0.45653488132438
H            0.82185262367599        0.45192114592793       -1.71234928467338
H            2.94032012981215        1.68865978286548       -1.76990126236020
H            6.30442113097271        3.62016075182746       -0.62144094619306
H            7.28547098164255        4.33585902146763       -2.75787388351338

          :  Hamiltonian                  GFN2-xTB          :
         :: gradient norm              0.000058054740 Eh/a0 ::
         :: HOMO-LUMO gap              1.039304651135 eV    ::
         :: SCC energy              -149.579071677852 Eh    ::
         :: -> dispersion             -0.138005024018 Eh    ::
         :: -> Gsolv                  -0.068542756947 Eh    ::
         :: repulsion energy           2.647088332819 Eh    ::

    * Orbital Energies and Occupations

         #    Occupation            Energy/Eh            Energy/eV
      -------------------------------------------------------------
         1        2.0000           -0.7260902             -19.7579
       ...           ...                  ...                  ...
       126        2.0000           -0.4107295             -11.1765
       127        2.0000           -0.4106313             -11.1738
       128        2.0000           -0.4097285             -11.1493
       129        2.0000           -0.4093507             -11.1390
       130        2.0000           -0.4054508             -11.0329
       131        2.0000           -0.4000939             -10.8871
       132        2.0000           -0.3874067             -10.5419
       133        2.0000           -0.3786918             -10.3047
       134        2.0000           -0.3721622             -10.1270
       135        1.9474           -0.3570336              -9.7154
       136        1.7085           -0.3551311              -9.6636
       137        1.3441           -0.3536747              -9.6240
       138        1.0000           -0.3028044              -8.2397 (HOMO)
       139                         -0.2646105              -7.2004 (LUMO)
       140                         -0.2458306              -6.6894
       141                         -0.2406212              -6.5476
       142                         -0.2369746              -6.4484
       143                         -0.2365285              -6.4363
       144                         -0.2340642              -6.3692
       145                         -0.2322053              -6.3186
       146                         -0.2285753              -6.2199
       147                         -0.2276755              -6.1954
       148                         -0.2271747              -6.1817
       149                         -0.2269451              -6.1755
       ...                                ...                  ...
       276                          0.7447744              20.2663
      -------------------------------------------------------------
                  HL-Gap            0.0381939 Eh            1.0393 eV

     #   Z          covCN         q      C6AA      α(0)
     1   6 C        2.919    -0.035    28.878     8.812
     2   6 C        2.919    -0.028    28.698     8.785
     3   6 C        2.922    -0.045    29.126     8.850
     4   6 C        2.923     0.065    26.551     8.450
     5   7 N        2.752    -0.058    22.354     7.022
     6   6 C        2.925     0.065    26.554     8.451
     7   6 C        2.922    -0.044    29.101     8.846
     8   6 C        2.919    -0.028    28.693     8.784
     9   6 C        2.919    -0.035    28.862     8.810
    10   6 C        2.919    -0.028    28.699     8.785
    11   6 C        2.921    -0.045    29.106     8.847
    12   6 C        2.925     0.063    26.584     8.455
    13   6 C        2.920    -0.045    29.107     8.847
    14   6 C        2.923    -0.033    28.820     8.804
    15   6 C        2.977     0.011    27.763     8.643
    16   6 C        2.976    -0.002    28.061     8.689
    17   6 C        2.923    -0.066    29.655     8.930
    18   6 C        2.941     0.087    26.067     8.374
    19   7 N        1.847    -0.260    27.607     7.787
    20   6 C        2.963     0.082    26.178     8.392
    21   6 C        2.963     0.082    26.177     8.392
    22   7 N        1.847    -0.260    27.609     7.787
    23   6 C        2.941     0.087    26.070     8.374
    24   6 C        2.923    -0.067    29.658     8.931
    25   6 C        2.975    -0.002    28.062     8.689
    26   6 C        2.977     0.010    27.780     8.646
    27   6 C        2.923    -0.031    28.776     8.797
    28   6 C        2.920    -0.046    29.142     8.853
    29   6 C        2.924     0.063    26.584     8.455
    30   7 N        2.752    -0.056    22.321     7.017
    31   6 C        2.925     0.064    26.560     8.452
    32   6 C        2.922    -0.044    29.101     8.846
    33   6 C        2.919    -0.027    28.684     8.783
    34   6 C        2.919    -0.034    28.858     8.809
    35   6 C        2.919    -0.028    28.696     8.784
    36   6 C        2.921    -0.044    29.103     8.847
    37   6 C        2.924     0.064    26.557     8.451
    38   6 C        2.922    -0.044    29.104     8.847
    39   6 C        2.919    -0.028    28.695     8.784
    40   6 C        2.919    -0.034    28.859     8.809
    41   6 C        2.919    -0.028    28.698     8.785
    42   6 C        2.922    -0.045    29.107     8.847
    43   6 C        2.920    -0.046    29.130     8.851
    44   6 C        2.923    -0.033    28.823     8.804
    45   6 C        3.006    -0.003    28.076     8.692
    46  16 S        2.255    -0.060   143.543    20.165
    47   6 C        2.937    -0.016    28.400     8.740
    48   6 C        3.073    -0.048    29.118     8.847
    49   6 C        3.141    -0.016    28.167     8.685
    50   6 C        3.141    -0.016    28.169     8.685
    51   6 C        3.073    -0.048    29.118     8.848
    52   6 C        2.937    -0.016    28.399     8.740
    53  16 S        2.255    -0.060   143.552    20.165
    54   6 C        3.006    -0.003    28.074     8.691
    55   6 C        2.923    -0.031    28.773     8.797
    56   6 C        2.920    -0.045    29.124     8.850
    57   6 C        2.922    -0.045    29.129     8.851
    58   6 C        2.919    -0.028    28.705     8.786
    59   1 H        0.926     0.036     2.497     2.471
    60   1 H        0.926     0.037     2.489     2.467
    61   1 H        0.926     0.035     2.512     2.478
    62   1 H        0.926     0.037     2.488     2.467
    63   1 H        0.926     0.039     2.468     2.457
    64   1 H        0.926     0.037     2.487     2.466
    65   1 H        0.926     0.039     2.468     2.457
    66   1 H        0.926     0.037     2.483     2.464
    67   1 H        0.926     0.040     2.454     2.450
    68   1 H        0.926     0.038     2.480     2.463
    69   1 H        0.926     0.042     2.420     2.433
    70   1 H        0.926     0.043     2.414     2.430
    71   1 H        0.926     0.036     2.502     2.474
    72   1 H        0.926     0.039     2.457     2.451
    73   1 H        0.926     0.037     2.489     2.467
    74   1 H        0.926     0.039     2.464     2.455
    75   1 H        0.926     0.038     2.475     2.460
    76   1 H        0.926     0.039     2.461     2.453
    77   1 H        0.926     0.037     2.483     2.464
    78   1 H        0.926     0.037     2.491     2.468
    79   1 H        0.926     0.038     2.472     2.459
    80   1 H        0.926     0.037     2.484     2.464
    81   1 H        0.926     0.039     2.458     2.452
    82   1 H        0.926     0.038     2.471     2.458
    83   1 H        0.926     0.040     2.447     2.446
    84   1 H        0.926     0.038     2.477     2.461
    85   1 H        0.926     0.052     2.290     2.366
    86   1 H        0.926     0.045     2.380     2.413
    87   1 H        0.926     0.045     2.380     2.412
    88   1 H        0.926     0.052     2.290     2.367
    89   1 H        0.926     0.036     2.509     2.477
    90   1 H        0.926     0.039     2.456     2.451
    91   1 H        0.926     0.038     2.479     2.462
    92   1 H        0.926     0.039     2.465     2.455

molecular dipole:
                 x           y           z       tot (Debye)
 q only:        5.143      -0.140      -0.016
   full:        4.806      -0.131      -0.019      12.220

 projected vibrational frequencies (cm⁻¹)
eigval :       -0.00    -0.00     0.00     0.00     0.00     0.00
eigval :      -18.47     7.06    10.23    14.48    16.73    18.96
eigval :       26.28    37.49    48.67    50.30    53.54    58.33
eigval :       61.41    63.01    67.28    75.80    79.23    89.09
eigval :       90.37   104.65   107.43   110.82   132.11   136.27
eigval :      139.95   156.04   171.93   184.28   208.18   209.09
eigval :      214.27   222.17   231.32   232.84   261.61   275.21
eigval :      287.81   302.32   305.94   318.43   323.70   329.39
eigval :      347.28   350.58   353.58   358.42   360.73   376.69
eigval :      377.50   378.59   378.94   386.82   387.84   394.08
eigval :      411.43   426.85   429.27   431.51   446.25   451.19
eigval :      476.13   485.42   486.30   494.92   498.25   502.67
eigval :      514.30   528.15   550.99   566.95   573.97   575.69
eigval :      581.62   583.37   585.05   587.24   588.59   592.64
eigval :      594.84   603.67   613.79   614.24   625.02   644.58
eigval :      654.18   657.39   659.33   661.60   663.20   670.63
eigval :      677.55   680.93   682.23   695.69   701.51   721.83
eigval :      740.36   747.86   748.65   752.40   758.80   759.99
eigval :      762.76   765.66   804.79   808.22   811.98   817.39
eigval :      820.82   826.04   829.88   831.52   839.33   864.61
eigval :      867.00   873.46   874.07   874.94   875.73   877.10
eigval :      893.87   895.24   896.76   899.69   903.53   908.92
eigval :      909.24   915.83   917.20   919.05   927.46   928.67
eigval :      928.85   929.44   930.39   930.96   931.92   932.79
eigval :      936.68   937.40   946.74   952.61   981.38   987.74
eigval :     1002.85  1002.95  1010.72  1019.40  1027.71  1070.38
eigval :     1077.32  1080.36  1080.85  1081.88  1081.98  1092.88
eigval :     1120.04  1120.41  1122.66  1122.69  1136.68  1138.73
eigval :     1140.48  1177.00  1177.81  1179.02  1179.39  1179.67
eigval :     1181.59  1191.31  1192.19  1193.02  1193.32  1196.94
eigval :     1209.41  1210.68  1210.97  1224.58  1240.40  1244.53
eigval :     1266.28  1266.84  1267.37  1271.70  1275.28  1275.57
eigval :     1276.23  1278.86  1280.05  1302.91  1304.37  1308.35
eigval :     1311.40  1314.05  1314.62  1321.16  1323.66  1323.93
eigval :     1324.19  1324.31  1356.29  1378.17  1381.95  1397.80
eigval :     1402.65  1411.06  1412.40  1432.45  1432.50  1439.03
eigval :     1439.42  1463.09  1463.53  1464.38  1464.63  1469.54
eigval :     1475.29  1485.31  1488.94  1494.46  1504.50  1524.86
eigval :     1527.05  1543.82  1546.99  1548.79  1570.87  1571.03
eigval :     1574.41  1574.67  1581.42  1584.87  1585.00  1585.12
eigval :     1592.77  1593.66  3075.55  3075.80  3075.96  3076.20
eigval :     3076.52  3076.64  3076.93  3077.18  3077.67  3080.20
eigval :     3080.54  3081.93  3084.48  3084.83  3085.45  3085.77
eigval :     3086.30  3087.22  3087.54  3088.30  3088.52  3088.84
eigval :     3089.69  3090.92  3092.83  3094.27  3096.57  3096.72
eigval :     3096.96  3098.78  3128.30  3131.64  3156.93  3157.49

   temp. (K)  partition function   enthalpy   heat capacity  entropy
                                   cal/mol     cal/K/mol   cal/K/mol   J/K/mol
 298.15  VIB  0.584E+23            27872.877    173.597    175.892
         ROT  0.204E+09              888.752      2.981     41.004
         INT  0.119E+32            28761.630    176.577    216.896
         TR   0.210E+29             1481.254      4.968     45.816
         TOT                       30242.8835   181.5456   262.7119  1099.1864

       T/K    H(0)-H(T)+PV         H(T)/Eh          T*S/Eh         G(T)/Eh
   ------------------------------------------------------------------------
    298.15    0.481951E-01    0.736216E+00    0.124823E+00    0.611393E+00
   ------------------------------------------------------------------------

         :::::::::::::::::::::::::::::::::::::::::::::::::::::
         ::                  THERMODYNAMIC                  ::
         :::::::::::::::::::::::::::::::::::::::::::::::::::::
         :: total free energy        -146.320590077830 Eh   ::
         ::.................................................::
         :: total energy             -146.931983350902 Eh   ::
         :: zero point energy           0.688021050749 Eh   ::
         :: G(RRHO) w/o ZPVE           -0.076627777677 Eh   ::
         :: G(RRHO) contrib.            0.611393273072 Eh   ::
         :::::::::::::::::::::::::::::::::::::::::::::::::::::

           -------------------------------------------------
          | TOTAL ENERGY             -146.931983350902 Eh   |
          | TOTAL ENTHALPY           -146.195767197475 Eh   |
          | TOTAL FREE ENERGY        -146.320590077830 Eh   |
          | GRADIENT NORM               0.000060336050 Eh/α |
          | HOMO-LUMO GAP               1.039309298080 eV   |
           -------------------------------------------------

 * finished run on 2025/09/11 at 08:45:40.615
