   * xtb version 6.7.1 (edcfbbe) compiled by 'albert@albert-system' on 2024-07-22

   ID    Z sym.   atoms
    1    6 C      1-4, 6-18, 20, 21, 23-29, 31-45, 47-52, 54-58
    2    7 N      5, 19, 22, 30
    3   16 S      46, 53
    4    1 H      59-92

          program call               : xtb data2507/toluene/oDTPA-DTPZ/oDTPA-DTPZ_toluene_T1_crest.xyz --gfn 2 --uhf 2 --gbsa toluene --ohess vtight --parallel 40 --molden --ceasefiles --namespace data2507/toluene/oDTPA-DTPZ/oDTPA-DTPZ_toluene_T1_finalOpt
      * Solvation model:               GBSA
        Solvent                        toluene
        Solvent mass                       9.2140E+01 g/mol
          :  Hamiltonian                  GFN2-xTB          :
 * total energy  :  -146.9299075 Eh     change        0.3001986E-08 Eh
 * total energy  :  -146.9300877 Eh     change       -0.1801421E-03 Eh
 * total energy  :  -146.9302235 Eh     change       -0.1358574E-03 Eh
 * total energy  :  -146.9302476 Eh     change       -0.2408654E-04 Eh
 * total energy  :  -146.9302869 Eh     change       -0.3934709E-04 Eh
 * total energy  :  -146.9303207 Eh     change       -0.3375255E-04 Eh
 * total energy  :  -146.9303623 Eh     change       -0.4159814E-04 Eh
 * total energy  :  -146.9304054 Eh     change       -0.4308226E-04 Eh
 * total energy  :  -146.9304334 Eh     change       -0.2799629E-04 Eh
 * total energy  :  -146.9304617 Eh     change       -0.2833249E-04 Eh
 * total energy  :  -146.9319915 Eh     change       -0.3554149E-06 Eh
 * total energy  :  -146.9319918 Eh     change       -0.3942004E-06 Eh
 * total energy  :  -146.9319922 Eh     change       -0.3486877E-06 Eh
 * total energy  :  -146.9319924 Eh     change       -0.2287281E-06 Eh
 * total energy  :  -146.9319926 Eh     change       -0.1633485E-06 Eh
 * total energy  :  -146.9319928 Eh     change       -0.1692756E-06 Eh
 * total energy  :  -146.9319929 Eh     change       -0.1702376E-06 Eh
 * total energy  :  -146.9319931 Eh     change       -0.1523217E-06 Eh
 * total energy  :  -146.9319932 Eh     change       -0.9530194E-07 Eh
   *** GEOMETRY OPTIMIZATION CONVERGED AFTER 89 ITERATIONS ***

 final structure:
================
92
 xtb: 6.7.1 (edcfbbe)
C            5.36119573173704        4.93336571606742       -3.50930732142009
C            3.98743070091547        4.92575426834421       -3.32450583654629
C            3.44271566258586        4.47173014436525       -2.13909883568342
C            4.27265602014811        4.00974055671175       -1.11576452013444
N            3.72589557583524        3.54594594069970        0.08407049528659
C            4.38857308064159        3.77122639407550        1.29657007812190
C            4.39683116438002        2.78558791667327        2.28474476410879
C            5.05008520060730        3.00790347675528        3.48140903512680
C            5.70574921259727        4.20745429742059        3.71066742388235
C            5.70135590919369        5.18873913497340        2.73159604576279
C            5.04735712647305        4.97841498428986        1.53295835112963
C            2.51159254005099        2.85262811659938        0.08269750662969
C            1.57300106905338        3.06775783855551        1.09377689044831
C            0.38009189839351        2.37606524564595        1.09669041765961
C            0.09533417390257        1.43389958240610        0.10902301743317
C           -1.17124355064732        0.68727563707286        0.11886653938725
C           -2.36683573726581        1.38410095393127        0.22825735693828
C           -3.60202343921777        0.74379553502518        0.16046215863210
N           -4.75375147964578        1.41174265772402        0.26003801757121
C           -5.92006320219196        0.78596822528360        0.17247381116165
C           -5.94637245034388       -0.64577598609400       -0.03098939212623
N           -4.80404624783281       -1.31297271648974       -0.12562504522114
C           -3.62802566035447       -0.68564214423762       -0.03903920106558
C           -2.41741694892424       -1.36821071193629       -0.12458578882090
C           -1.19567190250212       -0.71278807674249       -0.03769415668648
C            0.04619825373421       -1.49550248595079       -0.05633138715152
C            1.04502063608736       -1.27015687558745        0.89304574922638
C            2.21739551058384       -1.99161773645418        0.87467785966199
C            2.43645279511634       -2.96317023062444       -0.10527727157651
N            3.64273980160151       -3.66527613700983       -0.14755558320156
C            4.83904898395769       -3.01075784927727        0.16704954461771
C            5.03050936848656       -1.67710384740402       -0.19904409229310
C            6.20924683096778       -1.03090913143812        0.11771643701742
C            7.21673053048919       -1.70068795925569        0.79442825020511
C            7.03419449592517       -3.02646027475403        1.15534172699486
C            5.85580985122760       -3.68005152191786        0.84985026076770
C            3.65567258439746       -5.01573751174132       -0.51477753603257
C            2.63078685039811       -5.86853896802924       -0.10205478413331
C            2.64389197538333       -7.19971769352704       -0.47086576401682
C            3.67557685573127       -7.70247211970475       -1.24814788538319
C            4.69746278904167       -6.86020779783724       -1.65770150928371
C            4.69112668183617       -5.52621608766295       -1.29899604714939
C            1.42908958963911       -3.21352923104832       -1.03972268224128
C            0.25181229111620       -2.49666349783746       -1.00570770467106
C           -7.19955976015042       -1.26739156565694       -0.11877330172067
S           -7.44359004490341       -2.97566270687262       -0.36408432382728
C           -9.16028468594251       -2.74863522085483       -0.33261230151976
C           -9.53002556135264       -1.46062026457057       -0.14777851019955
C           -8.41990932218959       -0.58378144760642       -0.02199874225302
C           -8.39394666789640        0.81444310116884        0.17837415347610
C           -9.47035506305989        1.73155106120579        0.30909595271313
C           -9.05253490924799        3.00522386977554        0.49108066729222
S           -7.32841105930214        3.16921449501249        0.51391592375837
C           -7.14884463854524        1.45286162087946        0.26863401648768
C            1.02976904119946        1.23519304465565       -0.90820872832154
C            2.21647961809725        1.93501775215099       -0.92752876073985
C            5.65548551058729        4.01811939916641       -1.30799572850194
C            6.19001352999717        4.47935416594505       -2.49528138577468
H            5.78244437585496        5.29181012460261       -4.43633170958882
H            3.33423695550001        5.28484786759389       -4.10632168565498
H            2.37245038053849        4.47936279301280       -1.99320017007407
H            3.89483975893692        1.84679958137273        2.10206644154228
H            5.05415404676637        2.23583698412914        4.23674868799328
H            6.21614087895818        4.37703320433508        4.64668108948746
H            6.20341302992002        6.12909206377280        2.90571681979901
H            5.03445875031707        5.74854386039187        0.77562459031911
H            1.78454913592280        3.78687962707152        1.87159592102529
H           -0.33870232652469        2.55148256719743        1.88404281828238
H           -2.36403724572192        2.45841697514907        0.33741979428880
H           -2.45445881148974       -2.44201535714573       -0.23164183901172
H            0.88466445456237       -0.53460746748166        1.66663061128788
H            2.97375968514637       -1.81557129155694        1.62518397007082
H            4.25197029785601       -1.15907184826298       -0.73870574550052
H            6.34571969198781       -0.00046004925979       -0.17530577438300
H            8.13762914560715       -1.19317114201493        1.03847934659458
H            7.81195242011493       -3.55447521978035        1.68723635034746
H            5.71168109663269       -4.70924383353979        1.14410489544859
H            1.83209100610694       -5.48071463935505        0.51318598459880
H            1.84666582793266       -7.85036388044392       -0.14259953371648
H            3.68299075998783       -8.74368684540726       -1.53290028910708
H            5.50159884417840       -7.24302993379853       -2.26879601710119
H            5.48176764683227       -4.86866401618253       -1.62936469132960
H            1.58400644867426       -3.96250864959928       -1.80242488400611
H           -0.50943335150870       -2.68695333644630       -1.74820940208291
H           -9.79261749187347       -3.60582345499565       -0.45616244769273
H          -10.55320996921489       -1.13402944999112       -0.10194754966012
H          -10.50506978420622        1.44284285012065        0.26845510917549
H           -9.65245510962249        3.88503776087832        0.61713633825569
H            0.81420672554850        0.52691573238767       -1.69424588051238
H            2.93029585950383        1.76993895814957       -1.72110246830600
H            6.30388060571089        3.65707841803187       -0.52332512196891
H            7.26140997429459        4.47717419149959       -2.63283975407795

          :  Hamiltonian                  GFN2-xTB          :
         :: gradient norm              0.000034055021 Eh/a0 ::
         :: HOMO-LUMO gap              1.038873513465 eV    ::
         :: SCC energy              -149.579017391496 Eh    ::
         :: -> dispersion             -0.137969384215 Eh    ::
         :: -> Gsolv                  -0.068560192249 Eh    ::
         :: repulsion energy           2.647024217038 Eh    ::

    * Orbital Energies and Occupations

         #    Occupation            Energy/Eh            Energy/eV
      -------------------------------------------------------------
         1        2.0000           -0.7261118             -19.7585
       ...           ...                  ...                  ...
       126        2.0000           -0.4106674             -11.1748
       127        2.0000           -0.4106454             -11.1742
       128        2.0000           -0.4097293             -11.1493
       129        2.0000           -0.4093877             -11.1400
       130        2.0000           -0.4054265             -11.0322
       131        2.0000           -0.4000636             -10.8863
       132        2.0000           -0.3874016             -10.5417
       133        2.0000           -0.3787007             -10.3050
       134        2.0000           -0.3721618             -10.1270
       135        1.9477           -0.3570549              -9.7160
       136        1.7077           -0.3551419              -9.6639
       137        1.3445           -0.3536905              -9.6244
       138        1.0000           -0.3028444              -8.2408 (HOMO)
       139                         -0.2646667              -7.2019 (LUMO)
       140                         -0.2459709              -6.6932
       141                         -0.2406492              -6.5484
       142                         -0.2368963              -6.4463
       143                         -0.2365298              -6.4363
       144                         -0.2340949              -6.3700
       145                         -0.2321776              -6.3179
       146                         -0.2286124              -6.2209
       147                         -0.2276094              -6.1936
       148                         -0.2271480              -6.1810
       149                         -0.2269317              -6.1751
       ...                                ...                  ...
       276                          0.7448382              20.2681
      -------------------------------------------------------------
                  HL-Gap            0.0381777 Eh            1.0389 eV

     #   Z          covCN         q      C6AA      α(0)
     1   6 C        2.919    -0.035    28.878     8.812
     2   6 C        2.919    -0.028    28.698     8.785
     3   6 C        2.922    -0.045    29.126     8.850
     4   6 C        2.923     0.065    26.551     8.450
     5   7 N        2.752    -0.058    22.354     7.022
     6   6 C        2.925     0.065    26.554     8.451
     7   6 C        2.922    -0.044    29.101     8.846
     8   6 C        2.919    -0.028    28.693     8.784
     9   6 C        2.919    -0.035    28.861     8.810
    10   6 C        2.919    -0.028    28.699     8.785
    11   6 C        2.921    -0.044    29.105     8.847
    12   6 C        2.925     0.063    26.584     8.455
    13   6 C        2.920    -0.045    29.106     8.847
    14   6 C        2.923    -0.033    28.820     8.804
    15   6 C        2.977     0.011    27.760     8.642
    16   6 C        2.976    -0.001    28.059     8.689
    17   6 C        2.923    -0.066    29.655     8.930
    18   6 C        2.941     0.087    26.065     8.373
    19   7 N        1.847    -0.260    27.606     7.787
    20   6 C        2.963     0.082    26.179     8.392
    21   6 C        2.963     0.082    26.176     8.392
    22   7 N        1.847    -0.260    27.610     7.788
    23   6 C        2.941     0.087    26.071     8.374
    24   6 C        2.923    -0.067    29.660     8.931
    25   6 C        2.975    -0.002    28.065     8.690
    26   6 C        2.976     0.010    27.779     8.645
    27   6 C        2.923    -0.031    28.778     8.797
    28   6 C        2.920    -0.046    29.135     8.851
    29   6 C        2.925     0.063    26.587     8.456
    30   7 N        2.752    -0.056    22.321     7.017
    31   6 C        2.924     0.064    26.558     8.451
    32   6 C        2.922    -0.045    29.108     8.848
    33   6 C        2.919    -0.027    28.684     8.783
    34   6 C        2.919    -0.035    28.862     8.810
    35   6 C        2.919    -0.028    28.697     8.785
    36   6 C        2.921    -0.045    29.109     8.848
    37   6 C        2.924     0.064    26.556     8.451
    38   6 C        2.922    -0.044    29.104     8.847
    39   6 C        2.919    -0.028    28.695     8.784
    40   6 C        2.919    -0.034    28.859     8.809
    41   6 C        2.919    -0.028    28.699     8.785
    42   6 C        2.922    -0.045    29.107     8.847
    43   6 C        2.920    -0.045    29.124     8.850
    44   6 C        2.923    -0.033    28.825     8.804
    45   6 C        3.006    -0.003    28.077     8.692
    46  16 S        2.255    -0.060   143.538    20.164
    47   6 C        2.937    -0.016    28.400     8.740
    48   6 C        3.073    -0.048    29.118     8.847
    49   6 C        3.141    -0.016    28.167     8.685
    50   6 C        3.141    -0.016    28.169     8.685
    51   6 C        3.073    -0.048    29.118     8.848
    52   6 C        2.937    -0.016    28.399     8.740
    53  16 S        2.255    -0.060   143.552    20.165
    54   6 C        3.006    -0.003    28.073     8.691
    55   6 C        2.923    -0.031    28.771     8.796
    56   6 C        2.920    -0.045    29.122     8.849
    57   6 C        2.922    -0.046    29.131     8.851
    58   6 C        2.919    -0.028    28.705     8.786
    59   1 H        0.926     0.036     2.497     2.471
    60   1 H        0.926     0.037     2.489     2.467
    61   1 H        0.926     0.035     2.512     2.478
    62   1 H        0.926     0.037     2.488     2.467
    63   1 H        0.926     0.039     2.468     2.457
    64   1 H        0.926     0.037     2.487     2.466
    65   1 H        0.926     0.039     2.468     2.457
    66   1 H        0.926     0.038     2.482     2.464
    67   1 H        0.926     0.040     2.453     2.449
    68   1 H        0.926     0.038     2.480     2.463
    69   1 H        0.926     0.042     2.421     2.433
    70   1 H        0.926     0.043     2.412     2.429
    71   1 H        0.926     0.036     2.497     2.471
    72   1 H        0.926     0.039     2.456     2.451
    73   1 H        0.926     0.037     2.492     2.469
    74   1 H        0.926     0.039     2.467     2.456
    75   1 H        0.926     0.038     2.477     2.461
    76   1 H        0.926     0.039     2.463     2.454
    77   1 H        0.926     0.037     2.483     2.464
    78   1 H        0.926     0.037     2.493     2.469
    79   1 H        0.926     0.038     2.472     2.459
    80   1 H        0.926     0.037     2.484     2.464
    81   1 H        0.926     0.039     2.458     2.452
    82   1 H        0.926     0.038     2.469     2.457
    83   1 H        0.926     0.040     2.449     2.447
    84   1 H        0.926     0.038     2.473     2.459
    85   1 H        0.926     0.052     2.290     2.366
    86   1 H        0.926     0.045     2.380     2.412
    87   1 H        0.926     0.045     2.380     2.412
    88   1 H        0.926     0.052     2.291     2.367
    89   1 H        0.926     0.035     2.510     2.478
    90   1 H        0.926     0.040     2.455     2.450
    91   1 H        0.926     0.038     2.479     2.462
    92   1 H        0.926     0.039     2.466     2.455

molecular dipole:
                 x           y           z       tot (Debye)
 q only:        5.121      -0.145      -0.029
   full:        4.784      -0.134      -0.035      12.165

 projected vibrational frequencies (cm⁻¹)
eigval :       -0.00    -0.00     0.00     0.00     0.00     0.00
eigval :       12.08    12.63    14.74    17.15    17.57    22.21
eigval :       35.28    40.66    48.93    50.09    53.18    59.21
eigval :       62.64    64.69    74.35    76.18    81.50    87.28
eigval :       95.66   105.69   107.67   112.06   132.63   135.99
eigval :      140.81   157.75   172.09   184.78   208.75   209.79
eigval :      214.13   223.15   231.98   233.40   262.00   275.77
eigval :      289.40   302.50   306.42   319.30   325.99   329.56
eigval :      348.27   350.86   354.24   359.71   362.16   375.38
eigval :      377.69   379.21   380.58   386.80   388.95   395.96
eigval :      411.58   427.04   432.71   433.76   447.36   451.71
eigval :      476.85   485.83   487.62   495.46   498.23   503.10
eigval :      514.42   528.94   551.10   568.99   574.39   575.89
eigval :      581.75   583.48   585.49   587.60   588.98   592.72
eigval :      595.21   603.18   613.54   613.92   625.46   642.63
eigval :      653.96   658.15   659.63   660.38   664.10   670.41
eigval :      676.70   680.54   681.07   696.00   699.46   721.96
eigval :      740.07   748.13   748.65   753.07   754.74   757.45
eigval :      761.19   762.91   804.78   808.55   812.38   818.16
eigval :      820.91   825.89   830.41   831.48   840.00   866.29
eigval :      867.17   869.67   871.07   873.76   874.62   874.78
eigval :      891.64   893.33   895.66   897.67   901.47   908.83
eigval :      909.18   916.85   917.23   920.38   925.23   926.23
eigval :      927.46   928.00   928.25   928.83   929.77   930.33
eigval :      930.58   935.54   947.04   952.69   981.50   987.84
eigval :     1002.88  1002.92  1010.84  1019.32  1028.05  1070.12
eigval :     1077.21  1080.21  1080.87  1081.59  1081.89  1092.77
eigval :     1119.57  1120.64  1122.26  1123.21  1136.45  1137.49
eigval :     1141.79  1177.32  1177.73  1178.50  1178.66  1179.09
eigval :     1181.55  1190.20  1191.39  1192.85  1194.22  1197.14
eigval :     1209.27  1210.04  1211.99  1224.53  1240.57  1244.68
eigval :     1265.32  1267.24  1268.24  1272.04  1274.88  1275.27
eigval :     1275.98  1278.77  1280.18  1303.57  1304.12  1308.27
eigval :     1311.48  1314.17  1314.59  1321.15  1323.50  1323.97
eigval :     1324.26  1324.39  1356.12  1378.37  1381.85  1397.77
eigval :     1402.61  1410.89  1412.47  1432.32  1432.45  1439.23
eigval :     1439.34  1463.18  1463.38  1464.06  1464.30  1469.63
eigval :     1475.41  1485.51  1488.95  1494.89  1504.60  1525.17
eigval :     1527.83  1543.94  1547.14  1548.97  1570.84  1571.10
eigval :     1574.35  1574.63  1581.38  1584.71  1584.73  1585.08
eigval :     1592.76  1593.50  3075.16  3075.72  3075.90  3076.06
eigval :     3076.29  3076.33  3077.08  3077.26  3077.73  3079.75
eigval :     3080.81  3081.36  3084.16  3085.05  3085.37  3085.61
eigval :     3086.16  3087.28  3087.49  3088.19  3088.51  3088.89
eigval :     3089.73  3091.15  3092.87  3094.83  3096.28  3096.58
eigval :     3097.06  3098.54  3128.12  3131.36  3157.13  3157.42

   temp. (K)  partition function   enthalpy   heat capacity  entropy
                                   cal/mol     cal/K/mol   cal/K/mol   J/K/mol
 298.15  VIB  0.134E+23            27800.702    173.939    174.465
         ROT  0.204E+09              888.752      2.981     41.006
         INT  0.273E+31            28689.455    176.920    215.472
         TR   0.210E+29             1481.254      4.968     45.816
         TOT                       30170.7086   181.8878   261.2880  1093.2292

       T/K    H(0)-H(T)+PV         H(T)/Eh          T*S/Eh         G(T)/Eh
   ------------------------------------------------------------------------
    298.15    0.480801E-01    0.736151E+00    0.124146E+00    0.612005E+00
   ------------------------------------------------------------------------

         :::::::::::::::::::::::::::::::::::::::::::::::::::::
         ::                  THERMODYNAMIC                  ::
         :::::::::::::::::::::::::::::::::::::::::::::::::::::
         :: total free energy        -146.319988436649 Eh   ::
         ::.................................................::
         :: total energy             -146.931993180538 Eh   ::
         :: zero point energy           0.688071041039 Eh   ::
         :: G(RRHO) w/o ZPVE           -0.076066297149 Eh   ::
         :: G(RRHO) contrib.            0.612004743890 Eh   ::
         :::::::::::::::::::::::::::::::::::::::::::::::::::::

           -------------------------------------------------
          | TOTAL ENERGY             -146.931993180538 Eh   |
          | TOTAL ENTHALPY           -146.195842054893 Eh   |
          | TOTAL FREE ENERGY        -146.319988436649 Eh   |
          | GRADIENT NORM               0.000034243125 Eh/α |
          | HOMO-LUMO GAP               1.038867392677 eV   |
           -------------------------------------------------

 * finished run on 2025/09/11 at 08:59:50.075
