   * xtb version 6.7.1 (edcfbbe) compiled by 'albert@albert-system' on 2024-07-22

   ID    Z sym.   atoms
    1    6 C      1-4, 6-36
    2    7 N      5
    3    1 H      37-59

          program call               : xtb data2507/gas/SPBAC-PH/SPBAC-PH_gas_S0_crest.xyz --gfn 2 --ohess vtight --parallel 40 --molden --ceasefiles --namespace data2507/gas/SPBAC-PH/SPBAC-PH_gas_S0_finalOpt
          :  Hamiltonian                  GFN2-xTB          :
 * total energy  :   -89.6368294 Eh     change       -0.9938930E-09 Eh
 * total energy  :   -89.6368300 Eh     change       -0.5641179E-06 Eh
 * total energy  :   -89.6368307 Eh     change       -0.7280912E-06 Eh
 * total energy  :   -89.6368320 Eh     change       -0.1318982E-05 Eh
 * total energy  :   -89.6368325 Eh     change       -0.5270003E-06 Eh
 * total energy  :   -89.6368328 Eh     change       -0.2846369E-06 Eh
 * total energy  :   -89.6368332 Eh     change       -0.3416899E-06 Eh
 * total energy  :   -89.6368336 Eh     change       -0.4796720E-06 Eh
 * total energy  :   -89.6368342 Eh     change       -0.5874454E-06 Eh
 * total energy  :   -89.6368349 Eh     change       -0.6527398E-06 Eh
 * total energy  :   -89.6368371 Eh     change       -0.4993676E-06 Eh
 * total energy  :   -89.6368376 Eh     change       -0.4391074E-06 Eh
 * total energy  :   -89.6368380 Eh     change       -0.3911446E-06 Eh
 * total energy  :   -89.6368384 Eh     change       -0.4469827E-06 Eh
 * total energy  :   -89.6368390 Eh     change       -0.5835595E-06 Eh
 * total energy  :   -89.6368397 Eh     change       -0.6637906E-06 Eh
 * total energy  :   -89.6368401 Eh     change       -0.4560164E-06 Eh
 * total energy  :   -89.6368404 Eh     change       -0.2453121E-06 Eh
 * total energy  :   -89.6368404 Eh     change       -0.5011159E-08 Eh
   *** GEOMETRY OPTIMIZATION CONVERGED AFTER 22 ITERATIONS ***

 final structure:
================
59
 xtb: 6.7.1 (edcfbbe)
C            5.88559915698377        1.35709551434805        0.00033627173480
C            5.21746366914540        1.14827417623937       -1.19481460619147
C            3.84485194056846        0.97476998025556       -1.20195657390389
C            3.13866759858956        1.00872986380903       -0.00654437666080
N            1.72626195240916        0.82783962539553       -0.00946191853704
C            0.90824833456137        1.94564991607019       -0.01565345132502
C            1.46733256968360        3.22664778025947       -0.03591335912826
C            0.66360407287259        4.34797944217618       -0.03873775497578
C           -0.71485835887287        4.21935163766379       -0.02443863561566
C           -1.27456656511750        2.95563083980839       -0.01274912637643
C           -0.48283768795344        1.81717970385530       -0.00981791887455
C           -1.15528077484585        0.46663379220886       -0.00462002266735
C           -2.10409915206980        0.35075955958091        1.17306105168479
C           -1.80226696415806        0.38651362003787        2.51604585769186
C           -2.83859775127143        0.26136486565546        3.43167559683543
C           -4.14808608737432        0.10436834047244        3.00402302387351
C           -4.45598991384398        0.06749272601715        1.65333241491758
C           -3.42631299948052        0.19123089767156        0.73553872909522
C           -3.43406254720033        0.18920316068135       -0.71967397490241
C           -4.47343763244552        0.06191573874459       -1.62597256979501
C           -4.18009408485965        0.09504217124862       -2.98000263120082
C           -2.87544010505281        0.25228550989945       -3.42208913219067
C           -1.82941013013121        0.38091078015230       -2.51801756034039
C           -2.11665204891118        0.34826280797572       -1.17173824629855
C           -0.17616936368923       -0.68218814357344       -0.00719777825165
C           -0.66169731159654       -1.96183000733435       -0.00527506083820
C            0.18741016080477       -3.08444720868716        0.00223618368790
C           -0.30309934915054       -4.40446954027969        0.00271144574415
C            0.55746998225177       -5.46710105257342        0.01445236772200
C            1.94484520346754       -5.25297378737156        0.02663682511628
C            2.45045655439184       -3.98337652997415        0.02658198583368
C            1.58877656348838       -2.86584083353394        0.01383318041173
C            2.07446119788488       -1.54837646234565        0.01221264570582
C            1.22309826399138       -0.46182569547996       -0.00413529641003
C            3.80822586084262        1.21668766755239        1.19228785436704
C            5.18069248224983        1.39166109098826        1.19205296036938
H            6.95671558548075        1.49293085754312        0.00299678084423
H            5.76631548208438        1.12132986081993       -2.12437235434472
H            3.31303294604151        0.81005239282319       -2.12737434974350
H            2.54082176739040        3.33931147298869       -0.05124115555870
H            1.11925142412527        5.32699905875752       -0.05325808096675
H           -1.34741545678795        5.09351774210130       -0.02524061988709
H           -2.34902507642728        2.84169952978722       -0.00623901682733
H           -0.78193723336654        0.50878606518836        2.84982059416191
H           -2.62228057038667        0.28658441227122        4.48965049789798
H           -4.93854356909512        0.00938468609010        3.73440426589303
H           -5.47760896595181       -0.05508249246140        1.32500199400967
H           -5.49133122373424       -0.06062396662618       -1.28625176776088
H           -4.97821640107317       -0.00299290926554       -3.70159605953145
H           -2.67057223795046        0.27488695602553       -4.48239928180087
H           -0.81295101815363        0.50377387808364       -2.86317124828616
H           -1.73099245007456       -2.12215396807286       -0.00801973846304
H           -1.37275904739350       -4.55988800333393       -0.00619247369486
H            0.17731027896994       -6.47826467970328        0.01477894748315
H            2.61087713300370       -6.10381180644175        0.03600905899570
H            3.51832666910853       -3.81506451767620        0.03572924654482
H            3.14394040643414       -1.39803750434787        0.02521429812485
H            3.24767682421414        1.24167738169488        2.11508361307783
H            5.70087599707990        1.55397775234006        2.12430776852457

          :  Hamiltonian                  GFN2-xTB          :
         :: gradient norm              0.000048846308 Eh/a0 ::
         :: HOMO-LUMO gap              2.540688132445 eV    ::
         :: SCC energy               -91.366891342066 Eh    ::
         :: -> dispersion             -0.087505953240 Eh    ::
         :: repulsion energy           1.730050985164 Eh    ::

    * Orbital Energies and Occupations

         #    Occupation            Energy/Eh            Energy/eV
      -------------------------------------------------------------
         1        2.0000           -0.6698389             -18.2272
       ...           ...                  ...                  ...
        72        2.0000           -0.4183762             -11.3846
        73        2.0000           -0.4167681             -11.3408
        74        2.0000           -0.4163601             -11.3297
        75        2.0000           -0.4140292             -11.2663
        76        2.0000           -0.4104699             -11.1695
        77        2.0000           -0.4052192             -11.0266
        78        2.0000           -0.4042490             -11.0002
        79        2.0000           -0.3969240             -10.8009
        80        2.0000           -0.3930565             -10.6956
        81        2.0000           -0.3925406             -10.6816
        82        2.0000           -0.3776031             -10.2751
        83        2.0000           -0.3703114             -10.0767
        84        2.0000           -0.3450006              -9.3879 (HOMO)
        85                         -0.2516320              -6.8473 (LUMO)
        86                         -0.2489782              -6.7750
        87                         -0.2381570              -6.4806
        88                         -0.2371487              -6.4531
        89                         -0.2279501              -6.2028
        90                         -0.2220367              -6.0419
        91                         -0.2194059              -5.9703
        92                         -0.2133286              -5.8050
        93                         -0.1986929              -5.4067
        94                         -0.1866287              -5.0784
        95                         -0.1794148              -4.8821
       ...                                ...                  ...
       167                          0.7326556              19.9366
      -------------------------------------------------------------
                  HL-Gap            0.0933686 Eh            2.5407 eV

     #   Z          covCN         q      C6AA      α(0)
     1   6 C        2.920    -0.030    28.749     8.793
     2   6 C        2.920    -0.027    28.685     8.783
     3   6 C        2.922    -0.037    28.908     8.817
     4   6 C        2.929     0.070    26.436     8.432
     5   7 N        2.754    -0.070    22.591     7.059
     6   6 C        2.925     0.059    26.669     8.469
     7   6 C        2.924    -0.058    29.447     8.899
     8   6 C        2.920    -0.032    28.807     8.801
     9   6 C        2.918    -0.043    29.068     8.841
    10   6 C        2.926    -0.035    28.867     8.811
    11   6 C        2.983    -0.008    28.219     8.714
    12   6 C        3.951     0.012    20.301     6.402
    13   6 C        3.059     0.003    27.893     8.661
    14   6 C        2.914    -0.032    28.794     8.799
    15   6 C        2.923    -0.032    28.787     8.799
    16   6 C        2.921    -0.032    28.810     8.802
    17   6 C        2.915    -0.034    28.850     8.808
    18   6 C        3.035     0.001    27.961     8.673
    19   6 C        3.035     0.001    27.961     8.673
    20   6 C        2.915    -0.034    28.850     8.808
    21   6 C        2.921    -0.032    28.810     8.802
    22   6 C        2.923    -0.032    28.787     8.799
    23   6 C        2.914    -0.032    28.794     8.799
    24   6 C        3.059     0.003    27.893     8.661
    25   6 C        2.979    -0.004    28.125     8.699
    26   6 C        2.924    -0.043    29.058     8.840
    27   6 C        2.986     0.004    27.938     8.670
    28   6 C        2.918    -0.035    28.865     8.810
    29   6 C        2.916    -0.034    28.853     8.808
    30   6 C        2.916    -0.031    28.773     8.796
    31   6 C        2.919    -0.039    28.962     8.825
    32   6 C        2.986     0.011    27.773     8.645
    33   6 C        2.924    -0.071    29.773     8.948
    34   6 C        2.922     0.059    26.683     8.471
    35   6 C        2.922    -0.037    28.909     8.817
    36   6 C        2.920    -0.027    28.685     8.783
    37   1 H        0.926     0.038     2.480     2.463
    38   1 H        0.926     0.039     2.467     2.456
    39   1 H        0.926     0.041     2.433     2.439
    40   1 H        0.926     0.025     2.656     2.548
    41   1 H        0.926     0.029     2.605     2.524
    42   1 H        0.926     0.028     2.617     2.530
    43   1 H        0.926     0.028     2.609     2.526
    44   1 H        0.926     0.025     2.657     2.549
    45   1 H        0.926     0.030     2.590     2.517
    46   1 H        0.926     0.030     2.592     2.518
    47   1 H        0.926     0.030     2.581     2.512
    48   1 H        0.926     0.030     2.581     2.512
    49   1 H        0.926     0.030     2.592     2.518
    50   1 H        0.926     0.030     2.590     2.517
    51   1 H        0.926     0.025     2.656     2.549
    52   1 H        0.925     0.030     2.585     2.514
    53   1 H        0.926     0.028     2.621     2.532
    54   1 H        0.926     0.026     2.644     2.543
    55   1 H        0.926     0.026     2.640     2.541
    56   1 H        0.926     0.026     2.650     2.546
    57   1 H        0.926     0.025     2.663     2.552
    58   1 H        0.926     0.041     2.435     2.440
    59   1 H        0.926     0.039     2.467     2.456

molecular dipole:
                 x           y           z       tot (Debye)
 q only:        0.601       0.273      -0.001
   full:        0.613       0.283      -0.001       1.717

 projected vibrational frequencies (cm⁻¹)
eigval :       -0.00    -0.00    -0.00    -0.00     0.00     0.00
eigval :        4.54    11.81    33.61    38.39    39.46    54.85
eigval :       58.45    80.83    81.26   119.15   133.95   138.52
eigval :      152.76   158.66   223.56   237.46   242.21   246.63
eigval :      252.38   278.52   283.75   304.32   319.40   373.20
eigval :      380.48   386.98   400.83   414.94   418.68   435.42
eigval :      440.07   444.59   466.08   479.85   491.82   501.06
eigval :      507.11   512.98   539.42   551.72   557.98   584.39
eigval :      591.78   595.14   596.73   598.51   620.63   658.58
eigval :      668.29   671.26   678.35   680.58   696.81   713.16
eigval :      730.71   753.66   760.71   761.12   767.91   774.79
eigval :      785.56   819.07   822.61   836.45   864.87   869.80
eigval :      875.44   876.17   877.64   878.74   886.17   896.18
eigval :      901.62   908.49   908.90   911.89   912.45   913.11
eigval :      920.68   921.23   925.47   926.71   927.64   929.05
eigval :      933.57   978.59   996.26  1006.12  1074.28  1078.15
eigval :     1078.76  1079.43  1085.72  1108.12  1113.57  1135.86
eigval :     1142.89  1145.78  1161.33  1177.12  1179.60  1180.24
eigval :     1180.73  1184.83  1185.18  1195.93  1205.11  1207.90
eigval :     1222.83  1232.71  1240.24  1252.03  1259.82  1270.31
eigval :     1273.13  1274.46  1284.56  1309.89  1311.94  1314.42
eigval :     1327.14  1333.00  1345.72  1367.65  1379.61  1410.48
eigval :     1429.55  1430.55  1433.15  1438.75  1449.86  1459.33
eigval :     1461.70  1472.15  1472.44  1488.80  1507.43  1560.40
eigval :     1581.92  1583.83  1586.56  1591.65  1595.07  1597.28
eigval :     1602.18  1605.41  1606.21  1609.13  3065.09  3067.90
eigval :     3071.56  3072.14  3074.41  3075.14  3076.05  3077.38
eigval :     3078.37  3079.72  3081.12  3081.99  3082.38  3084.37
eigval :     3086.20  3088.22  3089.58  3090.65  3091.89  3093.60
eigval :     3093.74  3099.15  3099.80

   temp. (K)  partition function   enthalpy   heat capacity  entropy
                                   cal/mol     cal/K/mol   cal/K/mol   J/K/mol
 298.15  VIB  0.682E+12            15309.759    101.533     94.441
         ROT  0.243E+08              888.752      2.981     36.773
         INT  0.165E+20            16198.511    104.514    131.214
         TR   0.947E+28             1481.254      4.968     44.231
         TOT                       17679.7651   109.4817   175.4448   734.0610

       T/K    H(0)-H(T)+PV         H(T)/Eh          T*S/Eh         G(T)/Eh
   ------------------------------------------------------------------------
    298.15    0.281745E-01    0.485370E+00    0.833595E-01    0.402010E+00
   ------------------------------------------------------------------------

         :::::::::::::::::::::::::::::::::::::::::::::::::::::
         ::                  THERMODYNAMIC                  ::
         :::::::::::::::::::::::::::::::::::::::::::::::::::::
         :: total free energy         -89.234829991926 Eh   ::
         ::.................................................::
         :: total energy              -89.636840356903 Eh   ::
         :: zero point energy           0.457195347533 Eh   ::
         :: G(RRHO) w/o ZPVE           -0.055184982556 Eh   ::
         :: G(RRHO) contrib.            0.402010364976 Eh   ::
         :::::::::::::::::::::::::::::::::::::::::::::::::::::

           -------------------------------------------------
          | TOTAL ENERGY              -89.636840356903 Eh   |
          | TOTAL ENTHALPY            -89.151470510351 Eh   |
          | TOTAL FREE ENERGY         -89.234829991926 Eh   |
          | GRADIENT NORM               0.000048850001 Eh/α |
          | HOMO-LUMO GAP               2.540688312903 eV   |
           -------------------------------------------------

 * finished run on 2025/09/05 at 09:19:06.170
