   * xtb version 6.7.1 (edcfbbe) compiled by 'albert@albert-system' on 2024-07-22

   ID    Z sym.   atoms
    1    6 C      1-4, 6-36
    2    7 N      5
    3    1 H      37-59

          program call               : xtb data2507/gas/SPBAC-PH/SPBAC-PH_gas_S0_finalOpt.xtbopt.xyz --gfn 2 --spinpol --tblite --uhf 2 --ohess vtight --parallel 40 --molden --ceasefiles --namespace data2507/gas/SPBAC-PH/SPBAC-PH_gas_T1_preOpt
 * total energy  :   -89.5386004 Eh     change        0.8164378E-08 Eh
 * total energy  :   -89.5448189 Eh     change       -0.6218486E-02 Eh
 * total energy  :   -89.5466029 Eh     change       -0.1784016E-02 Eh
 * total energy  :   -89.5466859 Eh     change       -0.8300053E-04 Eh
 * total energy  :   -89.5467224 Eh     change       -0.3646293E-04 Eh
 * total energy  :   -89.5467278 Eh     change       -0.5452907E-05 Eh
 * total energy  :   -89.5467310 Eh     change       -0.3177918E-05 Eh
 * total energy  :   -89.5467342 Eh     change       -0.3209281E-05 Eh
 * total energy  :   -89.5467382 Eh     change       -0.3954418E-05 Eh
 * total energy  :   -89.5467435 Eh     change       -0.5352406E-05 Eh
 * total energy  :   -89.5469001 Eh     change       -0.1429050E-05 Eh
 * total energy  :   -89.5469008 Eh     change       -0.6415728E-06 Eh
 * total energy  :   -89.5469011 Eh     change       -0.3468543E-06 Eh
 * total energy  :   -89.5469015 Eh     change       -0.3865751E-06 Eh
 * total energy  :   -89.5469017 Eh     change       -0.2201282E-06 Eh
 * total energy  :   -89.5469021 Eh     change       -0.3968693E-06 Eh
 * total energy  :   -89.5469025 Eh     change       -0.4083322E-06 Eh
 * total energy  :   -89.5469027 Eh     change       -0.1850663E-06 Eh
 * total energy  :   -89.5469027 Eh     change       -0.3543808E-07 Eh
   *** GEOMETRY OPTIMIZATION CONVERGED AFTER 34 ITERATIONS ***

 final structure:
================
59
 xtb: 6.7.1 (edcfbbe)
C            5.88211873227984        1.32672001241511       -0.04432073702083
C            5.21879238322798        0.85502714580911       -1.16522570283704
C            3.84507892224022        0.69686975065933       -1.14597364139102
C            3.12975422041118        1.01005845541604        0.00516460022774
N            1.72053480218153        0.84191539310731        0.03015570891519
C            0.90960719362816        1.96177303280473        0.02373658025906
C            1.46770235687641        3.24719581560611       -0.02069248617183
C            0.66375834328325        4.36553870884033       -0.01962130523355
C           -0.71695973824614        4.23463935400188        0.01441614963649
C           -1.27666365628344        2.96956654156965        0.02770101134888
C           -0.48786442344130        1.83038761908032        0.02661502235394
C           -1.16294569792322        0.48305619496560        0.00706182633884
C           -2.11477003896179        0.34268193623167        1.17968276112856
C           -1.81724583699435        0.35507704213500        2.52414705235514
C           -2.85514642175841        0.20450659673176        3.43399339459875
C           -4.16217707449442        0.04527585940080        2.99931857958835
C           -4.46583774606076        0.03125123954598        1.64729323239909
C           -3.43456528907500        0.18127541078415        0.73516518624198
C           -3.43823581945728        0.20703538737163       -0.71959869221329
C           -4.47393667448254        0.08827737356370       -1.63131170863408
C           -4.17713092186198        0.15097880124116       -2.98349968542843
C           -2.87262220622426        0.32813612816201       -3.41877959310348
C           -1.83029881939309        0.44739902026846       -2.50932197991573
C           -2.12077136359199        0.38550746551535       -1.16467419850841
C           -0.17182527860405       -0.65553238268392       -0.01003453247960
C           -0.66336784369819       -1.96269250336837       -0.03703331728530
C            0.19344720554278       -3.09290906649957       -0.03232824616936
C           -0.28375817837714       -4.39500933205821       -0.06992137160333
C            0.60896860759536       -5.49818406774633       -0.04761969231066
C            1.95921367992146       -5.29256234103193        0.01972622534434
C            2.47065701903433       -3.98428327206508        0.06221117241258
C            1.60444636606137       -2.87075806487311        0.03283736733924
C            2.08724037306109       -1.56586229001983        0.07132620532223
C            1.18972523844974       -0.43001448313477        0.01905855903175
C            3.79520293471314        1.48154120600154        1.13130523321409
C            5.16854435361258        1.63903251007570        1.10228312000623
H            6.95433627683914        1.44941967299310       -0.06276902589696
H            5.77242669305529        0.61038695778161       -2.05924617098071
H            3.31815675853850        0.32810340472446       -2.01350662148209
H            2.53962882464054        3.36339535347561       -0.06312287144084
H            1.11641469241756        5.34529237457958       -0.05012514905850
H           -1.34954162795632        5.10851094297665        0.01879244355818
H           -2.35097513552498        2.85636361658077        0.03557060773351
H           -0.79845824519259        0.47600124478568        2.86340824388991
H           -2.64215895837877        0.21025636613273        4.49296423818898
H           -4.95382496215975       -0.07062956349590        3.72540951649783
H           -5.48529693440909       -0.09484654609620        1.31360365600605
H           -5.49157351969942       -0.05079559541494       -1.29722591702536
H           -4.97230877448301        0.05992524851375       -3.70927848192062
H           -2.66511551599871        0.37281210880209       -4.47791044413634
H           -0.81365629605613        0.58389260090175       -2.84915184163241
H           -1.73044348543804       -2.12163829939700       -0.06420510051533
H           -1.34788029787649       -4.57276544850449       -0.11133524881087
H            0.20424401472856       -6.49892809982268       -0.08103860325501
H            2.64391005313891       -6.12767034146727        0.04116031512326
H            3.53683146515096       -3.82021495723952        0.11427390154954
H            3.14794626143861       -1.39854978198851        0.16589062287344
H            3.23074674294567        1.71708417299276        2.02154114335681
H            5.68393866422523        2.00170715382160        1.97889830095940

 projected vibrational frequencies (cm⁻¹)
eigval :       -0.00     0.00     0.00     0.00     0.00     0.00
eigval :        7.00    28.91    32.84    39.04    44.25    57.07
eigval :       61.42    80.61    82.78   119.92   132.27   137.95
eigval :      152.26   159.42   222.59   224.54   236.09   243.11
eigval :      249.67   259.21   277.76   290.85   311.80   368.30
eigval :      373.84   383.43   386.80   398.98   412.12   415.04
eigval :      431.58   445.00   454.30   476.07   480.29   490.03
eigval :      502.51   513.78   537.02   545.67   548.09   553.76
eigval :      574.22   589.90   591.06   595.56   616.18   618.74
eigval :      666.99   670.11   673.99   678.10   679.37   682.43
eigval :      695.46   715.48   728.52   748.09   753.46   759.08
eigval :      766.38   769.98   777.37   785.29   808.11   816.63
eigval :      831.26   863.58   870.33   875.02   877.34   878.96
eigval :      888.39   891.30   899.80   907.70   908.56   910.25
eigval :      911.70   914.74   917.93   926.52   927.33   928.15
eigval :      930.60   951.91   992.88  1005.51  1056.91  1069.08
eigval :     1074.30  1077.45  1079.29  1089.26  1103.17  1115.19
eigval :     1126.58  1139.93  1142.60  1158.39  1174.13  1176.73
eigval :     1177.80  1179.64  1180.03  1183.86  1185.94  1199.75
eigval :     1204.53  1208.20  1223.34  1242.04  1257.05  1259.40
eigval :     1265.23  1271.08  1274.29  1284.71  1291.23  1307.43
eigval :     1313.85  1327.47  1328.68  1334.51  1367.52  1368.69
eigval :     1411.73  1426.75  1426.88  1429.22  1430.44  1434.16
eigval :     1443.16  1461.43  1463.16  1468.14  1470.99  1471.92
eigval :     1506.58  1536.30  1547.50  1567.10  1573.53  1584.62
eigval :     1585.73  1596.51  1600.87  1604.81  3069.58  3070.73
eigval :     3071.18  3074.09  3075.09  3075.19  3081.68  3081.93
eigval :     3082.04  3082.39  3083.54  3084.00  3085.04  3089.01
eigval :     3089.79  3090.54  3091.83  3093.29  3094.86  3098.06
eigval :     3101.62  3102.58  3103.40

   temp. (K)  partition function   enthalpy   heat capacity  entropy
                                   cal/mol     cal/K/mol   cal/K/mol   J/K/mol
 298.15  VIB  0.221E+12            15590.645    103.999     94.982
         ROT  0.244E+08              888.752      2.981     36.782
         INT  0.538E+19            16479.397    106.980    131.763
         TR   0.947E+28             1481.254      4.968     44.231
         TOT                       17960.6508   111.9483   175.9943   736.3601

       T/K    H(0)-H(T)+PV         H(T)/Eh          T*S/Eh         G(T)/Eh
   ------------------------------------------------------------------------
    298.15    0.286221E-01    0.481455E+00    0.836206E-01    0.397834E+00
   ------------------------------------------------------------------------

         :::::::::::::::::::::::::::::::::::::::::::::::::::::
         ::                  THERMODYNAMIC                  ::
         :::::::::::::::::::::::::::::::::::::::::::::::::::::
         :: total free energy         -89.149068700002 Eh   ::
         ::.................................................::
         :: total energy              -89.546902749371 Eh   ::
         :: zero point energy           0.452832499838 Eh   ::
         :: G(RRHO) w/o ZPVE           -0.054998450469 Eh   ::
         :: G(RRHO) contrib.            0.397834049369 Eh   ::
         :::::::::::::::::::::::::::::::::::::::::::::::::::::

           -------------------------------------------------
          | TOTAL ENERGY              -89.546902749371 Eh   |
          | TOTAL ENTHALPY            -89.065448130603 Eh   |
          | TOTAL FREE ENERGY         -89.149068700002 Eh   |
          | GRADIENT NORM               0.000052827636 Eh/α |
           -------------------------------------------------

 * finished run on 2025/09/05 at 09:19:11.065
