   * xtb version 6.7.1 (edcfbbe) compiled by 'albert@albert-system' on 2024-07-22

   ID    Z sym.   atoms
    1    6 C      1-4, 6-36
    2    7 N      5
    3    1 H      37-59

          program call               : xtb data2507/gas/SPBAC-PH/SPBAC-PH.xyz --gfn 2 --ohess vtight --parallel 40 --molden --ceasefiles --namespace data2507/gas/SPBAC-PH/SPBAC-PH_gas_S0_preOpt
          :  Hamiltonian                  GFN2-xTB          :
 * total energy  :   -89.6179296 Eh     change       -0.5633652E-08 Eh
 * total energy  :   -89.6321319 Eh     change       -0.1420227E-01 Eh
 * total energy  :   -89.6362423 Eh     change       -0.4110395E-02 Eh
 * total energy  :   -89.6366740 Eh     change       -0.4316643E-03 Eh
 * total energy  :   -89.6368104 Eh     change       -0.1364355E-03 Eh
 * total energy  :   -89.6368327 Eh     change       -0.2232536E-04 Eh
 * total energy  :   -89.6368412 Eh     change       -0.8522270E-05 Eh
 * total energy  :   -89.6368424 Eh     change       -0.1110020E-05 Eh
 * total energy  :   -89.6368427 Eh     change       -0.3091966E-06 Eh
 * total energy  :   -89.6368428 Eh     change       -0.1128791E-06 Eh
 * total energy  :   -89.6368429 Eh     change       -0.1002016E-06 Eh
 * total energy  :   -89.6368430 Eh     change       -0.8110220E-07 Eh
   *** GEOMETRY OPTIMIZATION CONVERGED AFTER 12 ITERATIONS ***

 final structure:
================
59
 xtb: 6.7.1 (edcfbbe)
C            5.87806451812284        1.16680794507078       -0.00016321714665
C            5.18915752428581        1.10134510230552       -1.19993005183272
C            3.81165236692747        0.97172060925190       -1.20345253611935
C            3.12155097044523        0.90781817627805       -0.00003323008005
N            1.70350047323728        0.77498745962471        0.00002578759469
C            0.92476939125556        1.92028220635619       -0.00014387254257
C            1.52818535374439        3.18113615871304       -0.00030088234821
C            0.76370053590173        4.32959808480473       -0.00046939839421
C           -0.61845034168647        4.24863596170589       -0.00049435204824
C           -1.22174216031453        3.00502725553664       -0.00035221298610
C           -0.46992434238552        1.83986842096595       -0.00017801141563
C           -1.18836769821775        0.51325625043501       -0.00002714265200
C           -2.14687132600133        0.42839790407027        1.17238438277597
C           -1.85153892951483        0.45541032970890        2.51702614954038
C           -2.89630980023458        0.36279902355946        3.42692355177156
C           -4.20760829629875        0.24584227383377        2.99206448474627
C           -4.50905513159009        0.21833933552037        1.63969195923553
C           -3.47102867332537        0.31029307502789        0.72759174584354
C           -3.47100512663688        0.31007986639622       -0.72764975260159
C           -4.50900453328518        0.21782199047530       -1.63975088726837
C           -4.20752070992961        0.24491426399395       -2.99212313642698
C           -2.89621281673436        0.36177282629991       -3.42698083311272
C           -1.85147030989920        0.45468947736766       -2.51708226916319
C           -2.14683988693763        0.42808052750745       -1.17244041054570
C           -0.24933733024951       -0.66873541746320        0.00011503252685
C           -0.77817965347260       -1.93105614894495        0.00021133877543
C            0.03228713553452       -3.08195355739256        0.00031560049436
C           -0.50319324152970       -4.38436156566996        0.00037881495948
C            0.32045210906982       -5.47594271413307        0.00046699142166
C            1.71436832080006       -5.30950912115472        0.00050323639913
C            2.26324415897045       -4.05797813591645        0.00044837512869
C            1.44040736819173       -2.91148514864758        0.00034785498199
C            1.97078998923663       -1.61132763257683        0.00026656885918
C            1.15666025302972       -0.49650412619217        0.00013011289077
C            3.81168942482879        0.97252389536738        1.20332129970210
C            5.18919475290694        1.10215186240611        1.19966835025030
H            6.95298923339174        1.26823419180433       -0.00021401055352
H            5.72561156092870        1.15141587202277       -2.13573636004495
H            3.26337246150270        0.91944052240017       -2.13242685176150
H            2.60508543619526        3.25635809015171       -0.00029365066198
H            1.25299309598450        5.29235818568332       -0.00058453193062
H           -1.22034007292727        5.14419900402519       -0.00062695611448
H           -2.29951903974655        2.92828368860871       -0.00037725615453
H           -0.82982345274712        0.54660198640562        2.85644527750139
H           -2.68520953102553        0.38211983984398        4.48607662797878
H           -5.00463757325982        0.17534308271585        3.71806631875176
H           -5.53214312105217        0.12727282837308        1.30572321340536
H           -5.53209871581582        0.12682558651788       -1.30578200363714
H           -5.00452698471735        0.17416251084317       -3.71812563994435
H           -2.68508253690338        0.38076843772608       -4.48613376797678
H           -0.82974704974091        0.54579768917631       -2.85650032692719
H           -1.85229457981809       -2.05503437456948        0.00019725646053
H           -1.57759705688002       -4.50297084352146        0.00035030168899
H           -0.09419821871013       -6.47346385175838        0.00050851474181
H            2.35088433376051       -6.18270509787412        0.00057324081275
H            3.33630585586921       -3.92647847774350        0.00047439693090
H            3.04484598389964       -1.49700024023124        0.00030374639259
H            3.26343867610846        0.92087111888376        2.13234787449236
H            5.72567795745847        1.15285053602465        2.13542414533622

          :  Hamiltonian                  GFN2-xTB          :
         :: gradient norm              0.000048624642 Eh/a0 ::
         :: HOMO-LUMO gap              2.541436809816 eV    ::
         :: SCC energy               -91.366938304053 Eh    ::
         :: -> dispersion             -0.087498301798 Eh    ::
         :: repulsion energy           1.730095339420 Eh    ::

    * Orbital Energies and Occupations

         #    Occupation            Energy/Eh            Energy/eV
      -------------------------------------------------------------
         1        2.0000           -0.6698666             -18.2280
       ...           ...                  ...                  ...
        72        2.0000           -0.4184130             -11.3856
        73        2.0000           -0.4167467             -11.3403
        74        2.0000           -0.4164075             -11.3310
        75        2.0000           -0.4139974             -11.2654
        76        2.0000           -0.4105060             -11.1704
        77        2.0000           -0.4051912             -11.0258
        78        2.0000           -0.4042538             -11.0003
        79        2.0000           -0.3968884             -10.7999
        80        2.0000           -0.3930166             -10.6945
        81        2.0000           -0.3925242             -10.6811
        82        2.0000           -0.3775783             -10.2744
        83        2.0000           -0.3702720             -10.0756
        84        2.0000           -0.3449479              -9.3865 (HOMO)
        85                         -0.2515518              -6.8451 (LUMO)
        86                         -0.2489522              -6.7743
        87                         -0.2382787              -6.4839
        88                         -0.2373020              -6.4573
        89                         -0.2279051              -6.2016
        90                         -0.2220098              -6.0412
        91                         -0.2193659              -5.9692
        92                         -0.2132976              -5.8041
        93                         -0.1986804              -5.4064
        94                         -0.1866061              -5.0778
        95                         -0.1793726              -4.8810
       ...                                ...                  ...
       167                          0.7326882              19.9375
      -------------------------------------------------------------
                  HL-Gap            0.0933961 Eh            2.5414 eV

     #   Z          covCN         q      C6AA      α(0)
     1   6 C        2.920    -0.030    28.746     8.792
     2   6 C        2.920    -0.027    28.684     8.783
     3   6 C        2.922    -0.036    28.906     8.817
     4   6 C        2.930     0.070    26.433     8.432
     5   7 N        2.754    -0.070    22.595     7.060
     6   6 C        2.925     0.059    26.669     8.469
     7   6 C        2.924    -0.058    29.448     8.899
     8   6 C        2.920    -0.032    28.807     8.801
     9   6 C        2.918    -0.043    29.069     8.841
    10   6 C        2.926    -0.035    28.867     8.811
    11   6 C        2.983    -0.008    28.220     8.714
    12   6 C        3.951     0.012    20.301     6.402
    13   6 C        3.059     0.003    27.893     8.661
    14   6 C        2.914    -0.032    28.794     8.799
    15   6 C        2.923    -0.032    28.787     8.799
    16   6 C        2.921    -0.033    28.810     8.802
    17   6 C        2.915    -0.034    28.850     8.808
    18   6 C        3.035     0.001    27.961     8.673
    19   6 C        3.035     0.001    27.961     8.673
    20   6 C        2.915    -0.034    28.850     8.808
    21   6 C        2.921    -0.033    28.810     8.802
    22   6 C        2.923    -0.032    28.787     8.799
    23   6 C        2.914    -0.032    28.794     8.799
    24   6 C        3.059     0.003    27.893     8.661
    25   6 C        2.979    -0.004    28.126     8.699
    26   6 C        2.924    -0.043    29.058     8.840
    27   6 C        2.986     0.004    27.938     8.670
    28   6 C        2.918    -0.035    28.865     8.810
    29   6 C        2.916    -0.034    28.853     8.808
    30   6 C        2.916    -0.031    28.773     8.796
    31   6 C        2.919    -0.039    28.962     8.825
    32   6 C        2.986     0.011    27.773     8.645
    33   6 C        2.924    -0.071    29.773     8.948
    34   6 C        2.922     0.059    26.682     8.471
    35   6 C        2.922    -0.036    28.906     8.817
    36   6 C        2.920    -0.027    28.684     8.783
    37   1 H        0.926     0.038     2.479     2.462
    38   1 H        0.926     0.039     2.466     2.456
    39   1 H        0.926     0.041     2.433     2.439
    40   1 H        0.926     0.025     2.658     2.550
    41   1 H        0.926     0.029     2.606     2.524
    42   1 H        0.926     0.028     2.618     2.530
    43   1 H        0.926     0.028     2.609     2.526
    44   1 H        0.926     0.025     2.657     2.549
    45   1 H        0.926     0.030     2.590     2.517
    46   1 H        0.926     0.030     2.592     2.518
    47   1 H        0.926     0.030     2.581     2.512
    48   1 H        0.926     0.030     2.581     2.512
    49   1 H        0.926     0.030     2.592     2.518
    50   1 H        0.926     0.030     2.590     2.517
    51   1 H        0.926     0.025     2.657     2.549
    52   1 H        0.925     0.030     2.585     2.514
    53   1 H        0.926     0.028     2.622     2.532
    54   1 H        0.926     0.026     2.644     2.543
    55   1 H        0.926     0.026     2.641     2.541
    56   1 H        0.926     0.026     2.650     2.546
    57   1 H        0.926     0.024     2.666     2.553
    58   1 H        0.926     0.041     2.433     2.439
    59   1 H        0.926     0.039     2.466     2.456

molecular dipole:
                 x           y           z       tot (Debye)
 q only:        0.616       0.254      -0.000
   full:        0.629       0.264      -0.000       1.734

 projected vibrational frequencies (cm⁻¹)
eigval :       -0.00    -0.00     0.00     0.00     0.00     0.00
eigval :        3.37     4.78    33.50    38.41    39.33    54.90
eigval :       57.90    80.84    81.00   119.03   133.97   138.49
eigval :      152.54   158.41   223.36   237.52   242.16   246.37
eigval :      252.37   278.37   283.71   304.34   319.38   373.00
eigval :      380.59   386.96   400.90   414.97   418.59   437.18
eigval :      438.11   444.60   466.07   479.74   491.72   500.99
eigval :      507.00   513.00   539.44   551.71   557.96   584.39
eigval :      591.92   595.06   596.72   598.49   620.58   658.50
eigval :      668.28   671.23   678.41   680.52   696.75   713.15
eigval :      730.74   753.66   760.89   760.96   767.94   774.72
eigval :      785.58   819.09   822.66   836.06   864.69   869.78
eigval :      875.39   876.00   877.65   878.74   886.12   896.18
eigval :      901.46   908.50   908.90   911.86   912.48   913.11
eigval :      920.66   921.25   925.48   926.71   927.65   928.93
eigval :      933.62   978.57   996.28  1006.13  1074.28  1078.11
eigval :     1078.79  1079.42  1085.76  1107.95  1113.45  1135.87
eigval :     1142.89  1145.76  1161.31  1177.13  1179.59  1180.23
eigval :     1180.72  1184.75  1185.09  1195.85  1205.12  1207.73
eigval :     1222.77  1232.74  1240.25  1252.04  1259.83  1270.22
eigval :     1273.19  1274.09  1284.56  1309.63  1312.01  1314.64
eigval :     1327.15  1333.05  1345.93  1367.66  1379.74  1410.39
eigval :     1429.55  1430.57  1433.19  1438.74  1449.86  1459.49
eigval :     1461.70  1472.17  1472.55  1488.92  1507.48  1560.42
eigval :     1582.01  1583.88  1586.56  1591.65  1595.18  1597.28
eigval :     1602.19  1605.42  1606.23  1609.09  3065.09  3067.87
eigval :     3071.55  3072.13  3074.44  3075.12  3076.04  3077.35
eigval :     3078.30  3079.79  3081.04  3082.10  3082.37  3084.34
eigval :     3085.72  3088.09  3089.67  3090.63  3091.88  3093.42
eigval :     3093.83  3099.19  3099.71

   temp. (K)  partition function   enthalpy   heat capacity  entropy
                                   cal/mol     cal/K/mol   cal/K/mol   J/K/mol
 298.15  VIB  0.227E+13            15324.395    101.522     95.654
         ROT  0.243E+08              888.752      2.981     36.773
         INT  0.551E+20            16213.148    104.503    132.427
         TR   0.947E+28             1481.254      4.968     44.231
         TOT                       17694.4016   109.4709   176.6577   739.1356

       T/K    H(0)-H(T)+PV         H(T)/Eh          T*S/Eh         G(T)/Eh
   ------------------------------------------------------------------------
    298.15    0.281978E-01    0.485364E+00    0.839358E-01    0.401428E+00
   ------------------------------------------------------------------------

         :::::::::::::::::::::::::::::::::::::::::::::::::::::
         ::                  THERMODYNAMIC                  ::
         :::::::::::::::::::::::::::::::::::::::::::::::::::::
         :: total free energy         -89.235415123803 Eh   ::
         ::.................................................::
         :: total energy              -89.636842964639 Eh   ::
         :: zero point energy           0.457165768020 Eh   ::
         :: G(RRHO) w/o ZPVE           -0.055737927184 Eh   ::
         :: G(RRHO) contrib.            0.401427840836 Eh   ::
         :::::::::::::::::::::::::::::::::::::::::::::::::::::

           -------------------------------------------------
          | TOTAL ENERGY              -89.636842964639 Eh   |
          | TOTAL ENTHALPY            -89.151479372848 Eh   |
          | TOTAL FREE ENERGY         -89.235415123803 Eh   |
          | GRADIENT NORM               0.000048585111 Eh/α |
          | HOMO-LUMO GAP               2.541437950111 eV   |
           -------------------------------------------------

 * finished run on 2025/09/05 at 09:16:53.832
