   * xtb version 6.7.1 (edcfbbe) compiled by 'albert@albert-system' on 2024-07-22

   ID    Z sym.   atoms
    1    6 C      1-4, 6-36
    2    7 N      5
    3    1 H      37-59

          program call               : xtb data2507/gas/SPBAC-PH/SPBAC-PH_gas_T1_crest.xyz --gfn 2 --spinpol --tblite --uhf 2 --ohess vtight --parallel 40 --molden --ceasefiles --namespace data2507/gas/SPBAC-PH/SPBAC-PH_gas_T1_finalOpt
 * total energy  :   -89.5467485 Eh     change        0.2186525E-08 Eh
 * total energy  :   -89.5468384 Eh     change       -0.8994153E-04 Eh
 * total energy  :   -89.5468803 Eh     change       -0.4185721E-04 Eh
 * total energy  :   -89.5468843 Eh     change       -0.4008504E-05 Eh
 * total energy  :   -89.5468868 Eh     change       -0.2483753E-05 Eh
 * total energy  :   -89.5468878 Eh     change       -0.1009809E-05 Eh
 * total energy  :   -89.5468894 Eh     change       -0.1612552E-05 Eh
 * total energy  :   -89.5468915 Eh     change       -0.2091779E-05 Eh
 * total energy  :   -89.5468943 Eh     change       -0.2790312E-05 Eh
 * total energy  :   -89.5468966 Eh     change       -0.2377672E-05 Eh
 * total energy  :   -89.5468975 Eh     change       -0.8663816E-06 Eh
 * total energy  :   -89.5468979 Eh     change       -0.4250575E-06 Eh
 * total energy  :   -89.5468984 Eh     change       -0.4268285E-06 Eh
 * total energy  :   -89.5468988 Eh     change       -0.4207797E-06 Eh
 * total energy  :   -89.5468990 Eh     change       -0.2428569E-06 Eh
 * total energy  :   -89.5468993 Eh     change       -0.2624882E-06 Eh
 * total energy  :   -89.5468995 Eh     change       -0.1677258E-06 Eh
 * total energy  :   -89.5468996 Eh     change       -0.1506439E-06 Eh
 * total energy  :   -89.5468997 Eh     change       -0.8955118E-07 Eh
   *** GEOMETRY OPTIMIZATION CONVERGED AFTER 19 ITERATIONS ***

 final structure:
================
59
 xtb: 6.7.1 (edcfbbe)
C            5.85098646112330        1.45921929316243        0.04671805710240
C            5.12276830019166        1.77261461875497       -1.09033994245733
C            3.75313368468120        1.58473716047785       -1.11280720001513
C            3.10613503539476        1.08142113250700        0.01027970615372
N            1.70109987343101        0.88081976642065       -0.00917940705268
C            0.86453642286687        1.98131825505142        0.01825444894921
C            1.39310049942010        3.27822398856938        0.08474588825997
C            0.56366874794578        4.37760710821241        0.10528917850646
C           -0.81376198639976        4.21557669190892        0.07172354985451
C           -1.34430916962855        2.93841264979336        0.03653722482019
C           -0.52952906565156        1.81787430071554        0.01548120145246
C           -1.17322521206605        0.45522442610990        0.00693226624049
C           -2.14269046609080        0.31559323759899        1.16451927104535
C           -1.87049933118848        0.36246238934500        2.51360362571149
C           -2.92072217456937        0.20277847932468        3.40766119481251
C           -4.21499538274652        0.00089736025424        2.95301382645989
C           -4.49345536187606       -0.04676394427144        1.59631461669092
C           -3.44983150911923        0.11229191698596        0.69990618596221
C           -3.42769865243575        0.11067518988288       -0.75492452857823
C           -4.44354984056399       -0.04942699631742       -1.68251575684653
C           -4.12367154085198       -0.00502302370535       -3.03013976651851
C           -2.81578961600421        0.19386758860956       -3.44547713780410
C           -1.79325911043036        0.35439627486188       -2.52008696911752
C           -2.10701075601368        0.31184906768097       -1.17994855082338
C           -0.15604994535042       -0.66030788952764        0.01581673545186
C           -0.61729787398914       -1.97866977510739        0.02958196710313
C            0.26530642614778       -3.08873874831447        0.01189151260907
C           -0.18167858276339       -4.40181707525207        0.03704400953023
C            0.73616286605731       -5.48380324443459        0.00086421106031
C            2.08111190842048       -5.24639633633919       -0.06799323508584
C            2.56216199255256       -3.92629238096815       -0.09782284996206
C            1.67061370816873       -2.83343896535369       -0.05411076628292
C            2.12316281668808       -1.51741988673982       -0.07945343138803
C            1.19991322708704       -0.40314435104683       -0.01271164991692
C            3.83606895850475        0.76774593297969        1.15210110328264
C            5.20599671636059        0.95643019993369        1.16479888969008
H            6.92034188083029        1.60532443641834        0.05991707928643
H            5.62392882162777        2.15976598529553       -1.96473201742622
H            3.17745950702330        1.82089701151676       -1.99566524757190
H            2.46220324734695        3.41814335705095        0.12721364595984
H            0.99372332679117        5.36684007636502        0.15239324746484
H           -1.46625258671194        5.07460824063003        0.08408279738392
H           -2.41574800276779        2.80065806660031        0.02810706534033
H           -0.86181158116144        0.51818877843069        2.86850136104560
H           -2.72747977245396        0.23514923695461        4.46993109214838
H           -5.01658106869627       -0.12156999758621        3.66702929732318
H           -5.50313534848718       -0.20527040007140        1.24707612293727
H           -5.46360808782865       -0.20629206456854       -1.36405542412621
H           -4.90316638365995       -0.12815544518680       -3.76809194164174
H           -2.58999940885738        0.22295435071839       -4.50140734836290
H           -0.77364373935852        0.50602270942709       -2.84422159110959
H           -1.68039336840927       -2.16247720530078        0.05577941845487
H           -1.24132045373856       -4.60443689571454        0.07922136771865
H            0.35473527503670       -6.49392602570514        0.02479381540028
H            2.78478282358473       -6.06522534278961       -0.10023436466238
H            3.62411364000775       -3.73712349158223       -0.15116111735688
H            3.17952290197766       -1.32492958236078       -0.17456280868327
H            3.32341997618272        0.37459517870452        2.01747462467720
H            5.77105303181881        0.71104574799002        2.05143833679989

 projected vibrational frequencies (cm⁻¹)
eigval :       -0.00    -0.00    -0.00     0.00     0.00     0.00
eigval :        7.01    28.99    32.90    39.07    44.19    57.07
eigval :       61.52    80.65    82.91   119.92   132.23   137.99
eigval :      152.22   159.45   222.64   224.54   236.13   243.07
eigval :      249.61   259.20   277.95   290.84   312.00   368.37
eigval :      373.82   383.46   386.82   399.03   412.13   415.10
eigval :      431.44   445.04   454.32   476.12   480.44   489.97
eigval :      502.51   513.77   537.03   545.65   548.16   553.79
eigval :      574.28   589.90   591.04   595.57   616.23   618.69
eigval :      666.90   670.10   673.84   678.09   679.41   682.42
eigval :      695.46   715.52   728.51   748.09   753.45   759.08
eigval :      766.40   770.01   777.41   785.31   808.18   816.67
eigval :      831.30   863.65   870.35   875.02   877.36   878.99
eigval :      888.42   891.31   899.78   907.71   908.58   910.27
eigval :      911.72   914.72   917.97   926.54   927.36   928.14
eigval :      930.59   951.72   992.86  1005.52  1056.83  1069.08
eigval :     1074.31  1077.47  1079.32  1089.25  1103.14  1115.22
eigval :     1126.59  1139.93  1142.62  1158.43  1174.22  1176.77
eigval :     1177.82  1179.68  1180.07  1183.87  1186.02  1199.68
eigval :     1204.56  1208.21  1223.43  1242.07  1257.01  1259.42
eigval :     1265.26  1271.16  1274.33  1284.71  1291.31  1307.44
eigval :     1313.88  1327.48  1328.69  1334.51  1367.52  1368.70
eigval :     1411.75  1426.77  1426.89  1429.24  1430.44  1434.17
eigval :     1443.15  1461.41  1463.18  1468.13  1470.93  1471.92
eigval :     1506.53  1536.23  1547.51  1567.07  1573.52  1584.61
eigval :     1585.74  1596.52  1600.88  1604.82  3069.56  3070.76
eigval :     3071.21  3074.11  3075.04  3075.15  3081.70  3081.98
eigval :     3082.07  3082.41  3083.56  3084.01  3085.05  3089.03
eigval :     3089.82  3090.58  3091.84  3093.29  3094.88  3098.01
eigval :     3101.65  3102.76  3103.53

   temp. (K)  partition function   enthalpy   heat capacity  entropy
                                   cal/mol     cal/K/mol   cal/K/mol   J/K/mol
 298.15  VIB  0.219E+12            15589.630    104.000     94.972
         ROT  0.244E+08              888.752      2.981     36.781
         INT  0.534E+19            16478.382    106.981    131.753
         TR   0.947E+28             1481.254      4.968     44.231
         TOT                       17959.6364   111.9494   175.9843   736.3181

       T/K    H(0)-H(T)+PV         H(T)/Eh          T*S/Eh         G(T)/Eh
   ------------------------------------------------------------------------
    298.15    0.286205E-01    0.481458E+00    0.836158E-01    0.397843E+00
   ------------------------------------------------------------------------

         :::::::::::::::::::::::::::::::::::::::::::::::::::::
         ::                  THERMODYNAMIC                  ::
         :::::::::::::::::::::::::::::::::::::::::::::::::::::
         :: total free energy         -89.149057097800 Eh   ::
         ::.................................................::
         :: total energy              -89.546899719428 Eh   ::
         :: zero point energy           0.452837918674 Eh   ::
         :: G(RRHO) w/o ZPVE           -0.054995297046 Eh   ::
         :: G(RRHO) contrib.            0.397842621628 Eh   ::
         :::::::::::::::::::::::::::::::::::::::::::::::::::::

           -------------------------------------------------
          | TOTAL ENERGY              -89.546899719428 Eh   |
          | TOTAL ENTHALPY            -89.065441298435 Eh   |
          | TOTAL FREE ENERGY         -89.149057097800 Eh   |
          | GRADIENT NORM               0.000044232985 Eh/α |
           -------------------------------------------------

 * finished run on 2025/09/05 at 09:21:56.721
