   * xtb version 6.7.1 (edcfbbe) compiled by 'albert@albert-system' on 2024-07-22

   ID    Z sym.   atoms
    1    6 C      1-4, 6-28, 30-48
    2    7 N      5, 29
    3    1 H      49-84

          program call               : xtb data2507/toluene/DTXO-TPA2/DTXO-TPA2.xyz --gfn 2 --gbsa toluene --ohess vtight --parallel 40 --molden --ceasefiles --namespace data2507/toluene/DTXO-TPA2/DTXO-TPA2_toluene_S0_preOpt
      * Solvation model:               GBSA
        Solvent                        toluene
        Solvent mass                       9.2140E+01 g/mol
          :  Hamiltonian                  GFN2-xTB          :
 * total energy  :  -122.7572374 Eh     change       -0.1858567E-08 Eh
 * total energy  :  -122.7735067 Eh     change       -0.1626931E-01 Eh
 * total energy  :  -122.7794944 Eh     change       -0.5987627E-02 Eh
 * total energy  :  -122.7816766 Eh     change       -0.2182198E-02 Eh
 * total energy  :  -122.7832535 Eh     change       -0.1576976E-02 Eh
 * total energy  :  -122.7839361 Eh     change       -0.6825343E-03 Eh
 * total energy  :  -122.7842228 Eh     change       -0.2867036E-03 Eh
 * total energy  :  -122.7844168 Eh     change       -0.1940378E-03 Eh
 * total energy  :  -122.7845675 Eh     change       -0.1507015E-03 Eh
 * total energy  :  -122.7846887 Eh     change       -0.1212070E-03 Eh
 * total energy  :  -122.7854429 Eh     change       -0.1826002E-06 Eh
 * total energy  :  -122.7854431 Eh     change       -0.1650054E-06 Eh
 * total energy  :  -122.7854433 Eh     change       -0.1728182E-06 Eh
 * total energy  :  -122.7854435 Eh     change       -0.2029727E-06 Eh
 * total energy  :  -122.7854437 Eh     change       -0.2546091E-06 Eh
 * total energy  :  -122.7854441 Eh     change       -0.3323325E-06 Eh
 * total energy  :  -122.7854445 Eh     change       -0.4391701E-06 Eh
 * total energy  :  -122.7854451 Eh     change       -0.5767112E-06 Eh
 * total energy  :  -122.7854451 Eh     change       -0.2037694E-08 Eh
   *** GEOMETRY OPTIMIZATION CONVERGED AFTER 68 ITERATIONS ***

 final structure:
================
84
 xtb: 6.7.1 (edcfbbe)
C           -0.85934598009820        1.85124137832442        1.25225350102569
C           -1.51455907359937        0.80967660712669        0.39534226470822
C           -2.89287336581339        0.68203912500072        0.37500281340891
C           -3.52273176773251       -0.27556742828956       -0.41834332682948
N           -4.92118365622717       -0.36604275701827       -0.41197290403248
C           -5.56127476015525       -1.59446108609189       -0.57900790707216
C           -5.01872347925053       -2.75860642647242       -0.03039265656711
C           -5.66461484939788       -3.96918135774874       -0.18572902460479
C           -6.86284920377771       -4.04399193012070       -0.87833810908537
C           -7.40852844731513       -2.89184214496183       -1.42061005013832
C           -6.76530850941987       -1.67746853369278       -1.28045676866727
C           -5.66765214028214        0.82607147393290       -0.42259173761537
C           -5.30782912542297        1.84450368157334       -1.27778472345071
C           -6.04182362987800        3.03354128550823       -1.33274437524509
C           -7.14582283962021        3.20127938496277       -0.54374945970643
C           -7.53434404002935        2.19550664089633        0.36600144676693
C           -8.65211000428549        2.36344920500801        1.21137086540362
C           -8.99477563939395        1.40661940444402        2.12454593922621
C           -8.22092414996468        0.24301900845543        2.24374488810596
C           -7.14185415470119        0.04113713733013        1.42806766070182
C           -6.77956557358051        0.99414928732501        0.45313940846207
C           -2.74274965617147       -1.11727384444669       -1.20768930766723
C           -1.36690461341240       -1.00324442490340       -1.18003945510134
C           -0.73904378184322       -0.05061855465359       -0.38770541307907
C            0.73902984750505        0.05054060466783       -0.38776866443039
C            1.36683691693943        1.00296679596895       -1.18038636990111
C            2.74268020593694        1.11698396586345       -1.20816453405746
C            3.52271636391342        0.27547426808901       -0.41866166322496
N            4.92116887846907        0.36595376606471       -0.41240485516510
C            5.56125334579704        1.59432786623187       -0.57977806114691
C            5.01872453523226        2.75861738070381       -0.03144628493462
C            5.66461218511004        3.96915024337496       -0.18712385287225
C            6.86282393000435        4.04377822786421       -0.87979170914346
C            7.40848314514401        2.89148566657570       -1.42178024501772
C            6.76526432999021        1.67715103921115       -1.28128880901329
C            5.66763581852553       -0.82616469569662       -0.42278467384014
C            5.30778218284651       -1.84478123733473       -1.27774317586219
C            6.04175883490881       -3.03384215751651       -1.33244871480903
C            7.14577590940036       -3.20141408585603       -0.54344340651380
C            7.53433947421552       -2.19543574290716        0.36606216734442
C            8.65214426823886       -2.36318354709980        1.21141806511612
C            8.99484711697201       -1.40614680254612        2.12436294139271
C            8.22098718801354       -0.24253013716539        2.24334654560087
C            7.14189066416215       -0.04082710018910        1.42765987981314
C            6.77956944096688       -0.99405532745001        0.45295565348487
C            2.89291239470352       -0.68193340416775        0.37496751237470
C            1.51459831882947       -0.80956007797447        0.39543923160597
C            0.85944427276607       -1.85090733529794        1.25266063122613
H           -0.42079083026936        2.62973925217203        0.62827692606136
H           -1.58194322279990        2.31159086263685        1.92159117755860
H           -0.05484734160842        1.41429828571083        1.84176529673749
H           -3.50010858102749        1.33624157335207        0.98509503762968
H           -4.09366189847261       -2.70256354434585        0.52507058883219
H           -5.23356203913197       -4.86067709265310        0.24689378101203
H           -7.36666461320658       -4.99199135084293       -0.99350920052297
H           -8.33997545355479       -2.93916109007666       -1.96632593071908
H           -7.19179742081636       -0.78386487894855       -1.71268864723709
H           -4.45050853343701        1.71369265424548       -1.92270027619057
H           -5.73633320631269        3.80821980414214       -2.02099971182702
H           -7.72976030276177        4.10862448887718       -0.59645246385400
H           -9.23027392344786        3.27267372162135        1.12456751290594
H           -9.85252419332800        1.54471434166853        2.76689777272614
H           -8.48073971259907       -0.49542211290054        2.98836853561411
H           -6.55018581932264       -0.85480862569837        1.53717217351878
H           -3.21636949879683       -1.85219016548382       -1.84191566890247
H           -0.76441800112711       -1.65596813049707       -1.79622201526679
H            0.76430856613727        1.65552099292400       -1.79670780162719
H            3.21625747401210        1.85173229393236       -1.84261742991536
H            4.09368647459532        2.70272098871995        0.52407062745581
H            5.23357265821386        4.86076088591724        0.24527496296556
H            7.36662796145703        4.99174966107829       -0.99524111082372
H            8.33990406001420        2.93866192255657       -1.96755308921997
H            7.19173471042746        0.78343444927062       -1.71330483732508
H            4.45044161429099       -1.71410670630650       -1.92265953002252
H            5.73625557741234       -3.80866452820696       -2.02053622414414
H            7.72971590618131       -4.10876762367018       -0.59597416371510
H            9.23026766717696       -3.27245558031928        1.12484143631818
H            9.85258442773451       -1.54412486295538        2.76675492881636
H            8.48084439902396        0.49608824768927        2.98777996139232
H            6.55025861423574        0.85516920670998        1.53654644536732
H            3.50018883045595       -1.33597843668184        0.98518744689699
H            1.58205075578626       -2.31096260829407        1.92219094635480
H            0.05486443723407       -1.41385601400774        1.84198061197549
H            0.42101133042743       -2.62965858624289        0.62891375415326

          :  Hamiltonian                  GFN2-xTB          :
         :: gradient norm              0.000033572269 Eh/a0 ::
         :: HOMO-LUMO gap              2.302196994386 eV    ::
         :: SCC energy              -125.108874170786 Eh    ::
         :: -> dispersion             -0.117578673047 Eh    ::
         :: -> Gsolv                  -0.048496771183 Eh    ::
         :: repulsion energy           2.323429095011 Eh    ::

    * Orbital Energies and Occupations

         #    Occupation            Energy/Eh            Energy/eV
      -------------------------------------------------------------
         1        2.0000           -0.6623078             -18.0223
       ...           ...                  ...                  ...
       103        2.0000           -0.4127726             -11.2321
       104        2.0000           -0.4035674             -10.9816
       105        2.0000           -0.4035251             -10.9805
       106        2.0000           -0.4016020             -10.9281
       107        2.0000           -0.4012925             -10.9197
       108        2.0000           -0.3981188             -10.8334
       109        2.0000           -0.3979168             -10.8279
       110        2.0000           -0.3932755             -10.7016
       111        2.0000           -0.3920716             -10.6688
       112        2.0000           -0.3818199             -10.3898
       113        2.0000           -0.3817306             -10.3874
       114        2.0000           -0.3471426              -9.4462
       115        2.0000           -0.3447649              -9.3815 (HOMO)
       116                         -0.2601608              -7.0793 (LUMO)
       117                         -0.2598676              -7.0714
       118                         -0.2295681              -6.2469
       119                         -0.2294167              -6.2427
       120                         -0.2286554              -6.2220
       121                         -0.2241486              -6.0994
       122                         -0.2212542              -6.0206
       123                         -0.2212110              -6.0195
       124                         -0.2171289              -5.9084
       125                         -0.2166605              -5.8956
       126                         -0.2076331              -5.6500
       ...                                ...                  ...
       228                          0.6933401              18.8667
      -------------------------------------------------------------
                  HL-Gap            0.0846042 Eh            2.3022 eV

     #   Z          covCN         q      C6AA      α(0)
     1   6 C        3.758    -0.106    22.580     6.775
     2   6 C        2.969     0.013    27.720     8.636
     3   6 C        2.928    -0.059    29.473     8.903
     4   6 C        2.923     0.061    26.626     8.462
     5   7 N        2.752    -0.083    22.851     7.100
     6   6 C        2.921     0.069    26.464     8.436
     7   6 C        2.922    -0.051    29.262     8.871
     8   6 C        2.919    -0.031    28.782     8.798
     9   6 C        2.918    -0.042    29.038     8.837
    10   6 C        2.919    -0.031    28.764     8.795
    11   6 C        2.922    -0.050    29.250     8.869
    12   6 C        2.921     0.060    26.655     8.467
    13   6 C        2.920    -0.049    29.227     8.865
    14   6 C        2.914    -0.032    28.802     8.800
    15   6 C        2.918    -0.045    29.113     8.848
    16   6 C        2.986     0.011    27.769     8.644
    17   6 C        2.920    -0.037    28.909     8.817
    18   6 C        2.915    -0.031    28.763     8.795
    19   6 C        2.916    -0.032    28.800     8.800
    20   6 C        2.917    -0.034    28.840     8.806
    21   6 C        2.985    -0.001    28.042     8.686
    22   6 C        2.920    -0.055    29.357     8.885
    23   6 C        2.923    -0.036    28.892     8.815
    24   6 C        2.981    -0.004    28.120     8.698
    25   6 C        2.981    -0.004    28.120     8.698
    26   6 C        2.923    -0.036    28.892     8.815
    27   6 C        2.920    -0.055    29.357     8.885
    28   6 C        2.923     0.061    26.626     8.462
    29   7 N        2.752    -0.083    22.851     7.100
    30   6 C        2.921     0.069    26.464     8.436
    31   6 C        2.922    -0.051    29.262     8.871
    32   6 C        2.919    -0.031    28.782     8.798
    33   6 C        2.918    -0.042    29.038     8.837
    34   6 C        2.919    -0.031    28.764     8.795
    35   6 C        2.922    -0.050    29.251     8.869
    36   6 C        2.921     0.060    26.655     8.467
    37   6 C        2.920    -0.049    29.227     8.865
    38   6 C        2.914    -0.032    28.802     8.800
    39   6 C        2.918    -0.045    29.113     8.848
    40   6 C        2.986     0.011    27.769     8.644
    41   6 C        2.920    -0.037    28.909     8.817
    42   6 C        2.915    -0.031    28.763     8.795
    43   6 C        2.916    -0.032    28.800     8.800
    44   6 C        2.917    -0.034    28.840     8.806
    45   6 C        2.985    -0.001    28.042     8.686
    46   6 C        2.928    -0.059    29.473     8.903
    47   6 C        2.969     0.013    27.720     8.636
    48   6 C        3.758    -0.106    22.580     6.775
    49   1 H        0.925     0.048     2.344     2.394
    50   1 H        0.925     0.042     2.419     2.432
    51   1 H        0.925     0.046     2.370     2.407
    52   1 H        0.926     0.029     2.598     2.520
    53   1 H        0.926     0.031     2.574     2.509
    54   1 H        0.926     0.031     2.573     2.508
    55   1 H        0.926     0.029     2.605     2.524
    56   1 H        0.926     0.029     2.594     2.519
    57   1 H        0.926     0.025     2.653     2.547
    58   1 H        0.926     0.030     2.583     2.513
    59   1 H        0.926     0.033     2.540     2.493
    60   1 H        0.926     0.034     2.536     2.490
    61   1 H        0.926     0.034     2.532     2.488
    62   1 H        0.926     0.032     2.555     2.499
    63   1 H        0.926     0.031     2.576     2.510
    64   1 H        0.926     0.032     2.557     2.501
    65   1 H        0.926     0.029     2.606     2.524
    66   1 H        0.926     0.029     2.606     2.525
    67   1 H        0.926     0.029     2.606     2.525
    68   1 H        0.926     0.029     2.606     2.524
    69   1 H        0.926     0.031     2.574     2.509
    70   1 H        0.926     0.031     2.573     2.508
    71   1 H        0.926     0.029     2.605     2.524
    72   1 H        0.926     0.029     2.594     2.519
    73   1 H        0.926     0.025     2.653     2.547
    74   1 H        0.926     0.030     2.583     2.513
    75   1 H        0.926     0.033     2.540     2.493
    76   1 H        0.926     0.034     2.536     2.490
    77   1 H        0.926     0.034     2.532     2.488
    78   1 H        0.926     0.032     2.555     2.499
    79   1 H        0.926     0.031     2.576     2.510
    80   1 H        0.926     0.032     2.557     2.501
    81   1 H        0.926     0.029     2.598     2.520
    82   1 H        0.925     0.042     2.419     2.432
    83   1 H        0.925     0.046     2.370     2.407
    84   1 H        0.925     0.048     2.344     2.394

molecular dipole:
                 x           y           z       tot (Debye)
 q only:        0.000      -0.000       0.369
   full:        0.000      -0.000       0.274       0.697

 projected vibrational frequencies (cm⁻¹)
eigval :       -0.00    -0.00    -0.00     0.00     0.00     0.00
eigval :       10.68    12.13    16.42    23.79    27.41    38.43
eigval :       40.95    48.89    51.47    53.98    56.53    66.50
eigval :       72.38    84.73    85.36    90.39    98.95   101.66
eigval :      128.52   143.05   157.27   164.85   166.46   176.43
eigval :      195.65   199.47   209.93   217.58   225.25   226.02
eigval :      256.52   262.35   262.55   290.07   296.71   303.64
eigval :      350.21   362.22   368.81   380.45   382.25   387.56
eigval :      395.72   406.25   410.71   417.64   435.50   436.22
eigval :      441.09   444.99   467.70   470.84   480.16   482.76
eigval :      490.50   493.67   513.51   524.95   526.41   533.97
eigval :      536.37   542.93   561.99   575.08   580.01   587.05
eigval :      590.28   597.96   608.44   615.86   631.26   652.78
eigval :      660.05   661.28   676.23   688.39   693.49   720.26
eigval :      720.26   724.73   753.94   754.46   757.25   757.32
eigval :      776.27   776.28   792.35   792.51   812.40   812.41
eigval :      828.63   830.78   846.66   847.29   872.20   872.24
eigval :      873.57   873.57   878.98   879.29   886.51   886.68
eigval :      887.82   887.83   889.02   889.04   914.41   914.44
eigval :      919.31   919.82   922.34   922.35   925.00   925.01
eigval :      925.65   925.65   929.68   929.73   966.46   967.93
eigval :      994.74  1001.33  1001.87  1028.73  1028.80  1030.90
eigval :     1034.07  1070.64  1070.64  1083.13  1083.14  1086.51
eigval :     1086.52  1121.04  1121.05  1123.15  1123.23  1126.59
eigval :     1158.10  1165.66  1165.82  1178.10  1178.45  1180.00
eigval :     1180.04  1180.18  1180.75  1195.40  1197.01  1197.02
eigval :     1198.33  1216.71  1219.54  1225.46  1234.40  1249.86
eigval :     1250.61  1251.45  1252.41  1269.59  1279.42  1285.13
eigval :     1305.08  1307.28  1312.63  1313.21  1314.63  1324.58
eigval :     1324.65  1335.48  1336.37  1345.28  1370.93  1371.78
eigval :     1390.70  1390.99  1402.00  1406.47  1416.57  1417.28
eigval :     1421.81  1425.96  1438.83  1439.46  1447.46  1447.76
eigval :     1469.21  1472.20  1472.88  1473.00  1473.59  1484.60
eigval :     1485.40  1505.11  1506.22  1507.40  1558.65  1558.83
eigval :     1559.01  1561.23  1575.92  1575.99  1590.10  1590.10
eigval :     1593.66  1593.97  1599.95  1600.36  1608.27  1608.27
eigval :     3001.63  3002.11  3022.01  3022.54  3039.70  3039.71
eigval :     3065.95  3065.96  3067.58  3067.89  3069.35  3069.36
eigval :     3069.95  3069.95  3070.92  3070.99  3071.43  3071.67
eigval :     3072.08  3072.11  3077.53  3077.55  3080.57  3080.61
eigval :     3082.34  3082.37  3083.06  3083.07  3085.07  3085.72
eigval :     3088.27  3088.30  3092.43  3092.46  3099.66  3099.68

   temp. (K)  partition function   enthalpy   heat capacity  entropy
                                   cal/mol     cal/K/mol   cal/K/mol   J/K/mol
 298.15  VIB  0.611E+19            23745.852    148.396    149.097
         ROT  0.505E+08              888.752      2.981     38.228
         INT  0.308E+27            24634.605    151.377    187.325
         TR   0.148E+29             1481.254      4.968     45.121
         TOT                       26115.8585   156.3454   232.4459   972.5536

       T/K    H(0)-H(T)+PV         H(T)/Eh          T*S/Eh         G(T)/Eh
   ------------------------------------------------------------------------
    298.15    0.416183E-01    0.706007E+00    0.110443E+00    0.595565E+00
   ------------------------------------------------------------------------

         :::::::::::::::::::::::::::::::::::::::::::::::::::::
         ::                  THERMODYNAMIC                  ::
         :::::::::::::::::::::::::::::::::::::::::::::::::::::
         :: total free energy        -122.189880386468 Eh   ::
         ::.................................................::
         :: total energy             -122.785445072290 Eh   ::
         :: zero point energy           0.664388961297 Eh   ::
         :: G(RRHO) w/o ZPVE           -0.068824275475 Eh   ::
         :: G(RRHO) contrib.            0.595564685822 Eh   ::
         :::::::::::::::::::::::::::::::::::::::::::::::::::::

           -------------------------------------------------
          | TOTAL ENERGY             -122.785445072290 Eh   |
          | TOTAL ENTHALPY           -122.079437841412 Eh   |
          | TOTAL FREE ENERGY        -122.189880386468 Eh   |
          | GRADIENT NORM               0.000033572312 Eh/α |
          | HOMO-LUMO GAP               2.302196655137 eV   |
           -------------------------------------------------

 * finished run on 2025/08/26 at 01:24:50.796
