   * xtb version 6.7.1 (edcfbbe) compiled by 'albert@albert-system' on 2024-07-22

   ID    Z sym.   atoms
    1    6 C      1-4, 6-28, 30-48
    2    7 N      5, 29
    3    1 H      49-84

          program call               : xtb data2507/toluene/DTXO-TPA2/DTXO-TPA2_toluene_T1_crest.xyz --gfn 2 --uhf 2 --gbsa toluene --ohess vtight --parallel 40 --molden --ceasefiles --namespace data2507/toluene/DTXO-TPA2/DTXO-TPA2_toluene_T1_finalOpt
      * Solvation model:               GBSA
        Solvent                        toluene
        Solvent mass                       9.2140E+01 g/mol
          :  Hamiltonian                  GFN2-xTB          :
 * total energy  :  -122.6981131 Eh     change       -0.3555030E-08 Eh
 * total energy  :  -122.6981991 Eh     change       -0.8595956E-04 Eh
 * total energy  :  -122.6982708 Eh     change       -0.7176083E-04 Eh
 * total energy  :  -122.6983143 Eh     change       -0.4345886E-04 Eh
 * total energy  :  -122.6983517 Eh     change       -0.3739552E-04 Eh
 * total energy  :  -122.6984278 Eh     change       -0.7617994E-04 Eh
 * total energy  :  -122.6984790 Eh     change       -0.5111554E-04 Eh
 * total energy  :  -122.6985370 Eh     change       -0.5800802E-04 Eh
 * total energy  :  -122.6986041 Eh     change       -0.6709080E-04 Eh
 * total energy  :  -122.6986682 Eh     change       -0.6417944E-04 Eh
 * total energy  :  -122.6989583 Eh     change       -0.7796850E-06 Eh
 * total energy  :  -122.6989588 Eh     change       -0.4439109E-06 Eh
 * total energy  :  -122.6989591 Eh     change       -0.3389130E-06 Eh
 * total energy  :  -122.6989595 Eh     change       -0.4018305E-06 Eh
 * total energy  :  -122.6989600 Eh     change       -0.4927224E-06 Eh
 * total energy  :  -122.6989606 Eh     change       -0.5570739E-06 Eh
 * total energy  :  -122.6989610 Eh     change       -0.4509828E-06 Eh
 * total energy  :  -122.6989613 Eh     change       -0.2989682E-06 Eh
 * total energy  :  -122.6989613 Eh     change       -0.2289227E-08 Eh
   *** GEOMETRY OPTIMIZATION CONVERGED AFTER 44 ITERATIONS ***

 final structure:
================
84
 xtb: 6.7.1 (edcfbbe)
C           -0.76259571256786        1.52742392316542       -1.42388571567171
C           -1.44780602849416        0.39907673489463       -0.71337937538778
C           -2.82620048314219        0.32672761178032       -0.76373828193683
C           -3.53479929338500       -0.72655706217938       -0.17609328293922
N           -4.92017955999188       -0.72609356483143       -0.19448324057463
C           -5.64701791165185       -1.91601788061009       -0.24507757930350
C           -6.88549422816417       -1.99824645873098        0.39745522019821
C           -7.62062374624598       -3.16518918648302        0.34200245286638
C           -7.13879884411521       -4.26650236020901       -0.35010454696691
C           -5.91372402571463       -4.18841105210151       -0.99532812643416
C           -5.17127165268269       -3.02511956929944       -0.94982736509984
C           -5.62098760866867        0.48792842534341       -0.26455517124680
C           -6.61494210491740        0.62667313737204       -1.24187601515147
C           -7.29272860683319        1.81985040318419       -1.39492937166321
C           -7.00098013658777        2.89905897721445       -0.57538705197415
C           -6.03366508098152        2.79153787032359        0.44349936876905
C           -5.75510599470739        3.87053044329280        1.30446518070325
C           -4.84230167366825        3.74489813950771        2.33310023891700
C           -4.19732791659398        2.53355935033555        2.54124291834626
C           -4.43807002004430        1.45762075454671        1.70403832131261
C           -5.33363679254056        1.56307809136894        0.62771932582336
C           -2.81146105116256       -1.75504207102381        0.44339152853781
C           -1.43926666953666       -1.69702164266379        0.48191737263435
C           -0.73126322941605       -0.61575476637737       -0.05652733679825
C            0.73106721788012       -0.61558516280960        0.05871758185526
C            1.43920638951743       -1.69807596620139       -0.47709443916846
C            2.81138819611561       -1.75604807131638       -0.43802712385134
C            3.53457344748963       -0.72608953909500        0.17920055092974
N            4.91993694555683       -0.72540872462187        0.19771166007834
C            5.64700635425177       -1.91509148171876        0.25035151772787
C            6.88497182888505       -1.99852238613133       -0.39300518016562
C            7.62014620936768       -3.16535603081940       -0.33593548793358
C            7.13887690799886       -4.26534875414365        0.35865458638928
C            5.91439620539309       -4.18598228677801        1.00485406793905
C            5.17187964679287       -3.02279138598275        0.95770750390773
C            5.62064611829604        0.48888255070427        0.26421782170485
C            6.61486812819932        0.63042575245115        1.24083050584895
C            7.29291833479308        1.82396473149934        1.39002917281476
C            7.00116627554965        2.90067751730746        0.56722425530190
C            6.03357439819431        2.79019581973289       -0.45108589601765
C            5.75512931238332        3.86648977631364       -1.31546639048505
C            4.84213610485478        3.73778715416086       -2.34354480802053
C            4.19681799728660        2.52594540865260       -2.54769953641807
C            4.43740982664602        1.45266203082245       -1.70707513669750
C            5.33321937811565        1.56132734925775       -0.63127179003451
C            2.82583262572757        0.32857285277739        0.76419877413138
C            1.44744561991637        0.40076159175173        0.71339621478320
C            0.76206126580335        1.53067920443519        1.42123374633771
H           -0.92714245937651        2.46398546908933       -0.89233533853252
H            0.30634063806386        1.35415397529857       -1.50577044507049
H           -1.17855624326617        1.64139896017881       -2.42378760216421
H           -3.37786713274101        1.09535466978726       -1.28581600929121
H           -7.25282178690983       -1.14229215771610        0.94448867038181
H           -8.57335216001561       -3.21889290350826        0.84783041452192
H           -7.71616691823229       -5.17769628625032       -0.38993995566667
H           -5.53858787505320       -5.03774196274239       -1.54728695270538
H           -4.22923319480880       -2.95813315769570       -1.47375884026768
H           -6.81840511346526       -0.20602514544658       -1.89997785663304
H           -8.04158961763404        1.91547151461557       -2.16783016545429
H           -7.52253963406946        3.83647053033415       -0.70220601257637
H           -6.28053616164823        4.80290626591187        1.15233714479655
H           -4.63934899243048        4.58503231655603        2.98228682430079
H           -3.49916298602761        2.42592639382736        3.35933184033246
H           -3.93341698440335        0.52245905000795        1.89417239382080
H           -3.33684834667689       -2.57074355313354        0.91728672854485
H           -0.88808172907868       -2.48214826632440        0.97890348880079
H            0.88816633890351       -2.48429945960980       -0.97250798623539
H            3.33691667763497       -2.57282364741601       -0.90991643022767
H            7.25180114001913       -1.14362190556953       -0.94201988707849
H            8.57240235274808       -3.22005505659679       -0.84254521729770
H            7.71624154974791       -5.17649244681305        0.39967598658494
H            5.53978663051561       -5.03422525889876        1.55884066673108
H            4.23026870959353       -2.95476211330132        1.48227953850504
H            6.81843546598409       -0.20034846653997        1.90133622064244
H            8.04204933822317        1.92181992179961        2.16239201477616
H            7.52296717126985        3.83836908639995        0.69097538377467
H            6.28085724796818        4.79920170300845       -1.16646439902169
H            4.63935567044317        4.57583007967263       -2.99548090185482
H            3.49850637684767        2.41585410956909       -3.36534138393899
H            3.93247888200835        0.51703423008163       -1.89412602149747
H            3.37739086781857        1.09847419955191        1.28451756745074
H            0.92743585914955        2.46619044946835        0.88809377909356
H           -0.30700398093558        1.35797514747592        1.50257264302178
H            1.17722570964205        1.64630669473144        2.42128009220686

          :  Hamiltonian                  GFN2-xTB          :
         :: gradient norm              0.000036296909 Eh/a0 ::
         :: HOMO-LUMO gap              0.035201571057 eV    ::
         :: SCC energy              -125.002106392096 Eh    ::
         :: -> dispersion             -0.118453704119 Eh    ::
         :: -> Gsolv                  -0.049977715307 Eh    ::
         :: repulsion energy           2.303145061570 Eh    ::

    * Orbital Energies and Occupations

         #    Occupation            Energy/Eh            Energy/eV
      -------------------------------------------------------------
         1        2.0000           -0.6715632             -18.2742
       ...           ...                  ...                  ...
       104        2.0000           -0.4095881             -11.1455
       105        2.0000           -0.4094631             -11.1421
       106        2.0000           -0.4049622             -11.0196
       107        2.0000           -0.4036547             -10.9840
       108        2.0000           -0.3991410             -10.8612
       109        2.0000           -0.3972069             -10.8085
       110        2.0000           -0.3930273             -10.6948
       111        2.0000           -0.3930232             -10.6947
       112        2.0000           -0.3753025             -10.2125
       113        2.0000           -0.3706470             -10.0858
       114        1.9526           -0.3512662              -9.5584
       115        1.0474           -0.3455655              -9.4033
       116        0.6639           -0.2563332              -6.9752 (HOMO)
       117        0.3361           -0.2550396              -6.9400 (LUMO)
       118        0.0000           -0.2437481              -6.6327
       119                         -0.2307442              -6.2789
       120                         -0.2299967              -6.2585
       121                         -0.2299906              -6.2584
       122                         -0.2248544              -6.1186
       123                         -0.2225102              -6.0548
       124                         -0.2173961              -5.9156
       125                         -0.2173597              -5.9147
       126                         -0.2156361              -5.8678
       127                         -0.2011387              -5.4733
       ...                                ...                  ...
       228                          0.7013662              19.0851
      -------------------------------------------------------------
                  HL-Gap            0.0012936 Eh            0.0352 eV

     #   Z          covCN         q      C6AA      α(0)
     1   6 C        3.759    -0.110    22.659     6.786
     2   6 C        2.965     0.020    27.554     8.610
     3   6 C        2.928    -0.055    29.365     8.887
     4   6 C        2.922     0.064    26.572     8.453
     5   7 N        2.753    -0.036    21.936     6.956
     6   6 C        2.927     0.065    26.546     8.449
     7   6 C        2.922    -0.041    29.024     8.835
     8   6 C        2.918    -0.028    28.689     8.783
     9   6 C        2.919    -0.034    28.841     8.807
    10   6 C        2.918    -0.028    28.703     8.786
    11   6 C        2.920    -0.044    29.090     8.845
    12   6 C        2.925     0.033    27.256     8.562
    13   6 C        2.916    -0.050    29.247     8.868
    14   6 C        2.910    -0.040    28.988     8.828
    15   6 C        2.918    -0.054    29.354     8.885
    16   6 C        2.982     0.008    27.839     8.655
    17   6 C        2.920    -0.052    29.287     8.875
    18   6 C        2.913    -0.039    28.964     8.825
    19   6 C        2.915    -0.039    28.978     8.827
    20   6 C        2.917    -0.052    29.289     8.875
    21   6 C        2.979     0.000    28.017     8.682
    22   6 C        2.917    -0.051    29.259     8.870
    23   6 C        2.924    -0.036    28.887     8.814
    24   6 C        2.978     0.001    27.989     8.678
    25   6 C        2.978     0.001    27.989     8.678
    26   6 C        2.924    -0.036    28.887     8.814
    27   6 C        2.917    -0.051    29.259     8.870
    28   6 C        2.922     0.064    26.572     8.453
    29   7 N        2.753    -0.036    21.937     6.956
    30   6 C        2.927     0.065    26.546     8.449
    31   6 C        2.922    -0.041    29.024     8.835
    32   6 C        2.918    -0.028    28.689     8.783
    33   6 C        2.919    -0.034    28.841     8.807
    34   6 C        2.918    -0.028    28.703     8.786
    35   6 C        2.920    -0.044    29.090     8.845
    36   6 C        2.925     0.033    27.256     8.562
    37   6 C        2.916    -0.050    29.247     8.868
    38   6 C        2.910    -0.040    28.987     8.828
    39   6 C        2.918    -0.054    29.354     8.885
    40   6 C        2.982     0.008    27.839     8.655
    41   6 C        2.920    -0.052    29.287     8.875
    42   6 C        2.913    -0.039    28.964     8.825
    43   6 C        2.915    -0.039    28.978     8.827
    44   6 C        2.917    -0.052    29.289     8.875
    45   6 C        2.979     0.000    28.017     8.683
    46   6 C        2.928    -0.055    29.365     8.887
    47   6 C        2.965     0.020    27.554     8.610
    48   6 C        3.759    -0.110    22.659     6.786
    49   1 H        0.925     0.055     2.261     2.351
    50   1 H        0.925     0.050     2.325     2.385
    51   1 H        0.925     0.049     2.339     2.391
    52   1 H        0.926     0.038     2.479     2.462
    53   1 H        0.926     0.038     2.477     2.461
    54   1 H        0.926     0.039     2.460     2.453
    55   1 H        0.926     0.039     2.465     2.455
    56   1 H        0.926     0.041     2.442     2.444
    57   1 H        0.926     0.041     2.439     2.442
    58   1 H        0.926     0.023     2.692     2.566
    59   1 H        0.926     0.023     2.692     2.566
    60   1 H        0.926     0.020     2.732     2.585
    61   1 H        0.926     0.017     2.785     2.610
    62   1 H        0.926     0.017     2.781     2.608
    63   1 H        0.926     0.017     2.775     2.605
    64   1 H        0.926     0.016     2.799     2.616
    65   1 H        0.926     0.038     2.481     2.463
    66   1 H        0.926     0.039     2.458     2.452
    67   1 H        0.926     0.039     2.458     2.452
    68   1 H        0.926     0.038     2.481     2.463
    69   1 H        0.926     0.038     2.478     2.461
    70   1 H        0.926     0.039     2.460     2.453
    71   1 H        0.926     0.039     2.465     2.455
    72   1 H        0.926     0.041     2.442     2.444
    73   1 H        0.926     0.041     2.439     2.442
    74   1 H        0.926     0.023     2.692     2.566
    75   1 H        0.926     0.023     2.692     2.566
    76   1 H        0.926     0.020     2.732     2.585
    77   1 H        0.926     0.017     2.785     2.610
    78   1 H        0.926     0.017     2.781     2.608
    79   1 H        0.926     0.017     2.775     2.605
    80   1 H        0.926     0.016     2.799     2.616
    81   1 H        0.926     0.038     2.479     2.462
    82   1 H        0.925     0.055     2.261     2.352
    83   1 H        0.925     0.050     2.325     2.385
    84   1 H        0.925     0.049     2.338     2.391

molecular dipole:
                 x           y           z       tot (Debye)
 q only:       -0.000      -2.257       0.003
   full:       -0.000      -2.177       0.003       5.533

 projected vibrational frequencies (cm⁻¹)
eigval :       -0.00    -0.00    -0.00    -0.00    -0.00     0.00
eigval :       10.86    17.84    18.29    25.74    29.60    34.92
eigval :       43.66    45.54    49.02    63.21    66.77    69.68
eigval :       72.08    86.06   107.38   117.82   128.85   141.23
eigval :      145.12   154.35   158.53   159.67   173.89   174.26
eigval :      199.24   202.71   219.19   220.83   221.43   230.85
eigval :      247.65   248.07   271.40   277.20   278.42   331.90
eigval :      343.16   350.78   368.70   371.75   382.57   384.06
eigval :      391.96   408.44   415.16   417.54   431.23   438.68
eigval :      447.48   451.02   459.09   463.56   471.19   481.02
eigval :      482.80   497.58   499.53   507.39   512.70   521.99
eigval :      526.69   542.30   560.08   565.48   578.34   580.81
eigval :      585.13   587.16   595.54   606.37   608.00   645.20
eigval :      659.88   660.22   661.50   679.73   692.58   700.76
eigval :      700.88   715.20   735.22   735.38   750.98   752.62
eigval :      762.75   773.00   773.82   773.89   796.06   803.15
eigval :      825.22   827.70   828.42   832.88   833.30   834.40
eigval :      839.42   841.28   867.89   868.32   870.12   871.24
eigval :      874.89   876.64   879.14   879.61   891.06   891.21
eigval :      894.31   894.65   908.78   910.34   915.27   920.97
eigval :      924.84   926.54   927.36   929.07   946.51   967.39
eigval :      967.48   988.44   995.51  1001.63  1029.93  1034.10
eigval :     1038.31  1040.03  1060.60  1060.78  1079.21  1079.75
eigval :     1094.07  1094.14  1119.03  1119.78  1121.86  1121.96
eigval :     1124.34  1149.02  1149.12  1157.13  1175.47  1176.60
eigval :     1178.79  1178.80  1182.76  1183.65  1189.53  1191.45
eigval :     1194.16  1194.50  1209.59  1216.65  1224.67  1236.15
eigval :     1244.12  1254.83  1256.10  1257.98  1271.97  1275.77
eigval :     1281.93  1286.00  1288.77  1305.13  1314.18  1321.43
eigval :     1321.69  1331.84  1332.28  1342.06  1342.58  1358.51
eigval :     1358.83  1375.12  1397.44  1398.34  1398.92  1403.71
eigval :     1416.34  1419.71  1421.06  1422.51  1433.44  1434.39
eigval :     1437.55  1438.59  1454.13  1455.75  1461.56  1469.32
eigval :     1472.90  1473.28  1480.41  1482.78  1487.23  1505.30
eigval :     1509.41  1511.78  1519.87  1523.85  1532.20  1532.33
eigval :     1560.68  1561.03  1561.27  1570.59  1582.92  1584.61
eigval :     3004.31  3006.77  3021.62  3022.91  3058.60  3058.64
eigval :     3059.01  3061.45  3064.05  3064.11  3065.41  3065.49
eigval :     3072.76  3072.85  3074.87  3074.99  3076.08  3077.04
eigval :     3077.26  3077.75  3078.31  3078.41  3080.16  3080.34
eigval :     3082.34  3083.34  3086.50  3086.54  3089.17  3089.32
eigval :     3089.54  3090.46  3091.11  3091.33  3097.19  3097.57

   temp. (K)  partition function   enthalpy   heat capacity  entropy
                                   cal/mol     cal/K/mol   cal/K/mol   J/K/mol
 298.15  VIB  0.118E+19            23764.651    150.762    147.016
         ROT  0.467E+08              888.752      2.981     38.075
         INT  0.550E+26            24653.404    153.743    185.090
         TR   0.148E+29             1481.254      4.968     45.121
         TOT                       26134.6577   158.7114   230.2111   963.2031

       T/K    H(0)-H(T)+PV         H(T)/Eh          T*S/Eh         G(T)/Eh
   ------------------------------------------------------------------------
    298.15    0.416482E-01    0.701162E+00    0.109381E+00    0.591781E+00
   ------------------------------------------------------------------------

         :::::::::::::::::::::::::::::::::::::::::::::::::::::
         ::                  THERMODYNAMIC                  ::
         :::::::::::::::::::::::::::::::::::::::::::::::::::::
         :: total free energy        -122.107180230956 Eh   ::
         ::.................................................::
         :: total energy             -122.698961326716 Eh   ::
         :: zero point energy           0.659513577734 Eh   ::
         :: G(RRHO) w/o ZPVE           -0.067732481974 Eh   ::
         :: G(RRHO) contrib.            0.591781095761 Eh   ::
         :::::::::::::::::::::::::::::::::::::::::::::::::::::

           -------------------------------------------------
          | TOTAL ENERGY             -122.698961326716 Eh   |
          | TOTAL ENTHALPY           -121.997799520850 Eh   |
          | TOTAL FREE ENERGY        -122.107180230956 Eh   |
          | GRADIENT NORM               0.000036513360 Eh/α |
          | HOMO-LUMO GAP               0.035201639062 eV   |
           -------------------------------------------------

 * finished run on 2025/08/26 at 01:51:25.535
