   * xtb version 6.7.1 (edcfbbe) compiled by 'albert@albert-system' on 2024-07-22

   ID    Z sym.   atoms
    1    6 C      1-4, 6-28, 30-48
    2    7 N      5, 29
    3    1 H      49-84

          program call               : xtb data2507/toluene/DTXO-TPA2/DTXO-TPA2_toluene_S0_crest.xyz --gfn 2 --gbsa toluene --ohess vtight --parallel 40 --molden --ceasefiles --namespace data2507/toluene/DTXO-TPA2/DTXO-TPA2_toluene_S0_finalOpt
      * Solvation model:               GBSA
        Solvent                        toluene
        Solvent mass                       9.2140E+01 g/mol
          :  Hamiltonian                  GFN2-xTB          :
 * total energy  :  -122.7855442 Eh     change       -0.2132722E-08 Eh
 * total energy  :  -122.7855864 Eh     change       -0.4217479E-04 Eh
 * total energy  :  -122.7856075 Eh     change       -0.2105682E-04 Eh
 * total energy  :  -122.7856156 Eh     change       -0.8157761E-05 Eh
 * total energy  :  -122.7856243 Eh     change       -0.8726709E-05 Eh
 * total energy  :  -122.7856300 Eh     change       -0.5645386E-05 Eh
 * total energy  :  -122.7856357 Eh     change       -0.5698789E-05 Eh
 * total energy  :  -122.7856407 Eh     change       -0.4999357E-05 Eh
 * total energy  :  -122.7856443 Eh     change       -0.3662549E-05 Eh
 * total energy  :  -122.7856481 Eh     change       -0.3743480E-05 Eh
 * total energy  :  -122.7856607 Eh     change       -0.1560874E-05 Eh
 * total energy  :  -122.7856619 Eh     change       -0.1126136E-05 Eh
 * total energy  :  -122.7856626 Eh     change       -0.7505182E-06 Eh
 * total energy  :  -122.7856631 Eh     change       -0.5054156E-06 Eh
 * total energy  :  -122.7856634 Eh     change       -0.2568727E-06 Eh
 * total energy  :  -122.7856636 Eh     change       -0.2550712E-06 Eh
 * total energy  :  -122.7856638 Eh     change       -0.2045083E-06 Eh
 * total energy  :  -122.7856641 Eh     change       -0.2671211E-06 Eh
 * total energy  :  -122.7856641 Eh     change       -0.5018592E-08 Eh
   *** GEOMETRY OPTIMIZATION CONVERGED AFTER 22 ITERATIONS ***

 final structure:
================
84
 xtb: 6.7.1 (edcfbbe)
C           -0.97030671435859        1.51025094926153       -2.04079710574483
C           -1.55744566041799        0.52134958571070       -1.07877236234716
C           -2.92289345023688        0.29455255191576       -1.05248030707370
C           -3.49035742952077       -0.62316004854537       -0.16986558678534
N           -4.87851806317909       -0.79226127495058       -0.12529665327743
C           -5.44440847556138       -2.05349638238515        0.08020366630740
C           -6.66162436134268       -2.16557029588943        0.75434604703649
C           -7.23313789954514       -3.40553984601765        0.96211916312175
C           -6.60215378786960       -4.55410770627213        0.51113559320864
C           -5.39374046734877       -4.44925165537566       -0.15854328903156
C           -4.81817465604760       -3.21267541242702       -0.37899217719407
C           -5.72168168732809        0.28460342427897       -0.45246340379823
C           -6.71181453681834        0.10862113144914       -1.39442999648216
C           -7.55498184387543        1.16209604656832       -1.76152848048935
C           -7.39861752545702        2.39939366283549       -1.20119927067866
C           -6.41052662074262        2.61986932003324       -0.21879153724367
C           -6.25370452040235        3.88344908819745        0.39041478875326
C           -5.32840902793212        4.08056067486616        1.37608694980829
C           -4.52850565135972        3.01293737750759        1.80859232603980
C           -4.64438352543611        1.77971091707633        1.22866514753647
C           -5.56724295266950        1.54968686685156        0.18666393268818
C           -2.65575972747080       -1.34274015557418        0.68413471460836
C           -1.29280444692083       -1.12733384491974        0.65330774364412
C           -0.73032285978229       -0.19539132137964       -0.20998570626416
C            0.73393682586478        0.03045770391511       -0.19319704344102
C            1.56072154062808       -0.68830253514429       -1.04580813129248
C            2.92837798167479       -0.49620207270926       -1.04684571112386
C            3.49935179479240        0.42406429251857       -0.17059532268440
N            4.88500694595951        0.61460894076586       -0.13870402977531
C            5.43032710079406        1.88675958242836        0.05841595254705
C            4.77826558546300        3.03421020758541       -0.39439205088807
C            5.33312387283856        4.28120275035262       -0.17990119757990
C            6.54636473936258        4.40828674390053        0.47710807441724
C            7.20367225771619        3.27150488688862        0.92018841068239
C            6.65298676185547        2.02107967342423        0.71824461050961
C            5.74459167321197       -0.44204024348858       -0.48864063387566
C            6.70958628237482       -0.24071500903338       -1.45131874222864
C            7.56884642882474       -1.27331925970763       -1.83955207591149
C            7.45585590660549       -2.51433314860595       -1.27702553764210
C            6.49667430604652       -2.75930327643321       -0.27202149362301
C            6.38663239898517       -4.02550644088974        0.34192279744789
C            5.48912999982669       -4.24479076461712        1.34839896757054
C            4.67001313000909       -3.19826668350424        1.79623648096333
C            4.74024881486088       -1.96348872217941        1.21236659504280
C            5.63504544877452       -1.71092838909853        0.15147513449700
C            2.66913136423063        1.13836687462823        0.69363563168371
C            1.29738877771799        0.95695886703067        0.69016691014994
C            0.42532871669533        1.72773381298337        1.63607215590680
H           -1.75155759331374        2.10250235657800       -2.51115799599648
H           -0.27630550363602        2.17715495200317       -1.53230267778062
H           -0.41141501731978        0.99060419782718       -2.81927178633753
H           -3.56744860210994        0.84434310742991       -1.72385943518479
H           -7.15215676151606       -1.27185406639967        1.11259097470070
H           -8.17472792933041       -3.47625310484964        1.48742464162458
H           -7.04966886472608       -5.52243883103290        0.67814928857009
H           -4.89821574911013       -5.33799760538956       -0.52231170142015
H           -3.88293652470483       -3.13636047405650       -0.91439336298345
H           -6.83032386620727       -0.85908827659727       -1.86109568957421
H           -8.31795215211391        0.98922142735640       -2.50657514481974
H           -8.03385707508594        3.22267891393796       -1.49409479875870
H           -6.88954564882638        4.69390462231252        0.06269713286921
H           -5.21664894229738        5.05165216177474        1.83649233775436
H           -3.81969689486498        3.16893238645276        2.60892004624045
H           -4.02958890260787        0.96571381583801        1.58010738570801
H           -3.08042567755979       -2.05518935475346        1.37627884016424
H           -0.64845972467516       -1.68309099531478        1.32023101283050
H            1.12167712913688       -1.40597231115694       -1.72466713585950
H            3.55750041379534       -1.05850539274107       -1.72111361757219
H            3.83925967485255        2.94047986056097       -0.92021225910007
H            4.81756737287474        5.16068648037679       -0.53827472402497
H            6.97749337417141        5.38470023828147        0.64011639808466
H            8.14980492019134        3.35955349522923        1.43457669496384
H            7.16415445372728        1.13638646830280        1.06997650822567
H            6.79530365093055        0.73038025017185       -1.91815285711833
H            8.30949493212020       -1.08150739639591       -2.60226501028540
H            8.10420837431451       -3.32156370318532       -1.58541666409854
H            7.03567117351608       -4.81991655038174        0.00107447036508
H            5.41328044244018       -5.21753197411006        1.81265629402798
H            3.98230054525215       -3.37220307924737        2.61113240053425
H            4.11025731434571       -1.16569646714100        1.57414215932370
H            3.11289146798470        1.84066859269576        1.38560182159877
H            1.00039675124607        2.48689112885392        2.16081443615805
H           -0.39252818113079        2.20823740134416        1.10119199344595
H           -0.01778304515713        1.05611040020087        2.37118350742673

          :  Hamiltonian                  GFN2-xTB          :
         :: gradient norm              0.000047363506 Eh/a0 ::
         :: HOMO-LUMO gap              2.329068898830 eV    ::
         :: SCC energy              -125.109005170851 Eh    ::
         :: -> dispersion             -0.118108065282 Eh    ::
         :: -> Gsolv                  -0.048460562390 Eh    ::
         :: repulsion energy           2.323341061250 Eh    ::

    * Orbital Energies and Occupations

         #    Occupation            Energy/Eh            Energy/eV
      -------------------------------------------------------------
         1        2.0000           -0.6622350             -18.0203
       ...           ...                  ...                  ...
       103        2.0000           -0.4132060             -11.2439
       104        2.0000           -0.4042855             -11.0012
       105        2.0000           -0.4040557             -10.9949
       106        2.0000           -0.4017139             -10.9312
       107        2.0000           -0.4009958             -10.9117
       108        2.0000           -0.3991392             -10.8611
       109        2.0000           -0.3975394             -10.8176
       110        2.0000           -0.3929065             -10.6915
       111        2.0000           -0.3917027             -10.6588
       112        2.0000           -0.3811370             -10.3713
       113        2.0000           -0.3807083             -10.3596
       114        2.0000           -0.3458981              -9.4124
       115        2.0000           -0.3454190              -9.3993 (HOMO)
       116                         -0.2598273              -7.0703 (LUMO)
       117                         -0.2597519              -7.0682
       118                         -0.2292976              -6.2395
       119                         -0.2292792              -6.2390
       120                         -0.2267975              -6.1715
       121                         -0.2257438              -6.1428
       122                         -0.2217210              -6.0333
       123                         -0.2216450              -6.0313
       124                         -0.2165128              -5.8916
       125                         -0.2160106              -5.8779
       126                         -0.2064953              -5.6190
       ...                                ...                  ...
       228                          0.6940297              18.8855
      -------------------------------------------------------------
                  HL-Gap            0.0855917 Eh            2.3291 eV

     #   Z          covCN         q      C6AA      α(0)
     1   6 C        3.758    -0.105    22.567     6.773
     2   6 C        2.969     0.013    27.724     8.637
     3   6 C        2.927    -0.060    29.495     8.906
     4   6 C        2.921     0.064    26.571     8.453
     5   7 N        2.752    -0.082    22.843     7.098
     6   6 C        2.923     0.066    26.517     8.445
     7   6 C        2.923    -0.049    29.224     8.865
     8   6 C        2.919    -0.031    28.768     8.796
     9   6 C        2.919    -0.041    29.017     8.833
    10   6 C        2.919    -0.031    28.774     8.796
    11   6 C        2.921    -0.050    29.232     8.866
    12   6 C        2.921     0.060    26.655     8.467
    13   6 C        2.920    -0.050    29.240     8.867
    14   6 C        2.914    -0.032    28.807     8.801
    15   6 C        2.919    -0.045    29.118     8.849
    16   6 C        2.987     0.011    27.770     8.644
    17   6 C        2.920    -0.037    28.910     8.817
    18   6 C        2.915    -0.031    28.764     8.795
    19   6 C        2.916    -0.032    28.800     8.800
    20   6 C        2.917    -0.034    28.841     8.807
    21   6 C        2.984    -0.001    28.038     8.686
    22   6 C        2.920    -0.056    29.384     8.889
    23   6 C        2.923    -0.036    28.901     8.816
    24   6 C        2.981    -0.005    28.135     8.701
    25   6 C        2.981    -0.005    28.138     8.701
    26   6 C        2.923    -0.036    28.886     8.814
    27   6 C        2.921    -0.055    29.370     8.887
    28   6 C        2.920     0.064    26.573     8.453
    29   7 N        2.752    -0.083    22.853     7.100
    30   6 C        2.924     0.066    26.514     8.444
    31   6 C        2.921    -0.050    29.229     8.866
    32   6 C        2.919    -0.031    28.774     8.796
    33   6 C        2.919    -0.041    29.016     8.833
    34   6 C        2.919    -0.031    28.767     8.795
    35   6 C        2.923    -0.049    29.220     8.865
    36   6 C        2.921     0.060    26.657     8.467
    37   6 C        2.920    -0.050    29.240     8.867
    38   6 C        2.914    -0.032    28.807     8.801
    39   6 C        2.919    -0.045    29.116     8.848
    40   6 C        2.987     0.011    27.771     8.644
    41   6 C        2.920    -0.037    28.910     8.817
    42   6 C        2.915    -0.031    28.765     8.795
    43   6 C        2.916    -0.032    28.800     8.800
    44   6 C        2.917    -0.034    28.842     8.807
    45   6 C        2.984    -0.001    28.040     8.686
    46   6 C        2.927    -0.061    29.515     8.909
    47   6 C        2.969     0.012    27.736     8.639
    48   6 C        3.758    -0.106    22.571     6.773
    49   1 H        0.925     0.041     2.435     2.440
    50   1 H        0.925     0.046     2.370     2.408
    51   1 H        0.925     0.047     2.356     2.401
    52   1 H        0.926     0.027     2.634     2.538
    53   1 H        0.926     0.028     2.611     2.527
    54   1 H        0.926     0.031     2.568     2.506
    55   1 H        0.926     0.030     2.589     2.516
    56   1 H        0.926     0.031     2.568     2.506
    57   1 H        0.926     0.031     2.575     2.509
    58   1 H        0.926     0.029     2.599     2.521
    59   1 H        0.926     0.033     2.550     2.497
    60   1 H        0.926     0.033     2.541     2.493
    61   1 H        0.926     0.033     2.539     2.492
    62   1 H        0.926     0.032     2.555     2.499
    63   1 H        0.926     0.032     2.562     2.503
    64   1 H        0.926     0.033     2.541     2.493
    65   1 H        0.926     0.028     2.615     2.529
    66   1 H        0.926     0.028     2.615     2.529
    67   1 H        0.926     0.027     2.631     2.537
    68   1 H        0.926     0.024     2.673     2.557
    69   1 H        0.926     0.032     2.560     2.502
    70   1 H        0.926     0.032     2.561     2.503
    71   1 H        0.926     0.030     2.589     2.516
    72   1 H        0.926     0.031     2.571     2.507
    73   1 H        0.926     0.028     2.616     2.529
    74   1 H        0.926     0.029     2.595     2.519
    75   1 H        0.926     0.033     2.546     2.495
    76   1 H        0.926     0.033     2.539     2.492
    77   1 H        0.926     0.034     2.535     2.490
    78   1 H        0.926     0.032     2.557     2.500
    79   1 H        0.926     0.031     2.576     2.510
    80   1 H        0.926     0.033     2.540     2.492
    81   1 H        0.926     0.030     2.579     2.511
    82   1 H        0.925     0.042     2.422     2.434
    83   1 H        0.925     0.047     2.361     2.403
    84   1 H        0.925     0.047     2.360     2.402

molecular dipole:
                 x           y           z       tot (Debye)
 q only:       -0.037       0.304       0.037
   full:       -0.037       0.257      -0.020       0.662

 projected vibrational frequencies (cm⁻¹)
eigval :       -0.00    -0.00     0.00     0.00     0.00     0.00
eigval :        7.54    12.12    17.67    25.88    28.19    29.03
eigval :       38.76    47.61    48.67    52.58    56.22    57.61
eigval :       69.21    75.32    75.37    84.53    91.56   112.19
eigval :      130.30   150.43   158.77   164.01   171.29   176.30
eigval :      183.61   200.59   212.66   218.14   223.70   238.56
eigval :      246.93   249.83   256.45   273.25   293.88   335.15
eigval :      344.72   358.31   378.24   379.56   381.75   386.68
eigval :      393.79   405.83   415.32   418.82   434.07   437.10
eigval :      440.90   444.23   456.05   471.83   477.39   486.32
eigval :      496.77   502.98   508.05   515.98   526.28   531.67
eigval :      534.06   552.48   558.67   574.74   583.56   587.94
eigval :      590.04   595.90   608.47   614.06   630.05   649.22
eigval :      659.42   660.67   676.66   688.51   690.51   719.43
eigval :      720.08   728.02   750.98   752.07   759.75   760.05
eigval :      774.46   775.09   797.17   807.73   811.49   812.01
eigval :      825.70   828.37   838.25   843.10   869.25   870.28
eigval :      875.87   876.23   876.65   882.06   882.79   884.01
eigval :      887.86   889.01   889.42   891.22   914.82   916.62
eigval :      917.08   917.82   921.02   921.07   923.81   923.94
eigval :      925.74   927.36   929.92   932.16   969.78   970.91
eigval :      994.59  1002.10  1002.77  1025.11  1030.01  1032.77
eigval :     1036.46  1067.45  1073.13  1082.46  1082.69  1087.43
eigval :     1088.22  1119.43  1120.00  1122.06  1122.51  1127.26
eigval :     1159.51  1166.88  1167.49  1177.46  1177.63  1179.15
eigval :     1179.27  1181.36  1183.13  1193.64  1195.93  1196.39
eigval :     1196.89  1217.31  1221.00  1226.10  1235.16  1249.50
eigval :     1250.74  1253.84  1256.21  1273.78  1278.69  1284.21
eigval :     1296.73  1299.09  1312.12  1313.13  1319.07  1323.89
eigval :     1325.73  1336.16  1336.71  1349.67  1370.17  1372.29
eigval :     1390.60  1390.70  1402.01  1408.23  1416.72  1417.61
eigval :     1422.66  1426.30  1438.17  1440.18  1447.72  1448.09
eigval :     1469.17  1471.70  1472.03  1472.71  1474.72  1483.82
eigval :     1486.94  1504.50  1506.31  1508.35  1556.99  1557.88
eigval :     1560.48  1561.65  1576.54  1576.67  1590.02  1590.26
eigval :     1593.33  1593.77  1600.77  1600.95  1608.56  1608.57
eigval :     2997.97  3001.18  3022.88  3024.45  3037.93  3038.57
eigval :     3065.61  3065.88  3067.83  3068.43  3069.48  3069.55
eigval :     3069.84  3069.93  3070.37  3070.70  3071.38  3072.76
eigval :     3072.87  3073.51  3076.19  3076.52  3080.16  3080.52
eigval :     3082.74  3082.77  3082.80  3083.56  3084.19  3085.22
eigval :     3087.17  3087.31  3092.06  3092.41  3100.90  3102.74

   temp. (K)  partition function   enthalpy   heat capacity  entropy
                                   cal/mol     cal/K/mol   cal/K/mol   J/K/mol
 298.15  VIB  0.160E+20            23815.804    147.877    149.984
         ROT  0.951E+08              888.752      2.981     39.488
         INT  0.152E+28            24704.556    150.858    189.472
         TR   0.148E+29             1481.254      4.968     45.121
         TOT                       26185.8101   155.8265   234.5926   981.5354

       T/K    H(0)-H(T)+PV         H(T)/Eh          T*S/Eh         G(T)/Eh
   ------------------------------------------------------------------------
    298.15    0.417297E-01    0.705995E+00    0.111463E+00    0.594532E+00
   ------------------------------------------------------------------------

         :::::::::::::::::::::::::::::::::::::::::::::::::::::
         ::                  THERMODYNAMIC                  ::
         :::::::::::::::::::::::::::::::::::::::::::::::::::::
         :: total free energy        -122.191131966878 Eh   ::
         ::.................................................::
         :: total energy             -122.785664108731 Eh   ::
         :: zero point energy           0.664264907598 Eh   ::
         :: G(RRHO) w/o ZPVE           -0.069732765744 Eh   ::
         :: G(RRHO) contrib.            0.594532141854 Eh   ::
         :::::::::::::::::::::::::::::::::::::::::::::::::::::

           -------------------------------------------------
          | TOTAL ENERGY             -122.785664108731 Eh   |
          | TOTAL ENTHALPY           -122.079669456596 Eh   |
          | TOTAL FREE ENERGY        -122.191131966878 Eh   |
          | GRADIENT NORM               0.000047362093 Eh/α |
          | HOMO-LUMO GAP               2.329069032629 eV   |
           -------------------------------------------------

 * finished run on 2025/08/26 at 01:35:13.617
