   * xtb version 6.7.1 (edcfbbe) compiled by 'albert@albert-system' on 2024-07-22

   ID    Z sym.   atoms
    1    6 C      1-4, 6-28, 30-48
    2    7 N      5, 29
    3    1 H      49-84

          program call               : xtb data2507/toluene/DTXO-TPA2/DTXO-TPA2_toluene_S0_finalOpt.xtbopt.xyz --gfn 2 --uhf 2 --gbsa toluene --ohess vtight --parallel 40 --molden --ceasefiles --namespace data2507/toluene/DTXO-TPA2/DTXO-TPA2_toluene_T1_preOpt
      * Solvation model:               GBSA
        Solvent                        toluene
        Solvent mass                       9.2140E+01 g/mol
          :  Hamiltonian                  GFN2-xTB          :
 * total energy  :  -122.6937689 Eh     change       -0.1007871E-07 Eh
 * total energy  :  -122.6967433 Eh     change       -0.2974411E-02 Eh
 * total energy  :  -122.6973585 Eh     change       -0.6151279E-03 Eh
 * total energy  :  -122.6974311 Eh     change       -0.7261612E-04 Eh
 * total energy  :  -122.6974617 Eh     change       -0.3060098E-04 Eh
 * total energy  :  -122.6974735 Eh     change       -0.1177224E-04 Eh
 * total energy  :  -122.6974859 Eh     change       -0.1247035E-04 Eh
 * total energy  :  -122.6975018 Eh     change       -0.1582453E-04 Eh
 * total energy  :  -122.6975107 Eh     change       -0.8956156E-05 Eh
 * total energy  :  -122.6975150 Eh     change       -0.4249653E-05 Eh
 * total energy  :  -122.6986336 Eh     change       -0.1090315E-05 Eh
 * total energy  :  -122.6986346 Eh     change       -0.1012645E-05 Eh
 * total energy  :  -122.6986355 Eh     change       -0.9269855E-06 Eh
 * total energy  :  -122.6986363 Eh     change       -0.8292416E-06 Eh
 * total energy  :  -122.6986370 Eh     change       -0.7162082E-06 Eh
 * total energy  :  -122.6986376 Eh     change       -0.6031759E-06 Eh
 * total energy  :  -122.6986382 Eh     change       -0.5217661E-06 Eh
 * total energy  :  -122.6986386 Eh     change       -0.4628690E-06 Eh
 * total energy  :  -122.6986386 Eh     change       -0.4199649E-08 Eh
   *** GEOMETRY OPTIMIZATION CONVERGED AFTER 185 ITERATIONS ***

 final structure:
================
84
 xtb: 6.7.1 (edcfbbe)
C           -1.10920198466296        1.99984731065044       -1.70890314307459
C           -1.60568854310653        0.79908836601182       -0.96113646631164
C           -2.96147178216534        0.53547081352229       -0.95516097657144
C           -3.49281918285182       -0.59208539167504       -0.31944654759085
N           -4.86354174272244       -0.78787270862174       -0.28525410119006
C           -5.41307060258598       -2.07093176103863       -0.26369560035316
C           -6.59932222669112       -2.30252846661898        0.43839654049254
C           -7.16202254635493       -3.56274682614202        0.45496424575045
C           -6.55769458217954       -4.61044089409295       -0.22423028593977
C           -5.38434736536434       -4.38489910884424       -0.92843152257680
C           -4.81435989890519       -3.12755525850496       -0.95528636252854
C           -5.73772367138460        0.30527346970332       -0.37014683918878
C           -6.78083705666889        0.24743296089757       -1.30758704296309
C           -7.63986445754752        1.31299424725814       -1.47387695913630
C           -7.48812051888114        2.45951346787558       -0.70607422973899
C           -6.47580697405698        2.54684995559509        0.26987336122747
C           -6.33774819980686        3.69101225243997        1.07852219992263
C           -5.37582996025402        3.75313215136683        2.06950512001851
C           -4.54138973745530        2.66805682474360        2.29118805781878
C           -4.64340214256176        1.53118135421824        1.50453640346597
C           -5.58504193721073        1.45039562115976        0.46702719377231
C           -2.61026323925875       -1.49362802630776        0.29133827399315
C           -1.25836967610864       -1.24824179333196        0.26833124363562
C           -0.73032308920077       -0.09369269348680       -0.32074620743944
C            0.72277855336018        0.10789468837802       -0.27391983109533
C            1.54838983290913       -0.86610319131951       -0.84667539437931
C            2.91538036957655       -0.73466018293001       -0.86585530992509
C            3.51693837201645        0.38305080086801       -0.27093723730650
N            4.89442966062219        0.52127183793368       -0.27041165814789
C            5.49913368073299        1.77970257619749       -0.27180148074702
C            4.92853314817372        2.85816977098395       -0.95311544133466
C            5.55253605535369        4.08989631138844       -0.94908798521109
C            6.75242054249462        4.26831571414816       -0.27710884427999
C            7.32898357130248        3.19858471845764        0.39135737226661
C            6.71240551452378        1.96348312554149        0.39673736587773
C            5.72426300794366       -0.60907500155206       -0.36840231638431
C            6.71582176953844       -0.61738002641270       -1.35416996835256
C            7.53749223370513       -1.71623695983574       -1.52185001377161
C            7.39323347852667       -2.82487807073272       -0.70560756254623
C            6.42806607476903       -2.84519815433821        0.32101954795772
C            6.29827237394269       -3.95296635117769        1.18099381289757
C            5.38355968972914       -3.94925565838621        2.21404265767824
C            4.58247541214563       -2.83426323485997        2.42621498956274
C            4.67582185944683       -1.73485129475972        1.59260070766127
C            5.57691425303091       -1.71799868255719        0.51477125277091
C            2.69648892249742        1.32784311337243        0.35421870817332
C            1.31914006241094        1.21156707431633        0.35784810522595
C            0.51255162395330        2.23640733983793        1.09841653400241
H           -1.36042274669482        2.91071656488426       -1.16673349056949
H           -0.03301567919559        1.95920601926699       -1.84960439295659
H           -1.59102706641821        2.05512925804927       -2.68365642022395
H           -3.63478382957690        1.20677294205428       -1.46853414690224
H           -7.06122151141858       -1.48698719770970        0.97533517218157
H           -8.07493305324761       -3.73096612277814        1.00696100083465
H           -7.00015585216938       -5.59485829649391       -0.20758570912814
H           -4.91526710205732       -5.19310913776134       -1.47013629711467
H           -3.91450931131479       -2.94858129709468       -1.52508387091325
H           -6.87638114806370       -0.63446264979848       -1.92470167270534
H           -8.42446801680856        1.25963944129082       -2.21466084379023
H           -8.15542167201892        3.29791775055508       -0.84230148267407
H           -7.01016529449175        4.52204697175995        0.91832283624265
H           -5.28349987072181        4.64185331647120        2.67791991198792
H           -3.80338557107555        2.70451781136884        3.08005273449106
H           -3.99174387891932        0.69464876105664        1.70670668352565
H           -2.99807444776095       -2.36104336337030        0.80428045901651
H           -0.58319475208345       -1.93822018902209        0.75362933320445
H            1.09003197631920       -1.72152523671091       -1.32130398907815
H            3.53263824720724       -1.47723424954234       -1.34832530768405
H            4.00669475268951        2.71604588491944       -1.49737743397612
H            5.10439531531796        4.91474839913087       -1.48335701927590
H            7.23707876092744        5.23284896485264       -0.27767195485985
H            8.26297101425438        3.32936379691039        0.91771520513632
H            7.15431813347683        1.13131549267695        0.92486707703198
H            6.81056083160340        0.23983034577186       -2.00542939352376
H            8.28487226463644       -1.71178953559843       -2.30194259696567
H            8.02931303563819       -3.68760932238839       -0.83990678274349
H            6.94048312513328       -4.80810469018284        1.02319467544401
H            5.29710895048582       -4.80902569490515        2.86353627168151
H            3.87872782478825       -2.82306930490672        3.24646056382460
H            4.04961594277916       -0.87646560358763        1.78308942968987
H            3.15486040370238        2.15657373316302        0.87513936154203
H            0.95152201060509        2.41606518533330        2.07862592049104
H            0.51310747772292        3.18311103652184        0.55955755318476
H           -0.51525419558583        1.91098503201357        1.22887559414350

          :  Hamiltonian                  GFN2-xTB          :
         :: gradient norm              0.000049112716 Eh/a0 ::
         :: HOMO-LUMO gap              0.032944496301 eV    ::
         :: SCC energy              -125.001964796088 Eh    ::
         :: -> dispersion             -0.118186916533 Eh    ::
         :: -> Gsolv                  -0.050237223285 Eh    ::
         :: repulsion energy           2.303326160918 Eh    ::

    * Orbital Energies and Occupations

         #    Occupation            Energy/Eh            Energy/eV
      -------------------------------------------------------------
         1        2.0000           -0.6721323             -18.2897
       ...           ...                  ...                  ...
       104        2.0000           -0.4097916             -11.1510
       105        2.0000           -0.4092727             -11.1369
       106        2.0000           -0.4049915             -11.0204
       107        2.0000           -0.4038969             -10.9906
       108        2.0000           -0.3992328             -10.8637
       109        2.0000           -0.3980254             -10.8308
       110        2.0000           -0.3932371             -10.7005
       111        2.0000           -0.3929620             -10.6930
       112        2.0000           -0.3752384             -10.2108
       113        2.0000           -0.3705604             -10.0835
       114        1.9485           -0.3513597              -9.5610
       115        1.0515           -0.3458241              -9.4104
       116        0.6541           -0.2563554              -6.9758 (HOMO)
       117        0.3459           -0.2551447              -6.9428 (LUMO)
       118        0.0000           -0.2435263              -6.6267
       119                         -0.2311369              -6.2896
       120                         -0.2304829              -6.2718
       121                         -0.2295978              -6.2477
       122                         -0.2249004              -6.1199
       123                         -0.2224454              -6.0530
       124                         -0.2179741              -5.9314
       125                         -0.2169822              -5.9044
       126                         -0.2154202              -5.8619
       127                         -0.2012834              -5.4772
       ...                                ...                  ...
       228                          0.7016726              19.0935
      -------------------------------------------------------------
                  HL-Gap            0.0012108 Eh            0.0329 eV

     #   Z          covCN         q      C6AA      α(0)
     1   6 C        3.759    -0.111    22.678     6.789
     2   6 C        2.965     0.020    27.552     8.610
     3   6 C        2.928    -0.055    29.363     8.887
     4   6 C        2.922     0.064    26.575     8.454
     5   7 N        2.753    -0.033    21.888     6.949
     6   6 C        2.928     0.065    26.551     8.450
     7   6 C        2.922    -0.041    29.011     8.833
     8   6 C        2.918    -0.027    28.686     8.783
     9   6 C        2.919    -0.033    28.831     8.805
    10   6 C        2.918    -0.028    28.700     8.785
    11   6 C        2.920    -0.043    29.079     8.843
    12   6 C        2.925     0.032    27.289     8.567
    13   6 C        2.916    -0.050    29.244     8.868
    14   6 C        2.910    -0.040    28.992     8.829
    15   6 C        2.919    -0.055    29.363     8.886
    16   6 C        2.981     0.008    27.840     8.655
    17   6 C        2.921    -0.053    29.307     8.878
    18   6 C        2.912    -0.039    28.973     8.826
    19   6 C        2.915    -0.040    28.984     8.828
    20   6 C        2.916    -0.053    29.310     8.878
    21   6 C        2.978     0.000    28.014     8.682
    22   6 C        2.917    -0.050    29.251     8.869
    23   6 C        2.923    -0.035    28.877     8.812
    24   6 C        2.979     0.002    27.981     8.677
    25   6 C        2.979     0.001    27.996     8.679
    26   6 C        2.923    -0.033    28.834     8.806
    27   6 C        2.918    -0.048    29.188     8.859
    28   6 C        2.921     0.065    26.552     8.450
    29   7 N        2.753    -0.039    21.990     6.965
    30   6 C        2.928     0.065    26.540     8.448
    31   6 C        2.921    -0.044    29.088     8.844
    32   6 C        2.918    -0.028    28.703     8.786
    33   6 C        2.919    -0.034    28.843     8.807
    34   6 C        2.918    -0.028    28.690     8.784
    35   6 C        2.922    -0.041    29.028     8.835
    36   6 C        2.924     0.034    27.236     8.558
    37   6 C        2.917    -0.050    29.248     8.868
    38   6 C        2.911    -0.040    28.985     8.828
    39   6 C        2.919    -0.054    29.348     8.884
    40   6 C        2.982     0.008    27.846     8.656
    41   6 C        2.920    -0.051    29.277     8.873
    42   6 C        2.913    -0.039    28.960     8.824
    43   6 C        2.915    -0.039    28.970     8.826
    44   6 C        2.916    -0.051    29.276     8.873
    45   6 C        2.979    -0.000    28.025     8.684
    46   6 C        2.927    -0.059    29.463     8.902
    47   6 C        2.965     0.019    27.591     8.616
    48   6 C        3.759    -0.111    22.667     6.788
    49   1 H        0.925     0.057     2.240     2.340
    50   1 H        0.925     0.050     2.320     2.382
    51   1 H        0.925     0.049     2.332     2.388
    52   1 H        0.926     0.039     2.464     2.455
    53   1 H        0.926     0.039     2.468     2.457
    54   1 H        0.926     0.040     2.453     2.449
    55   1 H        0.926     0.039     2.459     2.452
    56   1 H        0.926     0.041     2.439     2.442
    57   1 H        0.926     0.041     2.435     2.440
    58   1 H        0.926     0.022     2.698     2.569
    59   1 H        0.926     0.022     2.696     2.568
    60   1 H        0.926     0.020     2.737     2.587
    61   1 H        0.926     0.016     2.794     2.614
    62   1 H        0.926     0.016     2.788     2.611
    63   1 H        0.926     0.017     2.784     2.609
    64   1 H        0.926     0.015     2.815     2.624
    65   1 H        0.926     0.037     2.486     2.466
    66   1 H        0.926     0.038     2.475     2.460
    67   1 H        0.926     0.038     2.481     2.463
    68   1 H        0.926     0.035     2.521     2.483
    69   1 H        0.926     0.041     2.433     2.439
    70   1 H        0.926     0.041     2.439     2.442
    71   1 H        0.926     0.038     2.469     2.457
    72   1 H        0.926     0.039     2.467     2.456
    73   1 H        0.926     0.037     2.489     2.467
    74   1 H        0.926     0.023     2.689     2.565
    75   1 H        0.926     0.023     2.686     2.563
    76   1 H        0.926     0.021     2.725     2.582
    77   1 H        0.926     0.017     2.775     2.605
    78   1 H        0.926     0.017     2.776     2.606
    79   1 H        0.926     0.017     2.776     2.606
    80   1 H        0.926     0.017     2.780     2.607
    81   1 H        0.926     0.040     2.444     2.445
    82   1 H        0.925     0.048     2.342     2.393
    83   1 H        0.925     0.056     2.242     2.342
    84   1 H        0.925     0.049     2.338     2.391

molecular dipole:
                 x           y           z       tot (Debye)
 q only:       -0.018       0.412      -0.676
   full:       -0.022       0.351      -0.662       1.906

 projected vibrational frequencies (cm⁻¹)
eigval :       -0.00     0.00     0.00     0.00     0.00     0.00
eigval :       10.93    12.65    16.72    20.85    29.23    31.63
eigval :       42.08    47.43    51.43    54.10    62.59    70.46
eigval :       76.86    82.55    98.51   111.26   127.30   129.80
eigval :      138.59   150.17   155.41   166.05   166.28   179.15
eigval :      181.23   202.99   218.05   219.10   226.17   235.74
eigval :      245.41   249.01   256.74   273.89   288.21   325.92
eigval :      346.17   357.63   366.08   373.20   380.48   384.10
eigval :      384.83   405.11   414.91   418.96   432.27   439.81
eigval :      445.46   448.69   457.79   464.98   471.69   478.33
eigval :      483.37   497.15   498.46   506.51   511.55   520.93
eigval :      527.39   546.37   551.61   572.10   573.48   580.47
eigval :      585.96   586.60   597.85   600.89   611.04   644.06
eigval :      659.71   660.83   668.11   677.86   692.42   698.49
eigval :      701.68   717.09   729.83   735.96   749.08   751.72
eigval :      759.28   771.44   773.72   774.12   789.13   799.73
eigval :      820.90   822.12   828.05   829.80   832.36   834.92
eigval :      839.82   842.81   866.35   867.97   870.01   871.23
eigval :      875.54   878.04   879.86   880.73   887.60   891.44
eigval :      893.94   895.32   901.14   910.62   913.34   920.54
eigval :      924.00   926.62   927.18   929.74   947.25   966.46
eigval :      966.93   988.58   994.62  1000.37  1027.78  1028.90
eigval :     1033.22  1037.63  1059.69  1068.92  1079.26  1079.82
eigval :     1093.66  1093.90  1118.83  1119.37  1121.01  1122.57
eigval :     1124.44  1146.31  1151.78  1157.02  1175.09  1176.71
eigval :     1177.14  1178.33  1182.66  1184.19  1188.75  1191.93
eigval :     1192.36  1194.35  1209.59  1216.21  1223.82  1235.47
eigval :     1244.11  1251.87  1255.43  1257.53  1271.99  1276.28
eigval :     1281.81  1286.07  1288.95  1307.58  1312.05  1321.52
eigval :     1323.00  1331.32  1332.02  1341.71  1342.85  1358.28
eigval :     1360.08  1376.14  1393.56  1396.69  1401.10  1401.88
eigval :     1415.13  1419.44  1419.98  1421.51  1430.54  1433.91
eigval :     1436.48  1445.38  1454.43  1456.29  1460.59  1468.70
eigval :     1472.23  1473.51  1479.63  1482.59  1487.50  1505.54
eigval :     1510.79  1512.62  1521.93  1525.37  1526.74  1537.68
eigval :     1559.27  1560.90  1562.12  1571.11  1582.79  1584.46
eigval :     3004.50  3007.32  3021.33  3024.11  3054.22  3058.34
eigval :     3058.48  3060.39  3063.88  3064.72  3065.94  3066.69
eigval :     3073.11  3073.28  3074.72  3075.14  3076.44  3076.78
eigval :     3077.25  3077.38  3078.15  3078.23  3078.84  3080.96
eigval :     3082.77  3083.87  3086.15  3086.85  3089.24  3089.47
eigval :     3089.63  3090.85  3090.97  3093.50  3097.16  3097.64

   temp. (K)  partition function   enthalpy   heat capacity  entropy
                                   cal/mol     cal/K/mol   cal/K/mol   J/K/mol
 298.15  VIB  0.366E+19            23879.028    150.700    148.545
         ROT  0.956E+08              888.752      2.981     39.498
         INT  0.350E+27            24767.781    153.681    188.043
         TR   0.148E+29             1481.254      4.968     45.121
         TOT                       26249.0346   158.6493   233.1633   975.5553

       T/K    H(0)-H(T)+PV         H(T)/Eh          T*S/Eh         G(T)/Eh
   ------------------------------------------------------------------------
    298.15    0.418305E-01    0.700971E+00    0.110783E+00    0.590187E+00
   ------------------------------------------------------------------------

         :::::::::::::::::::::::::::::::::::::::::::::::::::::
         ::                  THERMODYNAMIC                  ::
         :::::::::::::::::::::::::::::::::::::::::::::::::::::
         :: total free energy        -122.108451328184 Eh   ::
         ::.................................................::
         :: total energy             -122.698638626481 Eh   ::
         :: zero point energy           0.659140208404 Eh   ::
         :: G(RRHO) w/o ZPVE           -0.068952910106 Eh   ::
         :: G(RRHO) contrib.            0.590187298297 Eh   ::
         :::::::::::::::::::::::::::::::::::::::::::::::::::::

           -------------------------------------------------
          | TOTAL ENERGY             -122.698638626481 Eh   |
          | TOTAL ENTHALPY           -121.997667918763 Eh   |
          | TOTAL FREE ENERGY        -122.108451328184 Eh   |
          | GRADIENT NORM               0.000049348162 Eh/α |
          | HOMO-LUMO GAP               0.032946728195 eV   |
           -------------------------------------------------

 * finished run on 2025/08/26 at 01:35:34.740
