   * xtb version 6.7.1 (edcfbbe) compiled by 'albert@albert-system' on 2024-07-22

   ID    Z sym.   atoms
    1    6 C      1-16, 18-23, 25-33, 35, 36
    2    7 N      17, 34
    3    8 O      24
    4    1 H      37-58

          program call               : xtb data2507/toluene/PhQLPXZ/PhQLPXZ_toluene_S0_finalOpt.xtbopt.xyz --gfn 2 --uhf 2 --gbsa toluene --ohess vtight --parallel 40 --molden --ceasefiles --namespace data2507/toluene/PhQLPXZ/PhQLPXZ_toluene_T1_preOpt
      * Solvation model:               GBSA
        Solvent                        toluene
        Solvent mass                       9.2140E+01 g/mol
          :  Hamiltonian                  GFN2-xTB          :
 * total energy  :   -91.7718259 Eh     change       -0.2405613E-09 Eh
 * total energy  :   -91.7759278 Eh     change       -0.4101899E-02 Eh
 * total energy  :   -91.7772933 Eh     change       -0.1365468E-02 Eh
 * total energy  :   -91.7775554 Eh     change       -0.2620704E-03 Eh
 * total energy  :   -91.7778087 Eh     change       -0.2533016E-03 Eh
 * total energy  :   -91.7779287 Eh     change       -0.1199997E-03 Eh
 * total energy  :   -91.7780488 Eh     change       -0.1201008E-03 Eh
 * total energy  :   -91.7781683 Eh     change       -0.1194882E-03 Eh
 * total energy  :   -91.7782783 Eh     change       -0.1100585E-03 Eh
 * total energy  :   -91.7783746 Eh     change       -0.9627609E-04 Eh
 * total energy  :   -91.7790265 Eh     change       -0.3291261E-06 Eh
 * total energy  :   -91.7790269 Eh     change       -0.3171577E-06 Eh
 * total energy  :   -91.7790272 Eh     change       -0.3281244E-06 Eh
 * total energy  :   -91.7790275 Eh     change       -0.2609211E-06 Eh
 * total energy  :   -91.7790277 Eh     change       -0.2579644E-06 Eh
 * total energy  :   -91.7790280 Eh     change       -0.2726084E-06 Eh
 * total energy  :   -91.7790282 Eh     change       -0.2581277E-06 Eh
 * total energy  :   -91.7790284 Eh     change       -0.1708351E-06 Eh
 * total energy  :   -91.7790285 Eh     change       -0.7312158E-07 Eh
   *** GEOMETRY OPTIMIZATION CONVERGED AFTER 59 ITERATIONS ***

 final structure:
================
58
 xtb: 6.7.1 (edcfbbe)
C            7.81707786375479       -1.65569163835651       -0.41890553526992
C            7.48390752148067       -0.46432617330690        0.20953646844604
C            6.16530466651441       -0.07805878829872        0.33177965590042
C            5.13120812486155       -0.88138389185549       -0.16894745117326
C            3.72843700712985       -0.53394325702300       -0.06403776357223
C            3.25846242543715        0.67510799537949        0.43950874676776
C            1.90659759813574        1.00328342790038        0.40748400676085
C            1.48276702106562        2.35363576274932        0.75513815514137
C            2.04570676333744        3.01379145854854        1.85447414179851
C            1.65552436834953        4.29512089836851        2.18711824318102
C            0.70309287661625        4.95916937831604        1.42832170694810
C            0.15078664744222        4.32687642369759        0.32431941317557
C            0.53597893554412        3.04449061335842       -0.01016775560994
C            0.97653233565923        0.00654620575505       -0.04514999054992
C           -0.39991272869281        0.11975640910107        0.04932336793681
C           -1.25367995278298       -0.90928609592907       -0.39706601713116
N           -2.64762685386421       -0.74852353199146       -0.28427580393819
C           -3.27410431642383        0.32459183505400       -0.90352222087953
C           -2.58832586851025        1.19817059479857       -1.74891555056361
C           -3.23781162662384        2.26709181122287       -2.33616645650344
C           -4.58927279458696        2.47920138118014       -2.11115968124519
C           -5.29979869194401        1.59668024173562       -1.31611882261059
C           -4.65521190583881        0.52179239129702       -0.72372524567284
O           -5.41825577495027       -0.33511058550780        0.01457099771880
C           -4.80063701947752       -1.41218986728568        0.58235483193047
C           -5.59639044102005       -2.28060721823680        1.31382141223246
C           -5.03019119913303       -3.36846359981267        1.95442125802557
C           -3.66045406893909       -3.57129243387491        1.88105282312503
C           -2.86066666139898       -2.71316521003579        1.15064833697607
C           -3.41569878739598       -1.63221530403358        0.46418146642854
C           -0.70910102800631       -2.07326173037692       -0.93030036580015
C            0.65719738571636       -2.23355832965244       -0.98855504590136
C            1.53913210501363       -1.22945371935828       -0.52064922049653
N            2.83704384714217       -1.45885524748935       -0.50291214628503
C            5.48780049695453       -2.08472706106101       -0.79958424745527
C            6.80651112585976       -2.46286652207425       -0.92276704338016
H            8.85173950552565       -1.95146453609313       -0.51274413732326
H            8.26448401072825        0.17009189328682        0.60647554647303
H            5.94103635708125        0.85556243514835        0.82581732447095
H            3.96345530374071        1.41797769705742        0.77809440564578
H            2.77285277590585        2.49839300287728        2.46607606274854
H            2.09388849014629        4.78070914706052        3.04796802912677
H            0.40005241764722        5.96215749220503        1.69090617422655
H           -0.57847486426984        4.84266116022686       -0.28451264024077
H            0.13256615625753        2.57906859734738       -0.89712059935628
H           -0.83406742103329        0.97607466157777        0.54415223880737
H           -1.54399591941101        1.02289828443533       -1.94922011165837
H           -2.68469170549581        2.93173061616298       -2.98125633500410
H           -5.09466237554803        3.31515239272343       -2.56770913348785
H           -6.35783501836574        1.71538462486879       -1.14543295127642
H           -6.65382393104188       -2.07755630827283        1.37087604698017
H           -5.65386524124828       -4.04281241508569        2.51911677536410
H           -3.20629269603930       -4.40093827431013        2.39972915522294
H           -1.79482170212764       -2.86969215676705        1.11602714251666
H           -1.36310370082647       -2.84326021036870       -1.31267970738462
H            1.08933307928639       -3.12095997614269       -1.42256610896406
H            4.69524463672151       -2.71015840734816       -1.18237658745149
H            7.05491602369185       -3.39427489373281       -1.41254953577284

          :  Hamiltonian                  GFN2-xTB          :
         :: gradient norm              0.000041553667 Eh/a0 ::
         :: HOMO-LUMO gap              0.544206547707 eV    ::
         :: SCC energy               -93.435654284666 Eh    ::
         :: -> dispersion             -0.078050504807 Eh    ::
         :: -> Gsolv                  -0.040417769534 Eh    ::
         :: repulsion energy           1.656625798888 Eh    ::

    * Orbital Energies and Occupations

         #    Occupation            Energy/Eh            Energy/eV
      -------------------------------------------------------------
         1        2.0000           -0.7548814             -20.5414
       ...           ...                  ...                  ...
        74        2.0000           -0.4180798             -11.3765
        75        2.0000           -0.4160276             -11.3207
        76        2.0000           -0.4148521             -11.2887
        77        2.0000           -0.4112683             -11.1912
        78        2.0000           -0.4076084             -11.0916
        79        2.0000           -0.4007633             -10.9053
        80        2.0000           -0.3987028             -10.8493
        81        2.0000           -0.3959975             -10.7756
        82        2.0000           -0.3819230             -10.3927
        83        2.0000           -0.3746934             -10.1959
        84        1.9742           -0.3617053              -9.8425
        85        1.0258           -0.3548091              -9.6548
        86        1.0000           -0.2786673              -7.5829 (HOMO)
        87        0.0000           -0.2586686              -7.0387 (LUMO)
        88                         -0.2465213              -6.7082
        89                         -0.2427089              -6.6044
        90                         -0.2332075              -6.3459
        91                         -0.2227893              -6.0624
        92                         -0.2182941              -5.9401
        93                         -0.2174911              -5.9182
        94                         -0.2123949              -5.7796
        95                         -0.2049870              -5.5780
        96                         -0.1782179              -4.8496
        97                         -0.1429408              -3.8896
       ...                                ...                  ...
       166                          0.7135726              19.4173
      -------------------------------------------------------------
                  HL-Gap            0.0199987 Eh            0.5442 eV

     #   Z          covCN         q      C6AA      α(0)
     1   6 C        2.919    -0.039    28.967     8.826
     2   6 C        2.917    -0.034    28.839     8.806
     3   6 C        2.922    -0.042    29.034     8.836
     4   6 C        2.975    -0.001    28.038     8.686
     5   6 C        2.925     0.070    26.445     8.433
     6   6 C        2.918    -0.053    29.326     8.880
     7   6 C        2.972    -0.017    28.441     8.748
     8   6 C        2.974     0.007    27.870     8.660
     9   6 C        2.924    -0.039    28.981     8.828
    10   6 C        2.917    -0.032    28.810     8.802
    11   6 C        2.919    -0.039    28.966     8.826
    12   6 C        2.917    -0.034    28.839     8.806
    13   6 C        2.924    -0.040    28.992     8.830
    14   6 C        2.977    -0.004    28.126     8.699
    15   6 C        2.917    -0.062    29.530     8.911
    16   6 C        2.919     0.036    27.192     8.551
    17   7 N        2.751    -0.016    21.561     6.896
    18   6 C        2.926     0.045    26.986     8.519
    19   6 C        2.921    -0.047    29.176     8.858
    20   6 C        2.918    -0.030    28.749     8.793
    21   6 C        2.919    -0.029    28.715     8.787
    22   6 C        2.917    -0.052    29.295     8.876
    23   6 C        2.886     0.131    25.130     8.219
    24   8 O        1.710    -0.228    17.787     5.694
    25   6 C        2.886     0.131    25.139     8.220
    26   6 C        2.917    -0.052    29.281     8.873
    27   6 C        2.919    -0.029    28.721     8.788
    28   6 C        2.918    -0.030    28.748     8.792
    29   6 C        2.921    -0.049    29.222     8.865
    30   6 C        2.924     0.045    26.999     8.521
    31   6 C        2.912    -0.047    29.169     8.856
    32   6 C        2.922    -0.065    29.623     8.925
    33   6 C        2.934     0.097    25.859     8.340
    34   7 N        1.852    -0.263    27.690     7.799
    35   6 C        2.927    -0.035    28.875     8.812
    36   6 C        2.916    -0.033    28.826     8.804
    37   1 H        0.926     0.025     2.662     2.551
    38   1 H        0.925     0.024     2.669     2.555
    39   1 H        0.926     0.022     2.696     2.567
    40   1 H        0.926     0.027     2.628     2.535
    41   1 H        0.926     0.023     2.690     2.565
    42   1 H        0.925     0.025     2.661     2.551
    43   1 H        0.926     0.025     2.660     2.550
    44   1 H        0.926     0.027     2.630     2.536
    45   1 H        0.926     0.028     2.621     2.532
    46   1 H        0.926     0.039     2.468     2.457
    47   1 H        0.926     0.055     2.253     2.347
    48   1 H        0.926     0.056     2.250     2.346
    49   1 H        0.926     0.059     2.212     2.326
    50   1 H        0.926     0.065     2.146     2.291
    51   1 H        0.926     0.065     2.143     2.289
    52   1 H        0.926     0.059     2.207     2.323
    53   1 H        0.926     0.057     2.235     2.338
    54   1 H        0.926     0.058     2.222     2.331
    55   1 H        0.926     0.038     2.474     2.460
    56   1 H        0.926     0.039     2.459     2.452
    57   1 H        0.926     0.040     2.450     2.448
    58   1 H        0.925     0.026     2.641     2.542

molecular dipole:
                 x           y           z       tot (Debye)
 q only:       -3.465      -0.212      -0.097
   full:       -3.443       0.056      -0.007       8.753

 projected vibrational frequencies (cm⁻¹)
eigval :       -0.00    -0.00     0.00     0.00     0.00     0.00
eigval :       14.11    21.58    25.27    27.73    44.98    53.81
eigval :       62.74    67.95    83.40    90.71   117.86   129.97
eigval :      148.32   174.75   185.99   208.33   236.90   239.19
eigval :      245.94   258.94   269.97   286.45   326.97   349.72
eigval :      356.85   361.65   373.17   383.29   398.14   402.54
eigval :      424.60   432.29   436.35   446.45   469.84   495.00
eigval :      498.81   512.39   536.34   543.75   546.07   552.36
eigval :      571.57   573.34   581.94   587.72   590.64   616.70
eigval :      618.01   645.97   649.40   662.97   667.58   673.69
eigval :      676.40   695.26   746.39   748.52   764.72   774.68
eigval :      779.29   785.88   804.87   811.66   814.98   828.36
eigval :      849.08   853.32   856.71   865.28   866.72   871.43
eigval :      877.64   883.22   892.57   904.28   906.59   912.00
eigval :      916.21   918.51   919.05   919.31   920.89   921.10
eigval :      931.32   974.20   976.02   998.07  1077.40  1079.83
eigval :     1083.44  1084.55  1086.15  1113.32  1114.26  1116.05
eigval :     1121.22  1126.44  1145.89  1167.70  1171.72  1176.09
eigval :     1178.15  1182.68  1192.19  1198.19  1206.10  1209.42
eigval :     1222.50  1230.14  1236.47  1251.38  1271.87  1279.13
eigval :     1283.48  1292.95  1299.95  1310.83  1317.59  1321.16
eigval :     1327.37  1333.29  1343.71  1355.85  1380.23  1387.70
eigval :     1403.14  1413.48  1427.31  1431.01  1435.26  1437.55
eigval :     1456.94  1464.46  1467.44  1472.08  1475.79  1512.33
eigval :     1551.21  1551.41  1553.36  1559.49  1567.89  1580.97
eigval :     1581.57  1584.17  3059.77  3060.00  3062.52  3064.25
eigval :     3071.84  3075.86  3076.19  3078.52  3080.42  3082.19
eigval :     3088.17  3089.08  3090.81  3095.95  3096.61  3102.31
eigval :     3104.53  3104.67  3113.56  3113.90  3116.59  3117.31

   temp. (K)  partition function   enthalpy   heat capacity  entropy
                                   cal/mol     cal/K/mol   cal/K/mol   J/K/mol
 298.15  VIB  0.576E+12            15883.870    103.952     96.981
         ROT  0.356E+08              888.752      2.981     37.537
         INT  0.205E+20            16772.622    106.933    134.518
         TR   0.962E+28             1481.254      4.968     44.263
         TOT                       18253.8760   111.9008   178.7811   748.0199

       T/K    H(0)-H(T)+PV         H(T)/Eh          T*S/Eh         G(T)/Eh
   ------------------------------------------------------------------------
    298.15    0.290894E-01    0.467850E+00    0.849446E-01    0.382906E+00
   ------------------------------------------------------------------------

         :::::::::::::::::::::::::::::::::::::::::::::::::::::
         ::                  THERMODYNAMIC                  ::
         :::::::::::::::::::::::::::::::::::::::::::::::::::::
         :: total free energy         -91.396122752383 Eh   ::
         ::.................................................::
         :: total energy              -91.779028487404 Eh   ::
         :: zero point energy           0.438760979420 Eh   ::
         :: G(RRHO) w/o ZPVE           -0.055855244399 Eh   ::
         :: G(RRHO) contrib.            0.382905735021 Eh   ::
         :::::::::::::::::::::::::::::::::::::::::::::::::::::

           -------------------------------------------------
          | TOTAL ENERGY              -91.779028487404 Eh   |
          | TOTAL ENTHALPY            -91.311178104959 Eh   |
          | TOTAL FREE ENERGY         -91.396122752383 Eh   |
          | GRADIENT NORM               0.000042223382 Eh/α |
          | HOMO-LUMO GAP               0.544190983176 eV   |
           -------------------------------------------------

 * finished run on 2025/07/18 at 16:37:51.006
