   * xtb version 6.7.1 (edcfbbe) compiled by 'albert@albert-system' on 2024-07-22

   ID    Z sym.   atoms
    1    6 C      1-16, 18-23, 25-33, 35, 36
    2    7 N      17, 34
    3    8 O      24
    4    1 H      37-58

          program call               : xtb data2507/toluene/PhQLPXZ/PhQLPXZ.xyz --gfn 2 --gbsa toluene --ohess vtight --parallel 40 --molden --ceasefiles --namespace data2507/toluene/PhQLPXZ/PhQLPXZ_toluene_S0_preOpt
      * Solvation model:               GBSA
        Solvent                        toluene
        Solvent mass                       9.2140E+01 g/mol
          :  Hamiltonian                  GFN2-xTB          :
 * total energy  :   -91.8374192 Eh     change       -0.1307612E-08 Eh
 * total energy  :   -91.8468993 Eh     change       -0.9480080E-02 Eh
 * total energy  :   -91.8498318 Eh     change       -0.2932489E-02 Eh
 * total energy  :   -91.8505676 Eh     change       -0.7358332E-03 Eh
 * total energy  :   -91.8509644 Eh     change       -0.3968111E-03 Eh
 * total energy  :   -91.8510326 Eh     change       -0.6816448E-04 Eh
 * total energy  :   -91.8510551 Eh     change       -0.2253475E-04 Eh
 * total energy  :   -91.8510660 Eh     change       -0.1084969E-04 Eh
 * total energy  :   -91.8510745 Eh     change       -0.8505569E-05 Eh
 * total energy  :   -91.8510907 Eh     change       -0.1617163E-04 Eh
 * total energy  :   -91.8531479 Eh     change       -0.8705039E-06 Eh
 * total energy  :   -91.8531482 Eh     change       -0.2377879E-06 Eh
 * total energy  :   -91.8531487 Eh     change       -0.5350536E-06 Eh
 * total energy  :   -91.8531491 Eh     change       -0.3659663E-06 Eh
 * total energy  :   -91.8531496 Eh     change       -0.5221709E-06 Eh
 * total energy  :   -91.8531505 Eh     change       -0.8438427E-06 Eh
 * total energy  :   -91.8531510 Eh     change       -0.5354208E-06 Eh
 * total energy  :   -91.8531512 Eh     change       -0.1953200E-06 Eh
 * total energy  :   -91.8531512 Eh     change       -0.4337075E-07 Eh
   *** GEOMETRY OPTIMIZATION CONVERGED AFTER 101 ITERATIONS ***

 final structure:
================
58
 xtb: 6.7.1 (edcfbbe)
C            7.66952523356193        1.61704362723200        0.09647923626152
C            7.27027140229188        0.33561227583786        0.43915294960203
C            5.92886287924186       -0.00142688777929        0.43855393492899
C            4.96508576912093        0.94501188942296        0.09544944333413
C            3.53040503838290        0.62533823423448        0.08211239760604
C            3.07250408870418       -0.68718468973063       -0.17165341404341
C            1.72705025253742       -0.96495933964479       -0.16910406082252
C            1.25905797136469       -2.34556338768417       -0.38218158888318
C            1.66888170054137       -3.05817781038555       -1.50559361479937
C            1.24748726336516       -4.36132710817520       -1.69948452454122
C            0.42165784705445       -4.97163980159340       -0.76953052229666
C            0.02061954767737       -4.27390710833783        0.35815756197611
C            0.43445167415894       -2.96838500285721        0.55159255602108
C            0.81886905881993        0.10759347172294        0.05190242541294
C           -0.57938982427773       -0.02905431512466       -0.00303301071796
C           -1.39656169120878        1.05167647387656        0.22407349395823
N           -2.80285375537712        0.89864638023771        0.18936082437841
C           -3.45293657877623        0.09781962084124        1.12954572220720
C           -2.77610930317578       -0.52127263639564        2.17320119424701
C           -3.45163083508007       -1.31163378972237        3.09091154827466
C           -4.81660428127765       -1.48810229252911        2.98841282912126
C           -5.51267789592327       -0.85309392954134        1.96927478329669
C           -4.84326889978745       -0.06268277057543        1.05391928948411
O           -5.60634441307500        0.55763804524746        0.09084939291436
C           -4.94889273951249        1.34906589771937       -0.82397115535620
C           -5.72207931192365        1.96095879101753       -1.79247349098644
C           -5.12829282841591        2.75398275876521       -2.76478434076272
C           -3.75743805729075        2.91346806247519       -2.76785445945815
C           -2.97742379630993        2.30084885623013       -1.79820966972885
C           -3.55879155997364        1.52673661312056       -0.80140739711793
C           -0.84247679782564        2.31824172414357        0.50181116612467
C            0.51157778766019        2.48618482358816        0.52610817911455
C            1.37763951461089        1.39415643522190        0.29296218312289
N            2.70139245385610        1.62125762651086        0.30929495480685
C            5.37652838464734        2.23663836475854       -0.23316609230477
C            6.71753769356718        2.56821035688775       -0.23591127993276
H            8.71858037721364        1.87461018299987        0.09381067437604
H            8.00802216826949       -0.40541766763111        0.71153406634355
H            5.63315900675531       -0.99806809132195        0.73168732202218
H            3.78120168109009       -1.47803392600789       -0.36305539363109
H            2.30616222333518       -2.57842662492605       -2.23492058803603
H            1.56504727668073       -4.90246419281532       -2.57898901127300
H            0.09482350558701       -5.98988432404069       -0.92102823305868
H           -0.61700466819167       -4.74718016374364        1.09068086182093
H            0.13657222397957       -2.43311010804238        1.44169861890884
H           -1.01398862006430       -0.99111999270890       -0.23181011020240
H           -1.71178481781189       -0.37653702156388        2.27232876042924
H           -2.89837539496604       -1.78351567293338        3.88865215277702
H           -5.34785389950360       -2.10512337017454        3.69589206117219
H           -6.58222119402575       -0.95464812767953        1.87079200050805
H           -6.78882534569736        1.80105043203749       -1.77153897462034
H           -5.74048506425843        3.22965206323454       -3.51475786243754
H           -3.27903199854952        3.51379224305076       -3.52650620123430
H           -1.90570667407622        2.42197287225367       -1.81903316517357
H           -1.50752362730651        3.14831576504963        0.69010763695948
H            0.95637114862571        3.44877417880907        0.72469343808479
H            4.62363270638513        2.96708032554979       -0.48674008777798
H            7.02360199458439        3.57055976158232       -0.49826441042317

          :  Hamiltonian                  GFN2-xTB          :
         :: gradient norm              0.000115651969 Eh/a0 ::
         :: HOMO-LUMO gap              1.585360480073 eV    ::
         :: SCC energy               -93.521042960322 Eh    ::
         :: -> dispersion             -0.077264353867 Eh    ::
         :: -> Gsolv                  -0.038180938166 Eh    ::
         :: repulsion energy           1.667891734165 Eh    ::

    * Orbital Energies and Occupations

         #    Occupation            Energy/Eh            Energy/eV
      -------------------------------------------------------------
         1        2.0000           -0.7296768             -19.8555
       ...           ...                  ...                  ...
        73        2.0000           -0.4250465             -11.5661
        74        2.0000           -0.4240837             -11.5399
        75        2.0000           -0.4199767             -11.4281
        76        2.0000           -0.4162853             -11.3277
        77        2.0000           -0.4136261             -11.2553
        78        2.0000           -0.4114702             -11.1967
        79        2.0000           -0.4103012             -11.1649
        80        2.0000           -0.4069883             -11.0747
        81        2.0000           -0.3981038             -10.8330
        82        2.0000           -0.3935204             -10.7082
        83        2.0000           -0.3892920             -10.5932
        84        2.0000           -0.3687024             -10.0329
        85        2.0000           -0.3435634              -9.3488 (HOMO)
        86                         -0.2853025              -7.7635 (LUMO)
        87                         -0.2544903              -6.9250
        88                         -0.2389117              -6.5011
        89                         -0.2332016              -6.3457
        90                         -0.2303304              -6.2676
        91                         -0.2297160              -6.2509
        92                         -0.2247077              -6.1146
        93                         -0.2237944              -6.0898
        94                         -0.2138955              -5.8204
        95                         -0.1976612              -5.3786
        96                         -0.1961896              -5.3386
       ...                                ...                  ...
       166                          0.6941194              18.8880
      -------------------------------------------------------------
                  HL-Gap            0.0582609 Eh            1.5854 eV

     #   Z          covCN         q      C6AA      α(0)
     1   6 C        2.920    -0.028    28.698     8.785
     2   6 C        2.918    -0.030    28.743     8.792
     3   6 C        2.923    -0.033    28.826     8.805
     4   6 C        2.980     0.003    27.945     8.671
     5   6 C        2.949     0.099    25.812     8.333
     6   6 C        2.920    -0.054    29.351     8.884
     7   6 C        2.977     0.019    27.574     8.613
     8   6 C        2.978     0.009    27.811     8.650
     9   6 C        2.924    -0.032    28.806     8.802
    10   6 C        2.918    -0.029    28.713     8.787
    11   6 C        2.920    -0.029    28.732     8.790
    12   6 C        2.918    -0.029    28.728     8.789
    13   6 C        2.924    -0.031    28.778     8.797
    14   6 C        2.985    -0.006    28.171     8.706
    15   6 C        2.919    -0.048    29.184     8.859
    16   6 C        2.917     0.063    26.582     8.455
    17   7 N        2.752    -0.076    22.715     7.079
    18   6 C        2.922     0.043    27.028     8.525
    19   6 C        2.924    -0.060    29.504     8.908
    20   6 C        2.919    -0.039    28.977     8.827
    21   6 C        2.919    -0.042    29.042     8.837
    22   6 C        2.919    -0.058    29.451     8.899
    23   6 C        2.882     0.122    25.323     8.250
    24   8 O        1.708    -0.274    18.548     5.815
    25   6 C        2.882     0.122    25.328     8.251
    26   6 C        2.919    -0.058    29.453     8.900
    27   6 C        2.919    -0.042    29.038     8.837
    28   6 C        2.919    -0.039    28.977     8.827
    29   6 C        2.924    -0.061    29.514     8.909
    30   6 C        2.922     0.044    27.024     8.525
    31   6 C        2.917    -0.039    28.960     8.825
    32   6 C        2.921    -0.041    29.014     8.833
    33   6 C        2.962     0.088    26.031     8.369
    34   7 N        1.851    -0.267    27.794     7.814
    35   6 C        2.926    -0.027    28.666     8.780
    36   6 C        2.918    -0.028    28.708     8.786
    37   1 H        0.926     0.037     2.485     2.465
    38   1 H        0.926     0.036     2.500     2.473
    39   1 H        0.926     0.035     2.521     2.483
    40   1 H        0.926     0.040     2.452     2.449
    41   1 H        0.926     0.034     2.535     2.490
    42   1 H        0.926     0.036     2.499     2.472
    43   1 H        0.926     0.036     2.505     2.475
    44   1 H        0.926     0.036     2.503     2.474
    45   1 H        0.926     0.033     2.537     2.491
    46   1 H        0.926     0.045     2.378     2.412
    47   1 H        0.926     0.035     2.515     2.480
    48   1 H        0.926     0.040     2.448     2.447
    49   1 H        0.926     0.041     2.431     2.438
    50   1 H        0.926     0.047     2.361     2.403
    51   1 H        0.926     0.047     2.360     2.402
    52   1 H        0.926     0.041     2.430     2.438
    53   1 H        0.926     0.041     2.440     2.443
    54   1 H        0.926     0.038     2.479     2.462
    55   1 H        0.926     0.048     2.343     2.394
    56   1 H        0.926     0.057     2.232     2.336
    57   1 H        0.926     0.048     2.339     2.392
    58   1 H        0.926     0.038     2.477     2.461

molecular dipole:
                 x           y           z       tot (Debye)
 q only:        0.971      -0.390      -0.126
   full:        0.858      -0.744      -0.182       2.924

 projected vibrational frequencies (cm⁻¹)
eigval :       -0.00    -0.00    -0.00     0.00     0.00     0.00
eigval :       14.61    21.31    22.14    39.41    40.57    51.28
eigval :       56.61    63.28    78.16    86.05   111.10   137.56
eigval :      144.07   172.15   173.78   218.11   234.01   247.41
eigval :      250.41   260.38   265.53   275.07   314.45   335.52
eigval :      360.69   370.37   375.53   394.80   396.37   417.25
eigval :      424.34   426.97   436.84   446.37   472.00   509.59
eigval :      509.99   516.31   526.16   548.33   557.10   562.11
eigval :      582.49   586.42   589.46   594.83   619.30   630.99
eigval :      653.47   658.51   660.37   661.06   674.50   675.84
eigval :      681.30   739.41   756.80   763.91   770.74   776.32
eigval :      780.33   803.85   827.70   850.81   851.84   861.32
eigval :      863.76   865.41   869.57   874.07   880.81   890.03
eigval :      893.99   897.84   904.10   911.36   912.36   916.10
eigval :      917.71   926.62   927.06   931.90   932.61   934.19
eigval :      938.38   983.52   986.81  1007.03  1081.00  1082.74
eigval :     1088.17  1089.40  1099.71  1105.32  1111.60  1119.50
eigval :     1121.17  1137.11  1154.17  1171.99  1173.42  1178.62
eigval :     1181.50  1181.94  1195.92  1196.69  1197.25  1208.06
eigval :     1227.73  1232.92  1241.21  1258.83  1267.29  1277.25
eigval :     1282.17  1290.02  1304.73  1313.35  1320.29  1328.18
eigval :     1337.17  1348.66  1353.08  1373.25  1396.10  1421.41
eigval :     1426.78  1429.70  1439.65  1446.93  1473.00  1476.04
eigval :     1481.46  1488.00  1502.78  1528.17  1555.57  1565.44
eigval :     1579.12  1579.49  1580.94  1587.02  1595.65  1595.86
eigval :     1597.90  1603.34  3069.46  3070.10  3072.56  3073.60
eigval :     3077.94  3080.79  3083.04  3084.51  3085.36  3086.19
eigval :     3086.49  3088.60  3091.97  3093.07  3094.19  3094.32
eigval :     3099.96  3101.43  3102.21  3103.57  3107.05  3107.88

   temp. (K)  partition function   enthalpy   heat capacity  entropy
                                   cal/mol     cal/K/mol   cal/K/mol   J/K/mol
 298.15  VIB  0.643E+12            15762.868    102.434     96.713
         ROT  0.355E+08              888.752      2.981     37.531
         INT  0.228E+20            16651.621    105.414    134.244
         TR   0.962E+28             1481.254      4.968     44.263
         TOT                       18132.8747   110.3826   178.5071   746.8737

       T/K    H(0)-H(T)+PV         H(T)/Eh          T*S/Eh         G(T)/Eh
   ------------------------------------------------------------------------
    298.15    0.288966E-01    0.470900E+00    0.848145E-01    0.386085E+00
   ------------------------------------------------------------------------

         :::::::::::::::::::::::::::::::::::::::::::::::::::::
         ::                  THERMODYNAMIC                  ::
         :::::::::::::::::::::::::::::::::::::::::::::::::::::
         :: total free energy         -91.467065918944 Eh   ::
         ::.................................................::
         :: total energy              -91.853151218993 Eh   ::
         :: zero point energy           0.442003202776 Eh   ::
         :: G(RRHO) w/o ZPVE           -0.055917902727 Eh   ::
         :: G(RRHO) contrib.            0.386085300049 Eh   ::
         :::::::::::::::::::::::::::::::::::::::::::::::::::::

           -------------------------------------------------
          | TOTAL ENERGY              -91.853151218993 Eh   |
          | TOTAL ENTHALPY            -91.382251441047 Eh   |
          | TOTAL FREE ENERGY         -91.467065918944 Eh   |
          | GRADIENT NORM               0.000115627408 Eh/α |
          | HOMO-LUMO GAP               1.585360783537 eV   |
           -------------------------------------------------

 * finished run on 2025/07/18 at 16:35:29.941
