   * xtb version 6.7.1 (edcfbbe) compiled by 'albert@albert-system' on 2024-07-22

   ID    Z sym.   atoms
    1    6 C      1-16, 18-23, 25-33, 35, 36
    2    7 N      17, 34
    3    8 O      24
    4    1 H      37-58

          program call               : xtb data2507/toluene/PhQLPXZ/PhQLPXZ_toluene_T1_crest.xyz --gfn 2 --uhf 2 --gbsa toluene --ohess vtight --parallel 40 --molden --ceasefiles --namespace data2507/toluene/PhQLPXZ/PhQLPXZ_toluene_T1_finalOpt
      * Solvation model:               GBSA
        Solvent                        toluene
        Solvent mass                       9.2140E+01 g/mol
          :  Hamiltonian                  GFN2-xTB          :
 * total energy  :   -91.7789275 Eh     change       -0.3764740E-09 Eh
 * total energy  :   -91.7789863 Eh     change       -0.5876076E-04 Eh
 * total energy  :   -91.7790150 Eh     change       -0.2872695E-04 Eh
 * total energy  :   -91.7790230 Eh     change       -0.7951993E-05 Eh
 * total energy  :   -91.7790314 Eh     change       -0.8412379E-05 Eh
 * total energy  :   -91.7790396 Eh     change       -0.8177616E-05 Eh
 * total energy  :   -91.7790468 Eh     change       -0.7204165E-05 Eh
 * total energy  :   -91.7790510 Eh     change       -0.4251435E-05 Eh
 * total energy  :   -91.7790542 Eh     change       -0.3217815E-05 Eh
 * total energy  :   -91.7790582 Eh     change       -0.3981272E-05 Eh
 * total energy  :   -91.7790711 Eh     change       -0.1446612E-05 Eh
 * total energy  :   -91.7790721 Eh     change       -0.1054256E-05 Eh
 * total energy  :   -91.7790730 Eh     change       -0.9070729E-06 Eh
 * total energy  :   -91.7790736 Eh     change       -0.5352998E-06 Eh
 * total energy  :   -91.7790739 Eh     change       -0.3068011E-06 Eh
 * total energy  :   -91.7790742 Eh     change       -0.2934790E-06 Eh
 * total energy  :   -91.7790744 Eh     change       -0.2517734E-06 Eh
 * total energy  :   -91.7790746 Eh     change       -0.2150826E-06 Eh
 * total energy  :   -91.7790746 Eh     change       -0.5124818E-08 Eh
   *** GEOMETRY OPTIMIZATION CONVERGED AFTER 22 ITERATIONS ***

 final structure:
================
58
 xtb: 6.7.1 (edcfbbe)
C            7.80240974331931       -1.72582907537549       -0.41716356986813
C            7.48775790642901       -0.45787917892991        0.05038180301045
C            6.17329271756332       -0.05284628007116        0.15573435522860
C            5.12505721699231       -0.91329824597582       -0.19945382507595
C            3.72565556106486       -0.55146642251463       -0.09831398963354
C            3.26517030785291        0.65910778283152        0.40998143157472
C            1.91489366321527        0.99449485316133        0.38713376834828
C            1.49973986915108        2.34349926400550        0.75044876076898
C            0.55555583144211        3.04845387229875       -0.00507500217747
C            0.17935820981071        4.32958268703525        0.34435800138598
C            0.73795479622747        4.94606569557951        1.45413198550521
C            1.68766813790222        4.26765736564683        2.20360170880346
C            2.06910332661325        2.98770487654628        1.85586695285561
C            0.97713734764619        0.00533193945512       -0.06602159036087
C           -0.39822629677629        0.12708098787000        0.03403517531044
C           -1.26024594562081       -0.89574598855674       -0.41095452144334
N           -2.65262546258138       -0.72744160949982       -0.29125040879291
C           -3.27665778679222        0.35095285505983       -0.90384138189151
C           -2.58977146998917        1.22653477571048       -1.74626795163276
C           -3.23705083957249        2.30021157807013       -2.32726878322007
C           -4.58752784392300        2.51513217853674       -2.09914630551856
C           -5.29921713148484        1.63112967704126       -1.30680388828749
C           -4.65675141197708        0.55178391559615       -0.72024615623523
O           -5.42114998218338       -0.30577393900328        0.01594889173568
C           -4.80563829423622       -1.38640010052977        0.57925881345464
C           -5.60234875058336       -2.25452131852319        1.31006683865637
C           -5.03795610219743       -3.34576128240168        1.94649810942024
C           -3.66893927918182       -3.55220897045940        1.86990681224874
C           -2.86830515301488       -2.69453395197367        1.13992673106182
C           -3.42170772212384       -1.61037233212196        0.45718695459727
C           -0.72503807811269       -2.06214417358262       -0.94828940653978
C            0.64002458858983       -2.23157001351045       -1.01077516275657
C            1.53003550599534       -1.23396695219903       -0.54433325000617
N            2.82642048273954       -1.47213056448062       -0.53002783162141
C            5.46318285559102       -2.19092664676540       -0.67524276023250
C            6.77777382560263       -2.58845603706964       -0.78114730944326
H            8.83389227139188       -2.03606267866663       -0.49819540680493
H            8.27977651526888        0.22255158866020        0.33160802440443
H            5.96398986680656        0.94470574997373        0.51240243124438
H            3.97526961300425        1.39239065255657        0.75863206295494
H            0.14717188811410        2.59525150716966       -0.89609647784207
H           -0.54778788368713        4.85677749396729       -0.25721090059908
H            0.44179712147827        5.94796456177156        1.72853266647955
H            2.13069956137735        4.74073290779513        3.06902031383477
H            2.79410431518425        2.46069746663649        2.46009514245960
H           -0.82501100314512        0.98485487189584        0.53273267115769
H           -1.54632480958657        1.04925617668916       -1.94931451211375
H           -2.68296560818265        2.96639379011277       -2.96993546176485
H           -5.09130869576042        3.35454759875060       -2.55109322365859
H           -6.35660518598427        1.75216817734821       -1.13375785752437
H           -6.65906702468514       -2.04861906652904        1.37005070121718
H           -5.66239019217987       -4.01988277585745        2.51061761300417
H           -3.21601593248373       -4.38441728908738        2.38556257707270
H           -1.80298980794613       -2.85403475890664        1.10264088759196
H           -1.38530048010238       -2.82713009195295       -1.32999355637938
H            1.06474161586687       -3.12096715753165       -1.44799436802701
H            4.65960004859127       -2.85823563836821       -0.94866282415424
H            7.01167605476290       -3.57843726242850       -1.14768312438174

          :  Hamiltonian                  GFN2-xTB          :
         :: gradient norm              0.000052397622 Eh/a0 ::
         :: HOMO-LUMO gap              0.544286977545 eV    ::
         :: SCC energy               -93.435675030052 Eh    ::
         :: -> dispersion             -0.078033783522 Eh    ::
         :: -> Gsolv                  -0.040423945415 Eh    ::
         :: repulsion energy           1.656600404792 Eh    ::

    * Orbital Energies and Occupations

         #    Occupation            Energy/Eh            Energy/eV
      -------------------------------------------------------------
         1        2.0000           -0.7548422             -20.5403
       ...           ...                  ...                  ...
        74        2.0000           -0.4180183             -11.3749
        75        2.0000           -0.4159815             -11.3194
        76        2.0000           -0.4147465             -11.2858
        77        2.0000           -0.4114937             -11.1973
        78        2.0000           -0.4075838             -11.0909
        79        2.0000           -0.4007959             -10.9062
        80        2.0000           -0.3987214             -10.8498
        81        2.0000           -0.3959088             -10.7732
        82        2.0000           -0.3818991             -10.3920
        83        2.0000           -0.3747530             -10.1975
        84        1.9748           -0.3616994              -9.8423
        85        1.0252           -0.3547518              -9.6533
        86        1.0000           -0.2786427              -7.5823 (HOMO)
        87        0.0000           -0.2586407              -7.0380 (LUMO)
        88                         -0.2465021              -6.7077
        89                         -0.2427643              -6.6060
        90                         -0.2331897              -6.3454
        91                         -0.2227762              -6.0620
        92                         -0.2183287              -5.9410
        93                         -0.2174838              -5.9180
        94                         -0.2123283              -5.7777
        95                         -0.2048969              -5.5755
        96                         -0.1784275              -4.8553
        97                         -0.1427799              -3.8852
       ...                                ...                  ...
       166                          0.7137998              19.4235
      -------------------------------------------------------------
                  HL-Gap            0.0200020 Eh            0.5443 eV

     #   Z          covCN         q      C6AA      α(0)
     1   6 C        2.919    -0.039    28.969     8.826
     2   6 C        2.917    -0.034    28.840     8.806
     3   6 C        2.921    -0.042    29.037     8.837
     4   6 C        2.975    -0.001    28.038     8.686
     5   6 C        2.925     0.069    26.447     8.434
     6   6 C        2.918    -0.053    29.326     8.880
     7   6 C        2.972    -0.017    28.438     8.747
     8   6 C        2.974     0.007    27.870     8.660
     9   6 C        2.924    -0.040    28.991     8.830
    10   6 C        2.917    -0.034    28.839     8.806
    11   6 C        2.919    -0.039    28.965     8.826
    12   6 C        2.917    -0.032    28.809     8.802
    13   6 C        2.924    -0.039    28.980     8.828
    14   6 C        2.977    -0.004    28.126     8.699
    15   6 C        2.917    -0.062    29.531     8.911
    16   6 C        2.919     0.036    27.192     8.551
    17   7 N        2.751    -0.016    21.561     6.896
    18   6 C        2.926     0.045    26.987     8.519
    19   6 C        2.921    -0.047    29.177     8.858
    20   6 C        2.918    -0.030    28.749     8.793
    21   6 C        2.919    -0.029    28.715     8.787
    22   6 C        2.917    -0.052    29.295     8.876
    23   6 C        2.886     0.131    25.131     8.219
    24   8 O        1.710    -0.229    17.789     5.695
    25   6 C        2.886     0.131    25.139     8.220
    26   6 C        2.917    -0.052    29.281     8.873
    27   6 C        2.919    -0.029    28.721     8.788
    28   6 C        2.918    -0.030    28.749     8.793
    29   6 C        2.921    -0.049    29.222     8.865
    30   6 C        2.924     0.045    27.000     8.521
    31   6 C        2.912    -0.047    29.170     8.856
    32   6 C        2.922    -0.065    29.623     8.925
    33   6 C        2.934     0.096    25.860     8.340
    34   7 N        1.853    -0.263    27.684     7.798
    35   6 C        2.927    -0.035    28.880     8.813
    36   6 C        2.916    -0.033    28.827     8.804
    37   1 H        0.926     0.025     2.664     2.552
    38   1 H        0.925     0.024     2.670     2.555
    39   1 H        0.926     0.022     2.696     2.568
    40   1 H        0.926     0.027     2.628     2.535
    41   1 H        0.926     0.028     2.621     2.532
    42   1 H        0.926     0.027     2.629     2.536
    43   1 H        0.926     0.025     2.659     2.550
    44   1 H        0.925     0.025     2.661     2.551
    45   1 H        0.926     0.023     2.688     2.564
    46   1 H        0.926     0.039     2.466     2.456
    47   1 H        0.926     0.056     2.252     2.347
    48   1 H        0.926     0.056     2.250     2.346
    49   1 H        0.926     0.059     2.212     2.326
    50   1 H        0.926     0.065     2.146     2.291
    51   1 H        0.926     0.065     2.143     2.289
    52   1 H        0.926     0.059     2.208     2.324
    53   1 H        0.926     0.057     2.236     2.338
    54   1 H        0.926     0.058     2.223     2.331
    55   1 H        0.926     0.038     2.474     2.460
    56   1 H        0.926     0.039     2.459     2.452
    57   1 H        0.926     0.040     2.443     2.444
    58   1 H        0.925     0.026     2.641     2.542

molecular dipole:
                 x           y           z       tot (Debye)
 q only:       -3.466      -0.191      -0.076
   full:       -3.442       0.079       0.012       8.750

 projected vibrational frequencies (cm⁻¹)
eigval :       -0.00    -0.00    -0.00    -0.00     0.00     0.00
eigval :       15.38    18.42    24.80    28.30    48.42    52.95
eigval :       63.78    68.92    84.32    91.48   116.98   133.92
eigval :      148.17   175.77   183.74   210.84   236.99   240.99
eigval :      245.22   261.19   269.55   285.11   327.78   345.67
eigval :      357.64   368.01   373.34   387.03   398.88   402.15
eigval :      424.30   434.53   436.39   444.02   469.53   495.11
eigval :      498.94   512.29   536.52   543.87   546.34   552.06
eigval :      571.07   574.34   581.90   588.30   590.72   616.52
eigval :      618.48   645.96   650.92   663.17   667.62   673.70
eigval :      676.24   695.33   744.86   747.78   764.36   775.63
eigval :      778.57   785.47   804.62   812.17   816.76   827.61
eigval :      848.26   849.79   856.69   864.97   866.77   871.23
eigval :      879.19   883.84   892.34   903.76   906.59   912.06
eigval :      916.20   918.56   919.71   920.19   920.29   920.80
eigval :      931.50   974.37   976.10   998.03  1077.85  1079.70
eigval :     1083.44  1084.41  1085.93  1113.29  1114.27  1116.31
eigval :     1121.06  1126.35  1145.37  1167.79  1171.71  1176.04
eigval :     1177.72  1182.84  1193.59  1197.93  1206.18  1209.43
eigval :     1222.87  1229.88  1236.43  1251.35  1271.77  1279.63
eigval :     1283.41  1293.00  1299.89  1310.90  1317.57  1320.98
eigval :     1327.34  1333.33  1343.74  1355.80  1380.46  1387.87
eigval :     1403.32  1413.49  1427.29  1431.20  1435.30  1437.59
eigval :     1457.09  1464.43  1467.40  1472.23  1475.88  1512.27
eigval :     1551.40  1551.45  1553.34  1559.48  1567.90  1581.16
eigval :     1581.58  1584.62  3059.71  3060.40  3062.13  3063.79
eigval :     3071.66  3075.78  3076.10  3078.35  3080.18  3082.42
eigval :     3087.96  3089.35  3091.31  3096.02  3096.82  3102.15
eigval :     3104.61  3104.82  3113.57  3113.92  3116.70  3117.33

   temp. (K)  partition function   enthalpy   heat capacity  entropy
                                   cal/mol     cal/K/mol   cal/K/mol   J/K/mol
 298.15  VIB  0.543E+12            15866.857    104.001     96.871
         ROT  0.356E+08              888.752      2.981     37.537
         INT  0.194E+20            16755.609    106.982    134.408
         TR   0.962E+28             1481.254      4.968     44.263
         TOT                       18236.8630   111.9502   178.6712   747.5603

       T/K    H(0)-H(T)+PV         H(T)/Eh          T*S/Eh         G(T)/Eh
   ------------------------------------------------------------------------
    298.15    0.290623E-01    0.467869E+00    0.848925E-01    0.382977E+00
   ------------------------------------------------------------------------

         :::::::::::::::::::::::::::::::::::::::::::::::::::::
         ::                  THERMODYNAMIC                  ::
         :::::::::::::::::::::::::::::::::::::::::::::::::::::
         :: total free energy         -91.396097859690 Eh   ::
         ::.................................................::
         :: total energy              -91.779074629495 Eh   ::
         :: zero point energy           0.438806931060 Eh   ::
         :: G(RRHO) w/o ZPVE           -0.055830161255 Eh   ::
         :: G(RRHO) contrib.            0.382976769805 Eh   ::
         :::::::::::::::::::::::::::::::::::::::::::::::::::::

           -------------------------------------------------
          | TOTAL ENERGY              -91.779074629495 Eh   |
          | TOTAL ENTHALPY            -91.311205407299 Eh   |
          | TOTAL FREE ENERGY         -91.396097859690 Eh   |
          | GRADIENT NORM               0.000052043208 Eh/α |
          | HOMO-LUMO GAP               0.544281487338 eV   |
           -------------------------------------------------

 * finished run on 2025/07/18 at 16:40:43.343
