   * xtb version 6.7.1 (edcfbbe) compiled by 'albert@albert-system' on 2024-07-22

   ID    Z sym.   atoms
    1    6 C      1-16, 18-23, 25-33, 35, 36
    2    7 N      17, 34
    3    8 O      24
    4    1 H      37-58

          program call               : xtb data2507/toluene/PhQLPXZ/PhQLPXZ_toluene_S0_crest.xyz --gfn 2 --gbsa toluene --ohess vtight --parallel 40 --molden --ceasefiles --namespace data2507/toluene/PhQLPXZ/PhQLPXZ_toluene_S0_finalOpt
      * Solvation model:               GBSA
        Solvent                        toluene
        Solvent mass                       9.2140E+01 g/mol
          :  Hamiltonian                  GFN2-xTB          :
 * total energy  :   -91.8530885 Eh     change       -0.4414161E-08 Eh
 * total energy  :   -91.8531215 Eh     change       -0.3300564E-04 Eh
 * total energy  :   -91.8531340 Eh     change       -0.1252343E-04 Eh
 * total energy  :   -91.8531392 Eh     change       -0.5235423E-05 Eh
 * total energy  :   -91.8531460 Eh     change       -0.6796954E-05 Eh
 * total energy  :   -91.8531540 Eh     change       -0.7939838E-05 Eh
 * total energy  :   -91.8531624 Eh     change       -0.8380671E-05 Eh
 * total energy  :   -91.8531690 Eh     change       -0.6689252E-05 Eh
 * total energy  :   -91.8531733 Eh     change       -0.4263727E-05 Eh
 * total energy  :   -91.8531763 Eh     change       -0.3039849E-05 Eh
 * total energy  :   -91.8532227 Eh     change       -0.2138307E-05 Eh
 * total energy  :   -91.8532236 Eh     change       -0.8344889E-06 Eh
 * total energy  :   -91.8532239 Eh     change       -0.3289105E-06 Eh
 * total energy  :   -91.8532242 Eh     change       -0.3412126E-06 Eh
 * total energy  :   -91.8532246 Eh     change       -0.3414811E-06 Eh
 * total energy  :   -91.8532248 Eh     change       -0.2504460E-06 Eh
 * total energy  :   -91.8532250 Eh     change       -0.1803904E-06 Eh
 * total energy  :   -91.8532251 Eh     change       -0.1196361E-06 Eh
 * total energy  :   -91.8532252 Eh     change       -0.6877669E-07 Eh
   *** GEOMETRY OPTIMIZATION CONVERGED AFTER 31 ITERATIONS ***

 final structure:
================
58
 xtb: 6.7.1 (edcfbbe)
C            7.81305065241493       -1.61404485916245       -0.48385161139800
C            7.40091450267173       -0.70733791475905        0.47896051212647
C            6.06677469917041       -0.35780325659474        0.58247968024848
C            5.12338345370393       -0.91519917020361       -0.27871170092280
C            3.69716932708724       -0.56995691136780       -0.19507412013947
C            3.27282777800940        0.68801956808913        0.28971856345558
C            1.93427129613184        0.99080323137676        0.35269711573080
C            1.49750098062396        2.32270450536127        0.80546867989024
C            1.93376642290419        2.82178707972932        2.02957511696148
C            1.53730998812597        4.07676654188793        2.45518941293403
C            0.70934726258168        4.85194390952991        1.65965061511719
C            0.28240073498385        4.36847976428678        0.43352529257662
C            0.67128762446751        3.11113307320425        0.00834152090574
C            0.99938420330527       -0.00605013836465       -0.04287247000640
C           -0.39443590976906        0.14360374899476        0.06502661631832
C           -1.23893599102036       -0.85251406196877       -0.36184288198686
N           -2.64079001492136       -0.68755361697891       -0.26889745968882
C           -3.29318324042743        0.30322173176961       -1.00480630471351
C           -2.61996552245965        1.14337939596228       -1.88320750637187
C           -3.29892944876557        2.11655598271722       -2.60085754727958
C           -4.66443558434507        2.26065952865152       -2.46179035666750
C           -5.35693409614965        1.41164777267417       -1.60989208072497
C           -4.68384728941494        0.43949360086444       -0.89383068642902
O           -5.44503703191833       -0.38209373259305       -0.09365270781037
C           -4.78374316434339       -1.34752113022754        0.63146902810313
C           -5.55311093516594       -2.15342846736143        1.44933374875475
C           -4.95492085663290       -3.13137840017633        2.23191737504412
C           -3.58342986605380       -3.28237036715208        2.20002232242501
C           -2.80747491226599       -2.47589513024439        1.38072212127779
C           -3.39340878915393       -1.51231844002591        0.56874252525202
C           -0.71656508290353       -2.04555779239621       -0.90308490325745
C            0.63281460698667       -2.23226788852848       -0.98320203875655
C            1.52626532175505       -1.22854308841882       -0.54586642061561
N            2.84405662903438       -1.47700157967227       -0.61960551008761
C            5.54653414733788       -1.83854315750602       -1.23470176520623
C            6.88068635781259       -2.18139422496090       -1.33845877434223
H            8.85656723438308       -1.88138807475973       -0.56416167816332
H            8.12259941436233       -0.27198189734919        1.15516592728849
H            5.75812515288796        0.33280875573129        1.35342277517170
H            4.00283849886207        1.43413318577263        0.56356409086892
H            2.57128262398831        2.21209689762390        2.65410375824113
H            1.87544662857057        4.45098103462431        3.41063942064407
H            0.40051994155412        5.83192196210690        1.99268709532725
H           -0.35682376498031        4.97160248529920       -0.19475418322389
H            0.35170137269409        2.74378132315982       -0.95621047007035
H           -0.80307486403360        1.04692114515079        0.49380783664470
H           -1.55565732019467        1.02796328113213       -2.01382185347461
H           -2.74789567531859        2.75706714271518       -3.27261943803802
H           -5.19858115670192        3.01770880152493       -3.01405135708969
H           -6.42674505964406        1.48439276954560       -1.49092910829827
H           -6.62046971849982       -1.99703746188477        1.46333294550900
H           -5.56428025748388       -3.75785473982552        2.86413942942247
H           -3.10117146177989       -4.02688978828079        2.81483681355906
H           -1.73526218502219       -2.59447821249258        1.37530072638023
H           -1.40226125544144       -2.80718852138450       -1.24449183558377
H            1.05299252338635       -3.14399156128467       -1.37821385813582
H            4.80856927249264       -2.27360026562179       -1.89098841898087
H            7.19680899062157       -2.89327156133914       -2.08714592881515

          :  Hamiltonian                  GFN2-xTB          :
         :: gradient norm              0.000049200571 Eh/a0 ::
         :: HOMO-LUMO gap              1.590724678990 eV    ::
         :: SCC energy               -93.521125138792 Eh    ::
         :: -> dispersion             -0.077434682576 Eh    ::
         :: -> Gsolv                  -0.038134651070 Eh    ::
         :: repulsion energy           1.667899931062 Eh    ::

    * Orbital Energies and Occupations

         #    Occupation            Energy/Eh            Energy/eV
      -------------------------------------------------------------
         1        2.0000           -0.7297647             -19.8579
       ...           ...                  ...                  ...
        73        2.0000           -0.4258579             -11.5882
        74        2.0000           -0.4225282             -11.4976
        75        2.0000           -0.4203334             -11.4379
        76        2.0000           -0.4163485             -11.3294
        77        2.0000           -0.4136496             -11.2560
        78        2.0000           -0.4114806             -11.1970
        79        2.0000           -0.4101049             -11.1595
        80        2.0000           -0.4069253             -11.0730
        81        2.0000           -0.3983003             -10.8383
        82        2.0000           -0.3933940             -10.7048
        83        2.0000           -0.3890540             -10.5867
        84        2.0000           -0.3688061             -10.0357
        85        2.0000           -0.3436724              -9.3518 (HOMO)
        86                         -0.2852142              -7.7611 (LUMO)
        87                         -0.2546426              -6.9292
        88                         -0.2389931              -6.5033
        89                         -0.2334241              -6.3518
        90                         -0.2303874              -6.2692
        91                         -0.2297241              -6.2511
        92                         -0.2246601              -6.1133
        93                         -0.2238766              -6.0920
        94                         -0.2138043              -5.8179
        95                         -0.1968113              -5.3555
        96                         -0.1962044              -5.3390
       ...                                ...                  ...
       166                          0.6942454              18.8914
      -------------------------------------------------------------
                  HL-Gap            0.0584582 Eh            1.5907 eV

     #   Z          covCN         q      C6AA      α(0)
     1   6 C        2.920    -0.028    28.698     8.785
     2   6 C        2.918    -0.030    28.745     8.792
     3   6 C        2.923    -0.033    28.827     8.805
     4   6 C        2.980     0.003    27.949     8.672
     5   6 C        2.949     0.099    25.815     8.333
     6   6 C        2.920    -0.054    29.353     8.884
     7   6 C        2.977     0.019    27.579     8.614
     8   6 C        2.978     0.009    27.811     8.651
     9   6 C        2.924    -0.032    28.803     8.801
    10   6 C        2.918    -0.029    28.715     8.787
    11   6 C        2.920    -0.029    28.732     8.790
    12   6 C        2.918    -0.029    28.726     8.789
    13   6 C        2.924    -0.031    28.772     8.796
    14   6 C        2.985    -0.006    28.172     8.707
    15   6 C        2.918    -0.048    29.189     8.860
    16   6 C        2.917     0.063    26.584     8.455
    17   7 N        2.751    -0.076    22.708     7.077
    18   6 C        2.921     0.043    27.029     8.526
    19   6 C        2.924    -0.061    29.505     8.908
    20   6 C        2.919    -0.039    28.975     8.827
    21   6 C        2.919    -0.042    29.041     8.837
    22   6 C        2.919    -0.058    29.450     8.899
    23   6 C        2.882     0.122    25.323     8.250
    24   8 O        1.708    -0.274    18.546     5.815
    25   6 C        2.882     0.122    25.327     8.250
    26   6 C        2.919    -0.058    29.453     8.900
    27   6 C        2.919    -0.042    29.035     8.836
    28   6 C        2.919    -0.039    28.977     8.827
    29   6 C        2.924    -0.061    29.509     8.908
    30   6 C        2.922     0.043    27.026     8.525
    31   6 C        2.917    -0.039    28.961     8.825
    32   6 C        2.921    -0.041    29.015     8.833
    33   6 C        2.962     0.088    26.032     8.369
    34   7 N        1.851    -0.267    27.791     7.813
    35   6 C        2.926    -0.027    28.668     8.781
    36   6 C        2.918    -0.028    28.708     8.786
    37   1 H        0.926     0.037     2.486     2.465
    38   1 H        0.926     0.036     2.500     2.473
    39   1 H        0.926     0.035     2.522     2.483
    40   1 H        0.926     0.039     2.456     2.451
    41   1 H        0.926     0.033     2.540     2.492
    42   1 H        0.926     0.036     2.499     2.472
    43   1 H        0.926     0.036     2.505     2.475
    44   1 H        0.926     0.036     2.502     2.473
    45   1 H        0.926     0.033     2.541     2.493
    46   1 H        0.926     0.045     2.377     2.411
    47   1 H        0.926     0.036     2.508     2.477
    48   1 H        0.926     0.040     2.446     2.446
    49   1 H        0.926     0.041     2.431     2.438
    50   1 H        0.926     0.047     2.360     2.402
    51   1 H        0.926     0.047     2.359     2.402
    52   1 H        0.926     0.042     2.429     2.437
    53   1 H        0.926     0.041     2.440     2.443
    54   1 H        0.926     0.038     2.480     2.463
    55   1 H        0.926     0.048     2.348     2.396
    56   1 H        0.926     0.057     2.234     2.337
    57   1 H        0.926     0.049     2.333     2.389
    58   1 H        0.926     0.038     2.478     2.462

molecular dipole:
                 x           y           z       tot (Debye)
 q only:        0.963       0.382       0.118
   full:        0.858       0.708       0.263       2.905

 projected vibrational frequencies (cm⁻¹)
eigval :       -0.00    -0.00    -0.00     0.00     0.00     0.00
eigval :       12.69    20.47    25.97    32.85    42.22    51.27
eigval :       55.45    63.62    79.03    81.63   113.83   135.39
eigval :      143.05   166.13   182.16   223.91   226.03   244.81
eigval :      248.79   253.72   264.43   280.77   317.47   341.30
eigval :      365.16   369.18   374.93   384.27   397.06   410.99
eigval :      423.49   428.89   440.35   457.75   468.40   507.83
eigval :      510.62   517.63   527.04   548.06   555.19   564.27
eigval :      582.58   585.32   590.03   594.57   619.07   631.82
eigval :      653.11   658.08   660.11   660.87   673.39   674.87
eigval :      681.42   738.46   754.94   760.15   771.90   777.80
eigval :      778.24   804.01   827.01   850.87   851.82   860.20
eigval :      864.34   864.73   869.56   874.14   879.54   891.03
eigval :      896.36   898.10   901.96   909.19   913.56   914.73
eigval :      916.72   925.66   926.96   929.48   930.76   931.97
eigval :      938.12   983.57   986.84  1007.31  1080.78  1081.74
eigval :     1087.95  1089.82  1099.26  1105.12  1111.61  1117.70
eigval :     1120.36  1138.41  1154.92  1171.85  1173.73  1178.28
eigval :     1178.84  1182.37  1195.05  1196.10  1196.93  1208.12
eigval :     1229.01  1232.12  1240.82  1258.26  1268.18  1276.35
eigval :     1280.85  1290.42  1304.67  1313.57  1320.41  1328.07
eigval :     1336.97  1348.56  1352.80  1373.59  1396.65  1421.21
eigval :     1426.96  1429.85  1439.68  1447.08  1473.11  1475.87
eigval :     1481.22  1487.76  1502.57  1527.91  1555.43  1565.48
eigval :     1579.14  1579.66  1580.87  1587.00  1595.72  1596.03
eigval :     1598.05  1603.44  3068.91  3069.63  3072.02  3073.78
eigval :     3077.53  3080.75  3082.72  3084.43  3085.42  3085.89
eigval :     3086.49  3088.06  3090.80  3092.05  3094.50  3094.79
eigval :     3100.04  3102.47  3103.40  3104.06  3107.49  3108.41

   temp. (K)  partition function   enthalpy   heat capacity  entropy
                                   cal/mol     cal/K/mol   cal/K/mol   J/K/mol
 298.15  VIB  0.790E+12            15777.803    102.377     96.890
         ROT  0.356E+08              888.752      2.981     37.534
         INT  0.281E+20            16666.555    105.358    134.425
         TR   0.962E+28             1481.254      4.968     44.263
         TOT                       18147.8088   110.3257   178.6877   747.6294

       T/K    H(0)-H(T)+PV         H(T)/Eh          T*S/Eh         G(T)/Eh
   ------------------------------------------------------------------------
    298.15    0.289204E-01    0.470842E+00    0.849003E-01    0.385942E+00
   ------------------------------------------------------------------------

         :::::::::::::::::::::::::::::::::::::::::::::::::::::
         ::                  THERMODYNAMIC                  ::
         :::::::::::::::::::::::::::::::::::::::::::::::::::::
         :: total free energy         -91.467283105374 Eh   ::
         ::.................................................::
         :: total energy              -91.853225208722 Eh   ::
         :: zero point energy           0.441922026931 Eh   ::
         :: G(RRHO) w/o ZPVE           -0.055979923582 Eh   ::
         :: G(RRHO) contrib.            0.385942103349 Eh   ::
         :::::::::::::::::::::::::::::::::::::::::::::::::::::

           -------------------------------------------------
          | TOTAL ENERGY              -91.853225208722 Eh   |
          | TOTAL ENTHALPY            -91.382382807589 Eh   |
          | TOTAL FREE ENERGY         -91.467283105374 Eh   |
          | GRADIENT NORM               0.000049138991 Eh/α |
          | HOMO-LUMO GAP               1.590727909008 eV   |
           -------------------------------------------------

 * finished run on 2025/07/18 at 16:37:45.465
