   * xtb version 6.7.1 (edcfbbe) compiled by 'albert@albert-system' on 2024-07-22

   ID    Z sym.   atoms
    1    8 O      1, 3, 15, 35
    2   16 S      2
    3    6 C      4-7, 9-14, 16-27, 29-34, 36-43
    4    7 N      8, 28
    5    1 H      44-67

          program call               : xtb data2507/toluene/DPS-PXZ/DPS-PXZ_toluene_S0_finalOpt.xtbopt.xyz --gfn 2 --uhf 2 --gbsa toluene --ohess vtight --parallel 40 --molden --ceasefiles --namespace data2507/toluene/DPS-PXZ/DPS-PXZ_toluene_T1_preOpt
      * Solvation model:               GBSA
        Solvent                        toluene
        Solvent mass                       9.2140E+01 g/mol
          :  Hamiltonian                  GFN2-xTB          :
 * total energy  :  -114.6635999 Eh     change       -0.1605017E-08 Eh
 * total energy  :  -114.6670545 Eh     change       -0.3454668E-02 Eh
 * total energy  :  -114.6680246 Eh     change       -0.9701162E-03 Eh
 * total energy  :  -114.6681779 Eh     change       -0.1532636E-03 Eh
 * total energy  :  -114.6683404 Eh     change       -0.1624598E-03 Eh
 * total energy  :  -114.6684557 Eh     change       -0.1153299E-03 Eh
 * total energy  :  -114.6685998 Eh     change       -0.1440929E-03 Eh
 * total energy  :  -114.6687282 Eh     change       -0.1283789E-03 Eh
 * total energy  :  -114.6688070 Eh     change       -0.7879656E-04 Eh
 * total energy  :  -114.6688555 Eh     change       -0.4849402E-04 Eh
 * total energy  :  -114.6689910 Eh     change       -0.5396623E-06 Eh
 * total energy  :  -114.6689916 Eh     change       -0.6011708E-06 Eh
 * total energy  :  -114.6689922 Eh     change       -0.5344203E-06 Eh
 * total energy  :  -114.6689929 Eh     change       -0.7506722E-06 Eh
 * total energy  :  -114.6689936 Eh     change       -0.6531874E-06 Eh
 * total energy  :  -114.6689942 Eh     change       -0.6195539E-06 Eh
 * total energy  :  -114.6689948 Eh     change       -0.5943370E-06 Eh
 * total energy  :  -114.6689953 Eh     change       -0.5318277E-06 Eh
 * total energy  :  -114.6689953 Eh     change       -0.1877186E-07 Eh
   *** GEOMETRY OPTIMIZATION CONVERGED AFTER 44 ITERATIONS ***

 final structure:
================
67
 xtb: 6.7.1 (edcfbbe)
O           -0.12069839561204        4.61356164553614       -1.20844864212279
S           -0.01332171773282        3.84307007070134        0.02286017045490
O            0.08887422845039        4.60115592469023        1.26226370580627
C            1.35357305774322        2.73834459666499       -0.09758649098549
C            1.91946400501989        2.21280824283540        1.07164035036623
C            2.83731601474234        1.19627016715197        0.99357693009585
C            3.19542654244847        0.67187325445492       -0.25876180539855
N            4.14240909110779       -0.38232701496785       -0.33966952840923
C            5.47907894557493       -0.14242027473702       -0.07453281808136
C            5.95757018379217        1.13128443463313        0.23702125040844
C            7.29818617736861        1.33157610792987        0.50101339840322
C            8.19373358542086        0.26969685351551        0.45485322313467
C            7.74325445451819       -0.99795630456709        0.13074636625909
C            6.39959522632463       -1.21012095701794       -0.13705801603032
O            6.01433209243327       -2.47653699333160       -0.46803780354450
C            4.69618537710998       -2.69489068001899       -0.74538928933196
C            4.31833741368665       -3.98486298732345       -1.08568431767409
C            2.99248644359049       -4.26866482304262       -1.36215819610834
C            2.03855120507605       -3.26069421732966       -1.28719618924458
C            2.40358061560442       -1.97290911146165       -0.94667418248293
C            3.73798775164364       -1.66097949355512       -0.68094064172623
C            2.62232799951893        1.19353626989487       -1.42966460721224
C            1.70673585333183        2.21184050396629       -1.34721196275937
C           -1.37268318551086        2.72787524513090        0.13135330407482
C           -1.72377937023424        2.18691725932514        1.37537209383776
C           -2.63225467449032        1.16143137961617        1.44672720507291
C           -3.20017072730908        0.64696281776484        0.27006981877930
N           -4.14005798136881       -0.41430318993018        0.34005680417321
C           -5.47787560046279       -0.18153965404595        0.07410160099681
C           -5.96401294831019        1.09041977315973       -0.23277654576894
C           -7.30557632372315        1.28348960602076       -0.49736057116197
C           -8.19461727342761        0.21595006115306       -0.45622563064468
C           -7.73664630018075       -1.05013412561376       -0.13665537185034
C           -6.39186721362935       -1.25515707887093        0.13135755863490
O           -5.99926817536891       -2.52046485723391        0.45770205755971
C           -4.67988574835112       -2.73226810466013        0.73407277065437
C           -4.29434065592808       -4.02147883333939        1.06857908462395
C           -2.96677338012590       -4.29864677289695        1.34354953596154
C           -2.01879604512288       -3.28470371429531        1.27275954654453
C           -2.39152227123832       -1.99757541300381        0.93831959263058
C           -3.72790715359452       -1.69225899187810        0.67448447116093
C           -2.84405663010079        1.18589054902066       -0.97665648815377
C           -1.93336322619347        2.20963947627414       -1.04363393476639
H            1.62514941056169        2.64087566157949        2.01683843724753
H            3.28871325642764        0.79008233716343        1.88671407567393
H            5.26563812611203        1.95785960673301        0.26448376234211
H            7.64743469665218        2.32350949143553        0.74130195682745
H            9.23933101489727        0.42992318476066        0.66357010501144
H            8.41587160518870       -1.83897103194999        0.07500890036996
H            5.07965959987872       -4.74749969379168       -1.12531582675152
H            2.70446267274857       -5.27275123386322       -1.62922367015547
H            1.00316096978485       -3.47962742932566       -1.49562854210206
H            1.66175268537577       -1.19322710847537       -0.88086471215520
H            2.91692900287071        0.79220949914613       -2.38807723835480
H            1.25740436900873        2.64355129176813       -2.22757341194748
H           -1.27874651996329        2.61331814339833        2.26050491240189
H           -2.92531628123088        0.74888293360161        2.40084072050183
H           -5.27731856505095        1.92145847032607       -0.25599939612301
H           -7.66067230823194        2.27419783491953       -0.73412549034177
H           -9.24101235358455        0.37061000914882       -0.66517643862689
H           -8.40410328544091       -1.89549113148272       -0.08470179128692
H           -5.05112589065671       -4.78878606174661        1.10486584477908
H           -2.67269352920984       -5.30219256386346        1.60603162186441
H           -0.98205571737838       -3.49853362260595        1.47979438735791
H           -1.65436257452149       -1.21320120625768        0.87595162196057
H           -3.29118854630942        0.78509327808557       -1.87435388612397
H           -1.64098152727461        2.64894207585987       -1.98427103026628

          :  Hamiltonian                  GFN2-xTB          :
         :: gradient norm              0.000070919533 Eh/a0 ::
         :: HOMO-LUMO gap              0.114255688001 eV    ::
         :: SCC energy              -116.512314913496 Eh    ::
         :: -> dispersion             -0.094930219075 Eh    ::
         :: -> Gsolv                  -0.062191931408 Eh    ::
         :: repulsion energy           1.843319588614 Eh    ::

    * Orbital Energies and Occupations

         #    Occupation            Energy/Eh            Energy/eV
      -------------------------------------------------------------
         1        2.0000           -0.7527677             -20.4839
       ...           ...                  ...                  ...
        93        2.0000           -0.4281141             -11.6496
        94        2.0000           -0.4279456             -11.6450
        95        2.0000           -0.4202160             -11.4347
        96        2.0000           -0.4160542             -11.3214
        97        2.0000           -0.4148108             -11.2876
        98        2.0000           -0.4094827             -11.1426
        99        2.0000           -0.4081553             -11.1065
       100        2.0000           -0.4047115             -11.0128
       101        2.0000           -0.4026571             -10.9569
       102        2.0000           -0.3904263             -10.6240
       103        1.5371           -0.3578600              -9.7379
       104        1.4629           -0.3575777              -9.7302
       105        0.8616           -0.2606507              -7.0927 (HOMO)
       106        0.0697           -0.2564515              -6.9784 (LUMO)
       107        0.0688           -0.2564381              -6.9780
       108                         -0.2433985              -6.6232
       109                         -0.2433782              -6.6227
       110                         -0.2388527              -6.4995
       111                         -0.2311681              -6.2904
       112                         -0.2287218              -6.2238
       113                         -0.2284603              -6.2167
       114                         -0.2273271              -6.1859
       115                         -0.2113837              -5.7520
       116                         -0.2108144              -5.7366
       ...                                ...                  ...
       201                          1.1498523              31.2891
      -------------------------------------------------------------
                  HL-Gap            0.0041992 Eh            0.1143 eV

     #   Z          covCN         q      C6AA      α(0)
     1   8 O        0.860    -0.596    26.022     6.839
     2  16 S        3.840     0.860   110.756    17.713
     3   8 O        0.860    -0.596    26.021     6.839
     4   6 C        2.966    -0.097    30.444     9.050
     5   6 C        2.958    -0.038    28.955     8.826
     6   6 C        2.916    -0.042    29.038     8.836
     7   6 C        2.923     0.027    27.396     8.583
     8   7 N        2.751    -0.016    21.562     6.896
     9   6 C        2.926     0.043    27.028     8.526
    10   6 C        2.920    -0.050    29.243     8.868
    11   6 C        2.917    -0.031    28.775     8.796
    12   6 C        2.918    -0.031    28.782     8.798
    13   6 C        2.916    -0.052    29.300     8.876
    14   6 C        2.884     0.129    25.179     8.226
    15   8 O        1.709    -0.225    17.730     5.685
    16   6 C        2.884     0.129    25.177     8.226
    17   6 C        2.915    -0.052    29.294     8.875
    18   6 C        2.918    -0.031    28.784     8.798
    19   6 C        2.917    -0.031    28.785     8.798
    20   6 C        2.919    -0.051    29.256     8.870
    21   6 C        2.926     0.043    27.035     8.527
    22   6 C        2.916    -0.042    29.036     8.836
    23   6 C        2.957    -0.038    28.954     8.826
    24   6 C        2.966    -0.097    30.444     9.050
    25   6 C        2.957    -0.038    28.954     8.826
    26   6 C        2.916    -0.042    29.036     8.836
    27   6 C        2.923     0.027    27.397     8.583
    28   7 N        2.751    -0.016    21.559     6.896
    29   6 C        2.926     0.043    27.028     8.526
    30   6 C        2.920    -0.050    29.243     8.868
    31   6 C        2.917    -0.031    28.775     8.797
    32   6 C        2.918    -0.031    28.781     8.797
    33   6 C        2.916    -0.052    29.300     8.876
    34   6 C        2.884     0.129    25.179     8.226
    35   8 O        1.709    -0.225    17.728     5.685
    36   6 C        2.884     0.129    25.177     8.226
    37   6 C        2.915    -0.052    29.294     8.875
    38   6 C        2.918    -0.031    28.784     8.798
    39   6 C        2.917    -0.031    28.785     8.798
    40   6 C        2.919    -0.051    29.255     8.870
    41   6 C        2.926     0.043    27.036     8.527
    42   6 C        2.916    -0.042    29.038     8.837
    43   6 C        2.958    -0.039    28.955     8.826
    44   1 H        0.926     0.037     2.483     2.464
    45   1 H        0.926     0.046     2.371     2.408
    46   1 H        0.926     0.052     2.299     2.371
    47   1 H        0.926     0.053     2.278     2.360
    48   1 H        0.926     0.057     2.234     2.337
    49   1 H        0.926     0.064     2.155     2.296
    50   1 H        0.926     0.063     2.160     2.298
    51   1 H        0.926     0.058     2.220     2.330
    52   1 H        0.926     0.057     2.238     2.339
    53   1 H        0.926     0.053     2.283     2.363
    54   1 H        0.926     0.046     2.371     2.408
    55   1 H        0.926     0.037     2.486     2.466
    56   1 H        0.926     0.037     2.486     2.466
    57   1 H        0.926     0.046     2.372     2.408
    58   1 H        0.926     0.052     2.298     2.371
    59   1 H        0.926     0.053     2.278     2.360
    60   1 H        0.926     0.057     2.234     2.337
    61   1 H        0.926     0.064     2.155     2.296
    62   1 H        0.926     0.063     2.160     2.298
    63   1 H        0.926     0.058     2.220     2.330
    64   1 H        0.926     0.057     2.238     2.339
    65   1 H        0.926     0.053     2.283     2.363
    66   1 H        0.926     0.046     2.370     2.407
    67   1 H        0.926     0.037     2.483     2.464

molecular dipole:
                 x           y           z       tot (Debye)
 q only:        0.019      -6.079      -0.032
   full:        0.018      -5.706      -0.030      14.503

 projected vibrational frequencies (cm⁻¹)
eigval :       -0.00    -0.00    -0.00    -0.00     0.00     0.00
eigval :        9.03    15.07    25.07    25.59    39.31    40.16
eigval :       42.53    49.38    55.12    68.01    70.73   111.90
eigval :      113.01   115.34   121.13   130.15   144.60   151.63
eigval :      176.55   197.22   199.92   245.57   246.74   254.22
eigval :      260.87   272.97   276.19   279.03   311.61   314.94
eigval :      365.18   370.35   371.05   373.99   374.81   387.89
eigval :      394.63   407.53   408.18   410.01   410.86   429.09
eigval :      429.86   441.63   445.66   467.65   467.90   493.50
eigval :      494.29   501.39   501.69   526.26   526.94   534.75
eigval :      535.29   558.48   581.11   581.41   595.22   600.29
eigval :      601.93   629.42   632.05   648.39   653.29   663.92
eigval :      664.34   667.31   667.47   679.70   705.26   771.87
eigval :      773.20   775.09   775.99   779.30   781.69   782.76
eigval :      795.31   839.53   843.04   850.02   853.24   853.58
eigval :      864.98   866.77   867.20   867.36   890.83   894.69
eigval :      898.71   898.89   900.64   901.34   901.70   902.23
eigval :      904.88   907.32   907.42   914.80   916.08   916.43
eigval :      918.08   925.47   981.01   983.69  1037.36  1057.83
eigval :     1076.27  1077.23  1078.33  1083.89  1085.58  1112.63
eigval :     1113.10  1114.61  1116.41  1117.69  1118.84  1158.88
eigval :     1166.16  1167.43  1168.24  1169.58  1172.23  1180.06
eigval :     1188.22  1191.49  1204.34  1206.17  1222.01  1231.48
eigval :     1231.86  1237.78  1238.29  1241.83  1251.66  1288.45
eigval :     1301.26  1301.69  1304.83  1308.06  1320.21  1320.70
eigval :     1328.35  1330.22  1349.08  1367.36  1381.30  1387.29
eigval :     1408.39  1408.73  1415.13  1416.84  1425.02  1425.71
eigval :     1427.23  1428.01  1435.46  1436.25  1471.05  1495.11
eigval :     1503.99  1521.04  1527.82  1528.42  1528.98  1529.34
eigval :     1534.45  1535.88  1588.47  3079.31  3079.57  3081.10
eigval :     3081.61  3095.97  3096.50  3097.16  3097.32  3098.57
eigval :     3099.88  3101.02  3103.16  3103.26  3103.50  3103.93
eigval :     3104.20  3111.07  3111.24  3111.60  3112.39  3114.51
eigval :     3114.86  3115.14  3116.44

   temp. (K)  partition function   enthalpy   heat capacity  entropy
                                   cal/mol     cal/K/mol   cal/K/mol   J/K/mol
 298.15  VIB  0.257E+16            20233.989    128.842    124.622
         ROT  0.329E+08              888.752      2.981     37.380
         INT  0.847E+23            21122.741    131.823    162.002
         TR   0.135E+29             1481.254      4.968     44.941
         TOT                       22603.9950   136.7912   206.9427   865.8482

       T/K    H(0)-H(T)+PV         H(T)/Eh          T*S/Eh         G(T)/Eh
   ------------------------------------------------------------------------
    298.15    0.360218E-01    0.524688E+00    0.983251E-01    0.426363E+00
   ------------------------------------------------------------------------

         :::::::::::::::::::::::::::::::::::::::::::::::::::::
         ::                  THERMODYNAMIC                  ::
         :::::::::::::::::::::::::::::::::::::::::::::::::::::
         :: total free energy        -114.242632585467 Eh   ::
         ::.................................................::
         :: total energy             -114.668995322181 Eh   ::
         :: zero point energy           0.488666125450 Eh   ::
         :: G(RRHO) w/o ZPVE           -0.062303388736 Eh   ::
         :: G(RRHO) contrib.            0.426362736714 Eh   ::
         :::::::::::::::::::::::::::::::::::::::::::::::::::::

           -------------------------------------------------
          | TOTAL ENERGY             -114.668995322181 Eh   |
          | TOTAL ENTHALPY           -114.144307437799 Eh   |
          | TOTAL FREE ENERGY        -114.242632585467 Eh   |
          | GRADIENT NORM               0.000070970264 Eh/α |
          | HOMO-LUMO GAP               0.114265334250 eV   |
           -------------------------------------------------

 * finished run on 2025/09/08 at 07:28:13.079
