   * xtb version 6.7.1 (edcfbbe) compiled by 'albert@albert-system' on 2024-07-22

   ID    Z sym.   atoms
    1    8 O      1, 3, 15, 35
    2   16 S      2
    3    6 C      4-7, 9-14, 16-27, 29-34, 36-43
    4    7 N      8, 28
    5    1 H      44-67

          program call               : xtb data2507/toluene/DPS-PXZ/DPS-PXZ_toluene_T1_crest.xyz --gfn 2 --uhf 2 --gbsa toluene --ohess vtight --parallel 40 --molden --ceasefiles --namespace data2507/toluene/DPS-PXZ/DPS-PXZ_toluene_T1_finalOpt
      * Solvation model:               GBSA
        Solvent                        toluene
        Solvent mass                       9.2140E+01 g/mol
          :  Hamiltonian                  GFN2-xTB          :
 * total energy  :  -114.6655017 Eh     change       -0.1081523E-07 Eh
 * total energy  :  -114.6658339 Eh     change       -0.3321760E-03 Eh
 * total energy  :  -114.6660562 Eh     change       -0.2223346E-03 Eh
 * total energy  :  -114.6660851 Eh     change       -0.2890958E-04 Eh
 * total energy  :  -114.6661327 Eh     change       -0.4751666E-04 Eh
 * total energy  :  -114.6661548 Eh     change       -0.2216494E-04 Eh
 * total energy  :  -114.6661862 Eh     change       -0.3136701E-04 Eh
 * total energy  :  -114.6662095 Eh     change       -0.2333675E-04 Eh
 * total energy  :  -114.6662205 Eh     change       -0.1099194E-04 Eh
 * total energy  :  -114.6662401 Eh     change       -0.1962032E-04 Eh
 * total energy  :  -114.6663599 Eh     change       -0.7124773E-06 Eh
 * total energy  :  -114.6663607 Eh     change       -0.7348106E-06 Eh
 * total energy  :  -114.6663614 Eh     change       -0.7656010E-06 Eh
 * total energy  :  -114.6663622 Eh     change       -0.8047425E-06 Eh
 * total energy  :  -114.6663631 Eh     change       -0.8379077E-06 Eh
 * total energy  :  -114.6663639 Eh     change       -0.8667873E-06 Eh
 * total energy  :  -114.6663648 Eh     change       -0.8756290E-06 Eh
 * total energy  :  -114.6663657 Eh     change       -0.8737600E-06 Eh
 * total energy  :  -114.6663657 Eh     change       -0.5781729E-08 Eh
   *** GEOMETRY OPTIMIZATION CONVERGED AFTER 68 ITERATIONS ***

 final structure:
================
67
 xtb: 6.7.1 (edcfbbe)
O           -0.20212734013123        5.51395485324147       -1.21985884601707
S            0.00145269455422        4.74877289241757        0.00012433807489
O            0.20550029162810        5.51376721226815        1.22014704438965
C            1.28017931737464        3.55041177077379       -0.22818599854256
C            1.70241148857086        2.82220076143719        0.89831479578949
C            2.16952813038159        1.54173402244251        0.75871850006293
C            2.21948481261325        0.94575452773446       -0.51397248521707
N            2.55114014045803       -0.42384705538560       -0.64377516034028
C            3.79143094362959       -0.89469237914639       -0.24777182546034
C            4.81411017055522       -0.03718981607430        0.16379316854761
C            6.03554535777766       -0.54305377054060        0.56359734771097
C            6.26955812824229       -1.91171057556067        0.55729120254203
C            5.27877090169450       -2.77736495954535        0.12639291340997
C            4.05141905613056       -2.27922938901006       -0.28141235266983
O            3.12335201810371       -3.17700212800907       -0.72249842701638
C            1.92285584755316       -2.69693707077910       -1.15510255255105
C            1.00117465132784       -3.62314284969711       -1.61847778895249
C           -0.24700270360472       -3.20591291604860       -2.04607214434506
C           -0.57626146856398       -1.86012253965178       -1.99160800648568
C            0.33239678314064       -0.92944728535008       -1.52432189656124
C            1.60751879897274       -1.32470218815744       -1.11545227498436
C            1.87923910984661        1.70009000069675       -1.64904148434884
C            1.40659950651712        2.97854993680301       -1.50571965348006
C           -1.27800409482284        3.55118055921621        0.22837387653924
C           -1.40477781916426        2.97933599556857        1.50588024223674
C           -1.87819469404097        1.70115693029702        1.64913937279897
C           -2.21889270250774        0.94708275479137        0.51403183221365
N           -2.55138565132432       -0.42232052150009        0.64376408323714
C           -3.79194656589478       -0.89239259148357        0.24768836064061
C           -4.81408922226123       -0.03424898580053       -0.16387440486346
C           -6.03581103550480       -0.53935353841725       -0.56376178176027
C           -6.27064994174451       -1.90786927219245       -0.55754694122788
C           -5.28040754139302       -2.77414612953023       -0.12664852949929
C           -4.05277508056678       -2.27677372532583        0.28124342699566
O           -3.12527390916697       -3.17513076567269        0.72232895123808
C           -1.92449805616514       -2.69581817199161        1.15498705170685
C           -1.00339477129066       -3.62261135384250        1.61833473466850
C            0.24502737704606       -3.20616658771659        2.04597912974800
C            0.57511124742971       -1.86057477480187        1.99158733820089
C           -0.33296696734711       -0.92932036848673        1.52432660115074
C           -1.60832323093751       -1.32377435898651        1.11541470031200
C           -2.16856379124330        1.54308966427066       -0.75863207810726
C           -1.70066790402539        2.82327800083999       -0.89816476325103
H            1.61854503538333        3.29005901849308        1.86678202341587
H            2.47311405242279        0.97162522200597        1.62422557066857
H            4.63995390864669        1.02684877620735        0.15679884308935
H            6.81176531432350        0.13674827222991        0.87839630011196
H            7.22265515889849       -2.30338476968466        0.87452458469131
H            5.43628139188310       -3.84346043616928        0.09106396558485
H            1.28308530022461       -4.66352107156704       -1.62970053881933
H           -0.95924454770221       -3.92879609518691       -2.41039607762679
H           -1.55148539601297       -1.52964048928890       -2.31432938043026
H            0.05807343739537        0.11120137270637       -1.46730784568954
H            1.98451401935376        1.25861374885016       -2.62929835638195
H            1.10907443749816        3.57083594168242       -2.35706870877189
H           -1.10689508811904        3.57140254424035        2.35725660042566
H           -1.98374822801169        1.25969929293399        2.62937450777536
H           -4.63929416414355        1.02968452500851       -0.15681451758422
H           -6.81160654121935        0.14093584586686       -0.87855379164805
H           -7.22396875477037       -2.29895006490366       -0.87484268693350
H           -5.43856489285359       -3.84014773798775       -0.09138621055275
H           -1.28594664899968       -4.66281649499802        1.62949259447814
H            0.95681512134604       -3.92950536651736        2.41028477761764
H            1.55053092232849       -1.53070383369884        2.31434325043768
H           -0.05800242593326        0.11116196838251        1.46736348301395
H           -2.47248800177735        0.97320618956053       -1.62416863096621
H           -1.61651054951482        3.29113057166834       -1.86660956843867

          :  Hamiltonian                  GFN2-xTB          :
         :: gradient norm              0.000063749870 Eh/a0 ::
         :: HOMO-LUMO gap              0.154249332550 eV    ::
         :: SCC energy              -116.509063862688 Eh    ::
         :: -> dispersion             -0.112530130881 Eh    ::
         :: -> Gsolv                  -0.055722723339 Eh    ::
         :: repulsion energy           1.842698163875 Eh    ::

    * Orbital Energies and Occupations

         #    Occupation            Energy/Eh            Energy/eV
      -------------------------------------------------------------
         1        2.0000           -0.7547140             -20.5368
       ...           ...                  ...                  ...
        93        2.0000           -0.4289649             -11.6727
        94        2.0000           -0.4275017             -11.6329
        95        2.0000           -0.4224419             -11.4952
        96        2.0000           -0.4163559             -11.3296
        97        2.0000           -0.4115195             -11.1980
        98        2.0000           -0.4108959             -11.1810
        99        2.0000           -0.4077655             -11.0959
       100        2.0000           -0.4035917             -10.9823
       101        2.0000           -0.3980669             -10.8320
       102        2.0000           -0.3893962             -10.5960
       103        1.5823           -0.3599493              -9.7947
       104        1.4177           -0.3593182              -9.7775
       105        0.9511           -0.2665216              -7.2524 (HOMO)
       106        0.0475           -0.2608530              -7.0982 (LUMO)
       107        0.0013           -0.2574241              -7.0049
       108        0.0000           -0.2486615              -6.7664
       109                         -0.2443643              -6.6495
       110                         -0.2391079              -6.5065
       111                         -0.2340040              -6.3676
       112                         -0.2330029              -6.3403
       113                         -0.2258098              -6.1446
       114                         -0.2231285              -6.0716
       115                         -0.2130976              -5.7987
       116                         -0.2124364              -5.7807
       ...                                ...                  ...
       201                          1.1670936              31.7582
      -------------------------------------------------------------
                  HL-Gap            0.0056685 Eh            0.1542 eV

     #   Z          covCN         q      C6AA      α(0)
     1   8 O        0.860    -0.592    25.923     6.826
     2  16 S        3.873     0.878   110.223    17.670
     3   8 O        0.860    -0.592    25.923     6.826
     4   6 C        2.963    -0.107    30.713     9.090
     5   6 C        2.964    -0.042    29.040     8.839
     6   6 C        2.915    -0.043    29.079     8.843
     7   6 C        2.922     0.024    27.468     8.595
     8   7 N        2.751    -0.012    21.482     6.884
     9   6 C        2.925     0.043    27.036     8.527
    10   6 C        2.920    -0.050    29.231     8.866
    11   6 C        2.917    -0.030    28.741     8.791
    12   6 C        2.919    -0.030    28.749     8.793
    13   6 C        2.916    -0.052    29.283     8.874
    14   6 C        2.885     0.130    25.153     8.222
    15   8 O        1.710    -0.221    17.673     5.676
    16   6 C        2.886     0.130    25.149     8.222
    17   6 C        2.917    -0.054    29.333     8.881
    18   6 C        2.918    -0.032    28.786     8.798
    19   6 C        2.918    -0.033    28.812     8.802
    20   6 C        2.920    -0.054    29.340     8.883
    21   6 C        2.926     0.042    27.051     8.529
    22   6 C        2.915    -0.042    29.046     8.838
    23   6 C        2.967    -0.041    29.022     8.836
    24   6 C        2.963    -0.107    30.713     9.090
    25   6 C        2.967    -0.041    29.022     8.836
    26   6 C        2.915    -0.042    29.046     8.838
    27   6 C        2.922     0.024    27.468     8.595
    28   7 N        2.751    -0.012    21.482     6.884
    29   6 C        2.925     0.043    27.036     8.527
    30   6 C        2.920    -0.050    29.231     8.866
    31   6 C        2.917    -0.030    28.741     8.791
    32   6 C        2.919    -0.030    28.749     8.793
    33   6 C        2.916    -0.052    29.283     8.874
    34   6 C        2.885     0.130    25.153     8.222
    35   8 O        1.710    -0.221    17.673     5.676
    36   6 C        2.886     0.130    25.149     8.222
    37   6 C        2.917    -0.054    29.333     8.881
    38   6 C        2.918    -0.032    28.786     8.798
    39   6 C        2.918    -0.033    28.812     8.802
    40   6 C        2.920    -0.054    29.340     8.883
    41   6 C        2.926     0.042    27.051     8.529
    42   6 C        2.915    -0.043    29.079     8.843
    43   6 C        2.964    -0.042    29.040     8.839
    44   1 H        0.926     0.034     2.533     2.489
    45   1 H        0.926     0.046     2.364     2.404
    46   1 H        0.926     0.056     2.251     2.346
    47   1 H        0.926     0.056     2.249     2.345
    48   1 H        0.926     0.059     2.211     2.325
    49   1 H        0.926     0.066     2.128     2.281
    50   1 H        0.926     0.068     2.112     2.272
    51   1 H        0.926     0.059     2.213     2.326
    52   1 H        0.926     0.048     2.346     2.395
    53   1 H        0.926     0.055     2.264     2.353
    54   1 H        0.926     0.045     2.379     2.412
    55   1 H        0.926     0.034     2.525     2.485
    56   1 H        0.926     0.034     2.525     2.485
    57   1 H        0.926     0.045     2.379     2.412
    58   1 H        0.926     0.056     2.251     2.346
    59   1 H        0.926     0.056     2.249     2.345
    60   1 H        0.926     0.059     2.211     2.325
    61   1 H        0.926     0.066     2.128     2.281
    62   1 H        0.926     0.068     2.112     2.272
    63   1 H        0.926     0.059     2.213     2.326
    64   1 H        0.926     0.048     2.346     2.395
    65   1 H        0.926     0.055     2.264     2.353
    66   1 H        0.926     0.046     2.364     2.404
    67   1 H        0.926     0.034     2.533     2.489

molecular dipole:
                 x           y           z       tot (Debye)
 q only:       -0.002      -7.293      -0.000
   full:       -0.002      -6.883      -0.000      17.494

 projected vibrational frequencies (cm⁻¹)
eigval :       -0.00    -0.00    -0.00    -0.00    -0.00     0.00
eigval :        9.33    21.74    31.57    34.19    41.78    44.03
eigval :       60.61    72.47    72.55    81.48    90.71   100.96
eigval :      117.11   123.67   129.79   147.94   162.91   170.22
eigval :      187.59   203.39   205.05   245.39   247.38   257.23
eigval :      266.57   273.86   277.94   283.09   308.72   321.44
eigval :      359.91   370.32   370.79   374.31   375.55   389.43
eigval :      397.28   407.64   408.50   412.67   416.81   433.36
eigval :      434.09   440.33   447.89   470.52   470.68   496.24
eigval :      496.34   509.06   512.02   528.25   528.74   537.38
eigval :      540.76   579.47   579.50   592.18   595.07   598.60
eigval :      600.25   628.06   632.67   656.59   661.90   665.63
eigval :      667.26   668.72   669.14   705.03   710.90   773.75
eigval :      778.06   778.65   781.16   782.20   786.52   797.33
eigval :      797.59   838.38   845.12   854.54   854.91   864.94
eigval :      869.58   871.92   872.04   893.72   897.10   898.55
eigval :      898.94   899.50   901.38   904.06   904.40   907.32
eigval :      907.74   908.98   910.34   922.36   922.42   923.18
eigval :      924.84   979.39   980.67  1038.75  1038.80  1076.42
eigval :     1079.15  1081.87  1082.45  1087.27  1107.48  1112.90
eigval :     1113.04  1113.91  1117.05  1118.15  1130.91  1164.86
eigval :     1165.77  1167.95  1169.00  1169.52  1173.06  1183.57
eigval :     1188.02  1197.93  1209.73  1209.80  1221.75  1230.64
eigval :     1233.33  1239.85  1241.94  1248.80  1254.30  1294.85
eigval :     1295.25  1301.20  1303.11  1318.63  1318.80  1329.16
eigval :     1332.14  1335.06  1346.86  1379.01  1400.08  1405.45
eigval :     1408.05  1410.67  1412.61  1415.74  1428.30  1429.48
eigval :     1434.43  1436.23  1436.42  1436.88  1468.31  1508.54
eigval :     1514.31  1519.55  1530.16  1534.47  1535.94  1538.30
eigval :     1558.47  1559.00  1584.58  3075.97  3076.12  3079.31
eigval :     3079.59  3091.53  3091.56  3092.79  3094.46  3095.88
eigval :     3096.15  3096.19  3097.92  3104.00  3104.05  3104.53
eigval :     3104.79  3111.94  3111.97  3115.13  3115.22  3115.23
eigval :     3116.59  3117.24  3118.77

   temp. (K)  partition function   enthalpy   heat capacity  entropy
                                   cal/mol     cal/K/mol   cal/K/mol   J/K/mol
 298.15  VIB  0.171E+15            19872.309    129.328    121.231
         ROT  0.207E+08              888.752      2.981     36.453
         INT  0.354E+22            20761.061    132.309    157.684
         TR   0.135E+29             1481.254      4.968     44.941
         TOT                       22242.3153   137.2767   202.6243   847.7801

       T/K    H(0)-H(T)+PV         H(T)/Eh          T*S/Eh         G(T)/Eh
   ------------------------------------------------------------------------
    298.15    0.354454E-01    0.526156E+00    0.962733E-01    0.429883E+00
   ------------------------------------------------------------------------

         :::::::::::::::::::::::::::::::::::::::::::::::::::::
         ::                  THERMODYNAMIC                  ::
         :::::::::::::::::::::::::::::::::::::::::::::::::::::
         :: total free energy        -114.236483016696 Eh   ::
         ::.................................................::
         :: total energy             -114.666365699734 Eh   ::
         :: zero point energy           0.490710645496 Eh   ::
         :: G(RRHO) w/o ZPVE           -0.060827962458 Eh   ::
         :: G(RRHO) contrib.            0.429882683038 Eh   ::
         :::::::::::::::::::::::::::::::::::::::::::::::::::::

           -------------------------------------------------
          | TOTAL ENERGY             -114.666365699734 Eh   |
          | TOTAL ENTHALPY           -114.140209668551 Eh   |
          | TOTAL FREE ENERGY        -114.236483016696 Eh   |
          | GRADIENT NORM               0.000063800666 Eh/α |
          | HOMO-LUMO GAP               0.154248823837 eV   |
           -------------------------------------------------

 * finished run on 2025/09/08 at 07:35:01.208
