   * xtb version 6.7.1 (edcfbbe) compiled by 'albert@albert-system' on 2024-07-22

   ID    Z sym.   atoms
    1    8 O      1, 3, 15, 35
    2   16 S      2
    3    6 C      4-7, 9-14, 16-27, 29-34, 36-43
    4    7 N      8, 28
    5    1 H      44-67

          program call               : xtb data2507/toluene/DPS-PXZ/DPS-PXZ.xyz --gfn 2 --gbsa toluene --ohess vtight --parallel 40 --molden --ceasefiles --namespace data2507/toluene/DPS-PXZ/DPS-PXZ_toluene_S0_preOpt
      * Solvation model:               GBSA
        Solvent                        toluene
        Solvent mass                       9.2140E+01 g/mol
          :  Hamiltonian                  GFN2-xTB          :
 * total energy  :  -114.7350914 Eh     change       -0.1772406E-08 Eh
 * total energy  :  -114.7454812 Eh     change       -0.1038978E-01 Eh
 * total energy  :  -114.7488220 Eh     change       -0.3340817E-02 Eh
 * total energy  :  -114.7496080 Eh     change       -0.7860203E-03 Eh
 * total energy  :  -114.7499835 Eh     change       -0.3754835E-03 Eh
 * total energy  :  -114.7500937 Eh     change       -0.1101853E-03 Eh
 * total energy  :  -114.7501505 Eh     change       -0.5683900E-04 Eh
 * total energy  :  -114.7502086 Eh     change       -0.5801938E-04 Eh
 * total energy  :  -114.7502564 Eh     change       -0.4782484E-04 Eh
 * total energy  :  -114.7503861 Eh     change       -0.1296687E-03 Eh
 * total energy  :  -114.7530106 Eh     change       -0.2339880E-06 Eh
 * total energy  :  -114.7530109 Eh     change       -0.2835480E-06 Eh
 * total energy  :  -114.7530113 Eh     change       -0.4084786E-06 Eh
 * total energy  :  -114.7530118 Eh     change       -0.4899415E-06 Eh
 * total energy  :  -114.7530122 Eh     change       -0.4455163E-06 Eh
 * total energy  :  -114.7530126 Eh     change       -0.3680608E-06 Eh
 * total energy  :  -114.7530129 Eh     change       -0.3302260E-06 Eh
 * total energy  :  -114.7530133 Eh     change       -0.3494354E-06 Eh
 * total energy  :  -114.7530133 Eh     change       -0.3002555E-08 Eh
   *** GEOMETRY OPTIMIZATION CONVERGED AFTER 94 ITERATIONS ***

 final structure:
================
67
 xtb: 6.7.1 (edcfbbe)
O           -0.03543348245201        4.59737350100699       -1.23409572646263
S            0.00002866460296        3.84332089899623        0.00008255898517
O            0.03549889121219        4.59730464878687        1.23430245493937
C            1.39601210845864        2.71811665849026       -0.03443895844973
C            2.11435304043702        2.47341827770773        1.12088565271770
C            3.13639473788511        1.54222351800477        1.10244170225787
C            3.43245719309466        0.85653491266978       -0.07598974614811
N            4.46015397794306       -0.10510683189127       -0.09596260840625
C            5.78460037882954        0.25588184552468        0.17933181973541
C            6.16074476063521        1.56943865090452        0.43261234970727
C            7.48308282630376        1.89235013061713        0.69837975796102
C            8.45447128759885        0.91141991934218        0.70345650629414
C            8.10143577607061       -0.39934835896051        0.41834555774135
C            6.78425561778175       -0.72553493777882        0.15071525900682
O            6.52146936914398       -2.03966142454130       -0.15631048679115
C            5.21641761112293       -2.37861801609389       -0.42458739843229
C            4.96404583545239       -3.70751979733442       -0.71401787412289
C            3.66873410095199       -4.13645472456097       -0.96340550042047
C            2.62935148535450       -3.23014235569111       -0.89925140185974
C            2.87809146510184       -1.89656079917136       -0.61075402396218
C            4.17381484118462       -1.44328029199291       -0.39366113776573
C            2.70311267010869        1.12182570418603       -1.23646193695279
C            1.68003235566923        2.05019606611015       -1.21222270444066
C           -1.39596675103498        2.71812977363747        0.03454276008830
C           -1.68002917818702        2.05019125199760        1.21230609124071
C           -2.70312008406354        1.12183113532221        1.23649879201221
C           -3.43243311580606        0.85656895132874        0.07600016013133
N           -4.46014532127350       -0.10505733228393        0.09592139674156
C           -5.78458016057611        0.25596703470587       -0.17938337876295
C           -6.16069330287430        1.56954109285433       -0.43262066074676
C           -7.48302322856388        1.89249246746920       -0.69837914377906
C           -8.45443390815966        0.91158479523035       -0.70349323530217
C           -8.10142823698796       -0.39920325425254       -0.41843717769278
C           -6.78425643542209       -0.72542957395972       -0.15081404192850
O           -6.52150099406912       -2.03957254397519        0.15616702051643
C           -5.21646742577297       -2.37855551266606        0.42449969102982
C           -4.96413457441101       -3.70746354564951        0.71393521901358
C           -3.66884233216136       -4.13642507410735        0.96337830264323
C           -2.62943875150930       -3.23013351908500        0.89927170048184
C           -2.87813977059326       -1.89654544300975        0.61077038545785
C           -4.17384482946048       -1.44323800170228        0.39362409999060
C           -3.13632847346167        1.54227590424973       -1.10241016040510
C           -2.11427624400357        2.47345986364403       -1.12080762930035
H            1.86302633386138        3.01889926950173        2.01688047015269
H            3.70148094759139        1.33367297241884        1.99818611313670
H            5.41747653358078        2.35065753445972        0.41422264981359
H            7.74375678353615        2.92054073364712        0.89703368220542
H            9.48371778328823        1.15549794706813        0.91411668525944
H            8.83755241182656       -1.18741765667511        0.39213955276549
H            5.79765188935392       -4.39180018606593       -0.73475688372328
H            3.48294562770867       -5.17380641692110       -1.19289646954733
H            1.61342711609714       -3.55111907680073       -1.07057669222857
H            2.05369695680868       -1.20433178522860       -0.54767176218236
H            2.94611240848122        0.59918074043882       -2.14912260720456
H            1.11086633607883        2.28084459710096       -2.09847855128053
H           -1.11088512374088        2.28081793379957        2.09858190035953
H           -2.94615329269129        0.59917407480232        2.14914375767976
H           -5.41740822525043        2.35074323684408       -0.41419220680370
H           -7.74366993654240        2.92069327151343       -0.89701675138221
H           -9.48366816759770        1.15568810514140       -0.91418439171498
H           -8.83755968810938       -1.18726062346607       -0.39228387818761
H           -5.79775470687762       -4.39172810085170        0.73463120686151
H           -3.48308421627988       -5.17378186273829        1.19287087515781
H           -1.61352821438669       -3.55113125035688        1.07063977495881
H           -2.05372864001039       -1.20433283778642        0.54772566315797
H           -3.70139265832098        1.33374883261243       -1.99817390043092
H           -1.86292065248486        3.01895688347891       -2.01678454339178

          :  Hamiltonian                  GFN2-xTB          :
         :: gradient norm              0.000046499142 Eh/a0 ::
         :: HOMO-LUMO gap              1.969120184562 eV    ::
         :: SCC energy              -116.614840760819 Eh    ::
         :: -> dispersion             -0.093968614329 Eh    ::
         :: -> Gsolv                  -0.052835967929 Eh    ::
         :: repulsion energy           1.861827490601 Eh    ::

    * Orbital Energies and Occupations

         #    Occupation            Energy/Eh            Energy/eV
      -------------------------------------------------------------
         1        2.0000           -0.7798996             -21.2221
       ...           ...                  ...                  ...
        92        2.0000           -0.4317624             -11.7489
        93        2.0000           -0.4292743             -11.6811
        94        2.0000           -0.4284959             -11.6600
        95        2.0000           -0.4272918             -11.6272
        96        2.0000           -0.4191184             -11.4048
        97        2.0000           -0.4191179             -11.4048
        98        2.0000           -0.4170331             -11.3480
        99        2.0000           -0.4162689             -11.3273
       100        2.0000           -0.4132939             -11.2463
       101        2.0000           -0.3941994             -10.7267
       102        2.0000           -0.3940861             -10.7236
       103        2.0000           -0.3489563              -9.4956
       104        2.0000           -0.3484252              -9.4811 (HOMO)
       105                         -0.2760614              -7.5120 (LUMO)
       106                         -0.2592257              -7.0539
       107                         -0.2549998              -6.9389
       108                         -0.2543614              -6.9215
       109                         -0.2418941              -6.5823
       110                         -0.2418941              -6.5823
       111                         -0.2332380              -6.3467
       112                         -0.2332377              -6.3467
       113                         -0.2190001              -5.9593
       114                         -0.2184254              -5.9437
       115                         -0.2001241              -5.4457
       ...                                ...                  ...
       201                          1.1671672              31.7602
      -------------------------------------------------------------
                  HL-Gap            0.0723638 Eh            1.9691 eV

     #   Z          covCN         q      C6AA      α(0)
     1   8 O        0.860    -0.573    25.472     6.767
     2  16 S        3.819     0.942   108.345    17.519
     3   8 O        0.860    -0.573    25.472     6.767
     4   6 C        2.971    -0.078    29.933     8.974
     5   6 C        2.953    -0.024    28.592     8.770
     6   6 C        2.923    -0.035    28.877     8.812
     7   6 C        2.920     0.073    26.361     8.420
     8   7 N        2.751    -0.065    22.495     7.044
     9   6 C        2.920     0.040    27.104     8.537
    10   6 C        2.923    -0.061    29.507     8.908
    11   6 C        2.919    -0.038    28.950     8.823
    12   6 C        2.919    -0.040    28.986     8.829
    13   6 C        2.920    -0.057    29.417     8.894
    14   6 C        2.883     0.124    25.281     8.243
    15   8 O        1.708    -0.268    18.446     5.799
    16   6 C        2.883     0.124    25.277     8.242
    17   6 C        2.920    -0.057    29.413     8.894
    18   6 C        2.919    -0.040    28.984     8.828
    19   6 C        2.919    -0.038    28.953     8.824
    20   6 C        2.924    -0.061    29.516     8.909
    21   6 C        2.921     0.040    27.112     8.539
    22   6 C        2.923    -0.035    28.871     8.811
    23   6 C        2.959    -0.026    28.651     8.780
    24   6 C        2.971    -0.078    29.933     8.974
    25   6 C        2.959    -0.026    28.651     8.780
    26   6 C        2.923    -0.035    28.871     8.811
    27   6 C        2.920     0.073    26.361     8.420
    28   7 N        2.751    -0.065    22.495     7.044
    29   6 C        2.920     0.040    27.104     8.537
    30   6 C        2.923    -0.061    29.507     8.908
    31   6 C        2.919    -0.038    28.950     8.823
    32   6 C        2.919    -0.040    28.986     8.829
    33   6 C        2.920    -0.057    29.417     8.894
    34   6 C        2.883     0.124    25.281     8.243
    35   8 O        1.708    -0.268    18.446     5.799
    36   6 C        2.883     0.124    25.277     8.242
    37   6 C        2.920    -0.057    29.413     8.894
    38   6 C        2.919    -0.040    28.984     8.828
    39   6 C        2.919    -0.038    28.953     8.824
    40   6 C        2.924    -0.061    29.516     8.909
    41   6 C        2.921     0.040    27.112     8.539
    42   6 C        2.923    -0.035    28.877     8.812
    43   6 C        2.953    -0.024    28.592     8.770
    44   1 H        0.926     0.066     2.128     2.281
    45   1 H        0.926     0.069     2.101     2.267
    46   1 H        0.926     0.040     2.449     2.447
    47   1 H        0.926     0.043     2.414     2.430
    48   1 H        0.926     0.044     2.397     2.421
    49   1 H        0.926     0.050     2.316     2.380
    50   1 H        0.926     0.050     2.320     2.382
    51   1 H        0.926     0.045     2.388     2.417
    52   1 H        0.926     0.045     2.384     2.415
    53   1 H        0.926     0.041     2.435     2.440
    54   1 H        0.926     0.069     2.100     2.266
    55   1 H        0.926     0.063     2.168     2.302
    56   1 H        0.926     0.063     2.168     2.302
    57   1 H        0.926     0.069     2.100     2.266
    58   1 H        0.926     0.040     2.449     2.447
    59   1 H        0.926     0.043     2.414     2.430
    60   1 H        0.926     0.044     2.397     2.421
    61   1 H        0.926     0.050     2.316     2.380
    62   1 H        0.926     0.050     2.320     2.382
    63   1 H        0.926     0.045     2.388     2.417
    64   1 H        0.926     0.045     2.384     2.415
    65   1 H        0.926     0.041     2.435     2.440
    66   1 H        0.926     0.069     2.101     2.267
    67   1 H        0.926     0.066     2.128     2.281

molecular dipole:
                 x           y           z       tot (Debye)
 q only:       -0.000      -2.264      -0.000
   full:       -0.000      -1.985      -0.000       5.046

 projected vibrational frequencies (cm⁻¹)
eigval :       -0.00    -0.00    -0.00     0.00     0.00     0.00
eigval :        7.87    13.59    21.66    28.41    32.37    32.53
eigval :       44.79    55.51    56.80    63.56    65.59   107.35
eigval :      118.52   118.71   121.78   129.20   145.84   156.12
eigval :      194.65   197.97   198.70   247.54   249.54   257.24
eigval :      261.76   270.97   274.51   283.18   301.11   355.77
eigval :      360.52   362.94   368.58   373.44   373.74   387.45
eigval :      402.76   407.68   411.44   420.33   423.84   431.89
eigval :      431.97   447.47   448.45   473.23   488.83   509.45
eigval :      509.80   513.89   521.99   522.81   529.08   551.77
eigval :      551.85   585.86   586.91   594.96   602.51   604.02
eigval :      604.50   654.66   657.90   660.89   661.19   661.42
eigval :      662.96   683.30   686.85   712.37   726.86   778.25
eigval :      778.30   779.62   781.04   799.64   800.92   813.18
eigval :      817.84   853.87   854.04   863.99   864.13   866.41
eigval :      866.49   878.22   880.02   898.48   898.50   899.16
eigval :      899.91   909.59   913.12   913.86   914.26   915.32
eigval :      915.82   916.41   917.90   922.31   924.07   930.44
eigval :      931.49  1000.09  1004.34  1066.58  1089.08  1089.11
eigval :     1090.68  1091.07  1105.29  1106.13  1106.28  1112.11
eigval :     1112.92  1116.75  1120.89  1123.41  1164.99  1167.01
eigval :     1171.92  1172.47  1173.08  1174.54  1184.19  1185.96
eigval :     1194.59  1198.09  1199.01  1218.23  1218.86  1239.05
eigval :     1240.36  1245.59  1247.97  1260.35  1260.54  1302.20
eigval :     1303.08  1303.27  1304.39  1314.87  1315.62  1330.53
eigval :     1330.82  1350.43  1350.44  1392.84  1394.26  1421.60
eigval :     1421.64  1439.27  1439.41  1455.10  1455.22  1479.00
eigval :     1479.66  1500.42  1501.00  1565.20  1565.69  1566.37
eigval :     1566.41  1570.85  1572.22  1578.83  1578.85  1587.92
eigval :     1587.99  1600.80  1600.86  3088.72  3088.72  3089.65
eigval :     3090.14  3093.82  3093.96  3095.16  3095.38  3096.97
eigval :     3096.98  3097.73  3097.77  3104.80  3104.80  3105.65
eigval :     3105.93  3106.22  3106.28  3108.61  3108.88  3109.81
eigval :     3109.81  3110.98  3111.05

   temp. (K)  partition function   enthalpy   heat capacity  entropy
                                   cal/mol     cal/K/mol   cal/K/mol   J/K/mol
 298.15  VIB  0.332E+16            19950.709    126.391    123.358
         ROT  0.354E+08              888.752      2.981     37.522
         INT  0.117E+24            20839.462    129.372    160.880
         TR   0.135E+29             1481.254      4.968     44.941
         TOT                       22320.7155   134.3400   205.8204   861.1524

       T/K    H(0)-H(T)+PV         H(T)/Eh          T*S/Eh         G(T)/Eh
   ------------------------------------------------------------------------
    298.15    0.355703E-01    0.530112E+00    0.977919E-01    0.432320E+00
   ------------------------------------------------------------------------

         :::::::::::::::::::::::::::::::::::::::::::::::::::::
         ::                  THERMODYNAMIC                  ::
         :::::::::::::::::::::::::::::::::::::::::::::::::::::
         :: total free energy        -114.320693655339 Eh   ::
         ::.................................................::
         :: total energy             -114.753013264699 Eh   ::
         :: zero point energy           0.494541177382 Eh   ::
         :: G(RRHO) w/o ZPVE           -0.062221568022 Eh   ::
         :: G(RRHO) contrib.            0.432319609360 Eh   ::
         :::::::::::::::::::::::::::::::::::::::::::::::::::::

           -------------------------------------------------
          | TOTAL ENERGY             -114.753013264699 Eh   |
          | TOTAL ENTHALPY           -114.222901763098 Eh   |
          | TOTAL FREE ENERGY        -114.320693655339 Eh   |
          | GRADIENT NORM               0.000046496890 Eh/α |
          | HOMO-LUMO GAP               1.969119670315 eV   |
           -------------------------------------------------

 * finished run on 2025/09/08 at 07:21:39.547
