   * xtb version 6.7.1 (edcfbbe) compiled by 'albert@albert-system' on 2024-07-22

   ID    Z sym.   atoms
    1    8 O      1, 3, 15, 35
    2   16 S      2
    3    6 C      4-7, 9-14, 16-27, 29-34, 36-43
    4    7 N      8, 28
    5    1 H      44-67

          program call               : xtb data2507/toluene/DPS-PXZ/DPS-PXZ_toluene_S0_crest.xyz --gfn 2 --gbsa toluene --ohess vtight --parallel 40 --molden --ceasefiles --namespace data2507/toluene/DPS-PXZ/DPS-PXZ_toluene_S0_finalOpt
      * Solvation model:               GBSA
        Solvent                        toluene
        Solvent mass                       9.2140E+01 g/mol
          :  Hamiltonian                  GFN2-xTB          :
 * total energy  :  -114.7511362 Eh     change       -0.5383214E-09 Eh
 * total energy  :  -114.7512732 Eh     change       -0.1370015E-03 Eh
 * total energy  :  -114.7513563 Eh     change       -0.8307206E-04 Eh
 * total energy  :  -114.7513788 Eh     change       -0.2246813E-04 Eh
 * total energy  :  -114.7514129 Eh     change       -0.3409622E-04 Eh
 * total energy  :  -114.7514394 Eh     change       -0.2654915E-04 Eh
 * total energy  :  -114.7514647 Eh     change       -0.2529925E-04 Eh
 * total energy  :  -114.7514921 Eh     change       -0.2734639E-04 Eh
 * total energy  :  -114.7515193 Eh     change       -0.2726625E-04 Eh
 * total energy  :  -114.7515461 Eh     change       -0.2677059E-04 Eh
 * total energy  :  -114.7528804 Eh     change       -0.6463426E-06 Eh
 * total energy  :  -114.7528811 Eh     change       -0.7017793E-06 Eh
 * total energy  :  -114.7528818 Eh     change       -0.7896711E-06 Eh
 * total energy  :  -114.7528827 Eh     change       -0.8823060E-06 Eh
 * total energy  :  -114.7528837 Eh     change       -0.9543325E-06 Eh
 * total energy  :  -114.7528847 Eh     change       -0.9807542E-06 Eh
 * total energy  :  -114.7528856 Eh     change       -0.9611411E-06 Eh
 * total energy  :  -114.7528865 Eh     change       -0.9086465E-06 Eh
 * total energy  :  -114.7528865 Eh     change       -0.5370595E-08 Eh
   *** GEOMETRY OPTIMIZATION CONVERGED AFTER 122 ITERATIONS ***

 final structure:
================
67
 xtb: 6.7.1 (edcfbbe)
O           -0.13316763120170        4.57934646466745       -1.20780057261475
S           -0.01357176780281        3.82188395815942        0.01856411134161
O            0.10059971105481        4.56988981613766        1.25122944888770
C            1.36149951138147        2.67873235437543       -0.11033347592484
C            2.08150938009400        2.33860757833017        1.01983305987466
C            3.03916595983203        1.34438453995359        0.94319049884102
C            3.26767349927628        0.68930004038864       -0.26744595721924
N            4.20896920677357       -0.35439844755810       -0.34102884007528
C            5.55942840951311       -0.12369637211115       -0.05381137168922
C            6.05153386762143        1.14347039558393        0.23452471621048
C            7.39669350767457        1.33835436934987        0.50991640785681
C            8.27532338613577        0.27364218271871        0.48972300387569
C            7.80646110714543       -0.99196951084868        0.16962471841206
C            6.46604918448889       -1.19051457705468       -0.10752891488544
O            6.08552574211648       -2.46678033409646       -0.44870116866469
C            4.75758808664810       -2.67630112314013       -0.73632507839936
C            4.38843816950075       -3.96751491412669       -1.06811581287836
C            3.06227238587812       -4.26917749755197       -1.34042401961632
C            2.10903409018420       -3.27407252011025       -1.25751340533200
C            2.47487550941600       -1.97823965080082       -0.92488470324970
C            3.80394336891128       -1.65109831250775       -0.68331412016036
C            2.54868576523009        1.06097354046575       -1.40489173371368
C            1.58943514531549        2.05196307801241       -1.32235039238959
C           -1.38044569568317        2.66789958821762        0.13779701413961
C           -1.60489098021570        2.03037989799946        1.34485521837454
C           -2.55719190198859        1.03205777962947        1.41906149942637
C           -3.27275834791326        0.66405900215435        0.27825404572296
N           -4.20702783361696       -0.38649551924089        0.34335291852675
C           -5.55901198377772       -0.16279946880375        0.05773154499087
C           -6.05936347047006        1.10272909292890       -0.22349021963047
C           -7.40578162817930        1.29041955633889       -0.49774255484630
C           -8.27746672702559        0.21992577254745       -0.48357728194720
C           -7.80041582295758       -1.04434047489894       -0.17036340067896
C           -6.45872251357830       -1.23573396953700        0.10561669850600
O           -6.07002340454688       -2.51136903814925        0.43989090022379
C           -4.74052377294717       -2.71422226767688        0.72503312565492
C           -4.36283849923208       -4.00499183392086        1.04885535917986
C           -3.03448865418008       -4.29976979671144        1.31807200944799
C           -2.08766331976504       -3.29816225038185        1.24002918729310
C           -2.46209441537466       -2.00275222452598        0.91542597342000
C           -3.79348943034252       -1.68267774875726        0.67724603858239
C           -3.04781368810632        1.32974979155554       -0.92723356661454
C           -2.09717988390473        2.33129829049389       -0.99550409507109
H            1.87824460563954        2.85619713275378        1.94400516763222
H            3.60076254649817        1.05857579600070        1.81959307193507
H            5.38109212735814        1.98823406525459        0.23606366422895
H            7.74897097572819        2.33293064029516        0.73628277976686
H            9.32162362174697        0.41818237990108        0.70797132740340
H            8.46838264622231       -1.84249432872932        0.12378437577885
H            5.15654795941379       -4.72403311812709       -1.10351051725433
H            2.78523785058727       -5.27793899840565       -1.60288143060322
H            1.07036928844433       -3.49512776028253       -1.44913461639826
H            1.71506616354711       -1.21717857389401       -0.84681410128897
H            2.74468488082915        0.56642428664716       -2.34403241705490
H            1.02310151162027        2.35904881652612       -2.18697691855488
H           -1.04132855182991        2.33482637735523        2.21222553537816
H           -2.75040213945765        0.52899397706485        2.35425807794747
H           -5.39452354247373        1.95190133810862       -0.22015367991845
H           -7.76451932237750        2.28394763052995       -0.71851616940818
H           -9.32468613239497        0.35890237350391       -0.70102826474219
H           -8.45680112077011       -1.89938190037871       -0.12912860445540
H           -5.12606979161091       -4.76660060235796        1.08050390105401
H           -2.75072888434332       -5.30829125774676        1.57420711282726
H           -1.04740662698344       -3.51376424666753        1.42921556630534
H           -1.70731555962875       -1.23632147709962        0.84111971260833
H           -3.60663291971467        1.04654686653408       -1.80625129354917
H           -1.89688755757142        2.85736464944426       -1.91552778341161

          :  Hamiltonian                  GFN2-xTB          :
         :: gradient norm              0.000060449972 Eh/a0 ::
         :: HOMO-LUMO gap              1.940434745128 eV    ::
         :: SCC energy              -116.614929521124 Eh    ::
         :: -> dispersion             -0.094575576961 Eh    ::
         :: -> Gsolv                  -0.052613452779 Eh    ::
         :: repulsion energy           1.862042985182 Eh    ::

    * Orbital Energies and Occupations

         #    Occupation            Energy/Eh            Energy/eV
      -------------------------------------------------------------
         1        2.0000           -0.7801580             -21.2292
       ...           ...                  ...                  ...
        92        2.0000           -0.4317915             -11.7496
        93        2.0000           -0.4289480             -11.6723
        94        2.0000           -0.4283849             -11.6569
        95        2.0000           -0.4272750             -11.6267
        96        2.0000           -0.4191298             -11.4051
        97        2.0000           -0.4191199             -11.4048
        98        2.0000           -0.4170133             -11.3475
        99        2.0000           -0.4162831             -11.3276
       100        2.0000           -0.4131009             -11.2410
       101        2.0000           -0.3942153             -10.7271
       102        2.0000           -0.3940806             -10.7235
       103        2.0000           -0.3490201              -9.4973
       104        2.0000           -0.3484277              -9.4812 (HOMO)
       105                         -0.2771180              -7.5408 (LUMO)
       106                         -0.2579486              -7.0191
       107                         -0.2551680              -6.9435
       108                         -0.2539190              -6.9095
       109                         -0.2419130              -6.5828
       110                         -0.2419040              -6.5825
       111                         -0.2332541              -6.3472
       112                         -0.2332523              -6.3471
       113                         -0.2190501              -5.9607
       114                         -0.2183542              -5.9417
       115                         -0.2001619              -5.4467
       ...                                ...                  ...
       201                          1.1687907              31.8044
      -------------------------------------------------------------
                  HL-Gap            0.0713097 Eh            1.9404 eV

     #   Z          covCN         q      C6AA      α(0)
     1   8 O        0.860    -0.572    25.438     6.762
     2  16 S        3.822     0.943   108.300    17.515
     3   8 O        0.860    -0.572    25.437     6.762
     4   6 C        2.971    -0.079    29.965     8.979
     5   6 C        2.953    -0.024    28.609     8.773
     6   6 C        2.923    -0.035    28.880     8.813
     7   6 C        2.920     0.073    26.367     8.421
     8   7 N        2.751    -0.065    22.491     7.044
     9   6 C        2.920     0.040    27.105     8.538
    10   6 C        2.924    -0.060    29.504     8.908
    11   6 C        2.919    -0.038    28.950     8.823
    12   6 C        2.919    -0.040    28.986     8.829
    13   6 C        2.919    -0.057    29.416     8.894
    14   6 C        2.883     0.124    25.282     8.243
    15   8 O        1.708    -0.268    18.444     5.798
    16   6 C        2.883     0.124    25.275     8.242
    17   6 C        2.920    -0.057    29.411     8.893
    18   6 C        2.919    -0.039    28.982     8.828
    19   6 C        2.919    -0.038    28.952     8.824
    20   6 C        2.924    -0.061    29.517     8.910
    21   6 C        2.921     0.040    27.113     8.539
    22   6 C        2.923    -0.035    28.877     8.812
    23   6 C        2.960    -0.026    28.660     8.781
    24   6 C        2.971    -0.079    29.965     8.979
    25   6 C        2.960    -0.026    28.659     8.781
    26   6 C        2.923    -0.035    28.877     8.812
    27   6 C        2.920     0.073    26.367     8.421
    28   7 N        2.751    -0.065    22.491     7.044
    29   6 C        2.920     0.040    27.105     8.538
    30   6 C        2.924    -0.060    29.504     8.908
    31   6 C        2.919    -0.038    28.950     8.823
    32   6 C        2.919    -0.040    28.986     8.829
    33   6 C        2.920    -0.057    29.416     8.894
    34   6 C        2.883     0.124    25.282     8.243
    35   8 O        1.708    -0.268    18.444     5.798
    36   6 C        2.883     0.124    25.275     8.242
    37   6 C        2.920    -0.057    29.411     8.893
    38   6 C        2.919    -0.039    28.981     8.828
    39   6 C        2.919    -0.038    28.952     8.824
    40   6 C        2.924    -0.061    29.517     8.910
    41   6 C        2.921     0.040    27.113     8.539
    42   6 C        2.923    -0.035    28.880     8.813
    43   6 C        2.953    -0.024    28.609     8.773
    44   1 H        0.926     0.066     2.133     2.284
    45   1 H        0.926     0.068     2.103     2.268
    46   1 H        0.926     0.040     2.447     2.446
    47   1 H        0.926     0.043     2.413     2.429
    48   1 H        0.926     0.044     2.397     2.421
    49   1 H        0.926     0.050     2.317     2.380
    50   1 H        0.926     0.050     2.319     2.381
    51   1 H        0.926     0.045     2.387     2.416
    52   1 H        0.926     0.045     2.381     2.413
    53   1 H        0.926     0.041     2.439     2.442
    54   1 H        0.926     0.069     2.099     2.265
    55   1 H        0.926     0.063     2.163     2.300
    56   1 H        0.926     0.063     2.163     2.300
    57   1 H        0.926     0.069     2.099     2.266
    58   1 H        0.926     0.040     2.447     2.446
    59   1 H        0.926     0.043     2.413     2.429
    60   1 H        0.926     0.044     2.397     2.421
    61   1 H        0.926     0.050     2.317     2.380
    62   1 H        0.926     0.050     2.319     2.381
    63   1 H        0.926     0.045     2.387     2.416
    64   1 H        0.926     0.045     2.381     2.413
    65   1 H        0.926     0.041     2.439     2.442
    66   1 H        0.926     0.068     2.102     2.267
    67   1 H        0.926     0.066     2.133     2.284

molecular dipole:
                 x           y           z       tot (Debye)
 q only:        0.008      -2.261      -0.011
   full:        0.007      -1.978      -0.009       5.027

 projected vibrational frequencies (cm⁻¹)
eigval :       -0.00    -0.00    -0.00     0.00     0.00     0.00
eigval :        9.55    15.68    25.09    26.55    35.83    37.89
eigval :       45.22    56.56    60.72    63.45    68.96   108.78
eigval :      118.87   119.04   122.77   126.67   151.08   154.44
eigval :      192.77   197.56   198.06   247.85   250.80   257.50
eigval :      263.41   271.31   274.87   282.25   300.02   355.08
eigval :      361.13   361.93   368.06   372.57   373.28   387.53
eigval :      402.22   407.87   412.00   419.50   424.02   432.32
eigval :      432.68   446.98   447.61   471.05   491.07   510.38
eigval :      510.86   513.58   522.47   524.00   528.64   551.99
eigval :      552.10   585.76   587.07   595.16   602.39   603.86
eigval :      604.39   654.68   658.03   661.90   662.35   662.95
eigval :      663.44   683.00   686.66   712.77   726.67   778.18
eigval :      780.42   780.57   781.01   799.58   800.47   813.42
eigval :      819.68   853.61   853.88   864.35   865.05   866.87
eigval :      867.61   879.02   882.16   898.15   898.95   901.09
eigval :      901.20   909.74   913.14   913.60   915.67   915.79
eigval :      917.30   917.45   918.55   922.99   925.96   931.52
eigval :      933.33   999.85  1003.91  1066.61  1088.70  1088.77
eigval :     1090.11  1090.65  1104.42  1105.78  1105.99  1112.01
eigval :     1112.97  1117.07  1120.34  1123.94  1164.50  1166.89
eigval :     1171.32  1173.48  1173.92  1174.12  1183.97  1185.71
eigval :     1196.06  1197.18  1198.55  1218.20  1218.97  1237.78
eigval :     1238.83  1244.49  1247.44  1257.33  1258.00  1301.54
eigval :     1302.32  1303.12  1304.70  1314.65  1315.86  1330.06
eigval :     1330.33  1350.21  1350.27  1392.71  1394.48  1421.52
eigval :     1421.65  1439.27  1439.38  1454.75  1455.10  1478.18
eigval :     1479.05  1499.62  1500.24  1565.20  1565.60  1565.91
eigval :     1566.06  1570.31  1572.06  1578.80  1578.87  1587.67
eigval :     1587.72  1600.73  1600.79  3088.51  3088.62  3089.56
eigval :     3089.73  3094.68  3095.07  3095.41  3095.83  3096.95
eigval :     3097.03  3097.82  3097.94  3104.88  3104.90  3106.03
eigval :     3106.22  3106.52  3106.73  3109.15  3109.46  3109.76
eigval :     3109.79  3111.09  3111.52

   temp. (K)  partition function   enthalpy   heat capacity  entropy
                                   cal/mol     cal/K/mol   cal/K/mol   J/K/mol
 298.15  VIB  0.152E+16            19913.597    126.640    122.762
         ROT  0.335E+08              888.752      2.981     37.413
         INT  0.510E+23            20802.350    129.621    160.175
         TR   0.135E+29             1481.254      4.968     44.941
         TOT                       22283.6037   134.5888   205.1157   858.2041

       T/K    H(0)-H(T)+PV         H(T)/Eh          T*S/Eh         G(T)/Eh
   ------------------------------------------------------------------------
    298.15    0.355112E-01    0.530137E+00    0.974571E-01    0.432680E+00
   ------------------------------------------------------------------------

         :::::::::::::::::::::::::::::::::::::::::::::::::::::
         ::                  THERMODYNAMIC                  ::
         :::::::::::::::::::::::::::::::::::::::::::::::::::::
         :: total free energy        -114.320206562717 Eh   ::
         ::.................................................::
         :: total energy             -114.752886533956 Eh   ::
         :: zero point energy           0.494625877282 Eh   ::
         :: G(RRHO) w/o ZPVE           -0.061945906043 Eh   ::
         :: G(RRHO) contrib.            0.432679971239 Eh   ::
         :::::::::::::::::::::::::::::::::::::::::::::::::::::

           -------------------------------------------------
          | TOTAL ENERGY             -114.752886533956 Eh   |
          | TOTAL ENTHALPY           -114.222749473780 Eh   |
          | TOTAL FREE ENERGY        -114.320206562717 Eh   |
          | GRADIENT NORM               0.000060450846 Eh/α |
          | HOMO-LUMO GAP               1.940434499914 eV   |
           -------------------------------------------------

 * finished run on 2025/09/08 at 07:28:06.426
