   * xtb version 6.7.1 (edcfbbe) compiled by 'albert@albert-system' on 2024-07-22

   ID    Z sym.   atoms
    1    6 C      1-4, 6-24, 26-35, 37-40, 42-64
    2    7 N      5, 25, 41
    3    8 O      36
    4    1 H      65-109

          program call               : xtb data2507/toluene/CDBP-BP-DMAC/CDBP-BP-DMAC.xyz --gfn 2 --gbsa toluene --ohess vtight --parallel 40 --molden --ceasefiles --namespace data2507/toluene/CDBP-BP-DMAC/CDBP-BP-DMAC_toluene_S0_preOpt
      * Solvation model:               GBSA
        Solvent                        toluene
        Solvent mass                       9.2140E+01 g/mol
          :  Hamiltonian                  GFN2-xTB          :
 * total energy  :  -164.4183538 Eh     change       -0.1032930E-07 Eh
 * total energy  :  -164.4394586 Eh     change       -0.2110485E-01 Eh
 * total energy  :  -164.4455192 Eh     change       -0.6060524E-02 Eh
 * total energy  :  -164.4467550 Eh     change       -0.1235886E-02 Eh
 * total energy  :  -164.4476880 Eh     change       -0.9329561E-03 Eh
 * total energy  :  -164.4482304 Eh     change       -0.5424133E-03 Eh
 * total energy  :  -164.4485830 Eh     change       -0.3525543E-03 Eh
 * total energy  :  -164.4488179 Eh     change       -0.2349708E-03 Eh
 * total energy  :  -164.4489623 Eh     change       -0.1443370E-03 Eh
 * total energy  :  -164.4490593 Eh     change       -0.9707780E-04 Eh
 * total energy  :  -164.4501459 Eh     change       -0.6475658E-06 Eh
 * total energy  :  -164.4501464 Eh     change       -0.5092007E-06 Eh
 * total energy  :  -164.4501468 Eh     change       -0.3660620E-06 Eh
 * total energy  :  -164.4501471 Eh     change       -0.3039493E-06 Eh
 * total energy  :  -164.4501474 Eh     change       -0.3208762E-06 Eh
 * total energy  :  -164.4501477 Eh     change       -0.3496469E-06 Eh
 * total energy  :  -164.4501482 Eh     change       -0.4726153E-06 Eh
 * total energy  :  -164.4501487 Eh     change       -0.4948328E-06 Eh
 * total energy  :  -164.4501487 Eh     change       -0.5673002E-08 Eh
   *** GEOMETRY OPTIMIZATION CONVERGED AFTER 122 ITERATIONS ***

 final structure:
================
109
 xtb: 6.7.1 (edcfbbe)
C            6.85819652952279        2.32897852736791       -1.32567153734530
C            7.27308507347010        1.07183567669284       -0.62303910264162
C            8.61440536903138        0.77501741094436       -0.43785653175069
C            9.00939597877468       -0.39057194514689        0.21000685121316
N           10.37546671840377       -0.66295075968817        0.39561584883876
C           11.29489073195031        0.18519948302044        0.97729316154866
C           11.10786817664085        1.44284958285319        1.53433278508304
C           12.20666405903430        2.07591332578887        2.08273307291610
C           13.46508992512868        1.47651815723791        2.08677242912333
C           13.65358391260268        0.21751728564923        1.55203946100010
C           12.56383242833076       -0.43999827195781        0.99493854663808
C           12.39061933407910       -1.72903515335515        0.38581866375901
C           13.25493900012359       -2.78006411560147        0.10581673242910
C           12.75162961559843       -3.90242663311804       -0.52154337811856
C           11.40695542079736       -3.98082270066100       -0.88030862731979
C           10.52781778076846       -2.94890333570643       -0.61337867445690
C           11.02340892502014       -1.82618185701252        0.03540454374900
C            8.04742778983876       -1.28086703416755        0.67281511175170
C            6.70881173720661       -0.99432847012100        0.48396317451313
C            6.31067744105012        0.17402785189723       -0.15259245542719
C            4.86513191503094        0.45118111686212       -0.32808916258409
C            4.23170465055378        0.08470741292273       -1.50839784755870
C            2.88130249632367        0.31641848334230       -1.69281298116880
C            2.14841774928097        0.91793609290624       -0.67734803386844
N            0.76817839588920        1.14887708895214       -0.83678636113267
C            0.12862893052080        2.36254897491362       -0.66577817759770
C            0.66415561404802        3.60801926594001       -0.37019026114576
C           -0.20708712782167        4.67693307548528       -0.27749123013470
C           -1.57734798619973        4.51927997677915       -0.47815456242215
C           -2.11378033238662        3.28514905870710       -0.78860476917217
C           -1.25713778122040        2.19610190452968       -0.88874434633626
C           -1.45333522332178        0.80604909330907       -1.19775175395599
C           -2.57498875965916        0.04484536654700       -1.47331046250307
C           -2.41742878597035       -1.31843363044269       -1.71595656960759
C           -3.56285453875713       -2.18594525268146       -2.03462653470236
O           -3.44258965326138       -3.20444225446024       -2.70459188007111
C           -4.89114086636829       -1.78616306863202       -1.49737198082544
C           -6.03122428407571       -2.03259793403585       -2.26004141641981
C           -7.28278659365400       -1.70257705971252       -1.77873612792259
C           -7.41163070537803       -1.14109021015783       -0.51238949868310
N           -8.69692975200488       -0.80548769009176       -0.00551010566829
C           -9.12555112302768        0.51078306020136       -0.07968097112900
C           -8.31515766359087        1.46680430231354       -0.69962475032283
C           -8.70999052089596        2.78566863047959       -0.78439027303457
C           -9.92719167025611        3.17475225434006       -0.25462260258404
C          -10.73701975716068        2.22748802229451        0.34515956193929
C          -10.36550836026249        0.89329869565162        0.44325455994915
C          -11.30748440497621       -0.09955339697502        1.09907621318488
C          -11.55019004209844        0.33720494797439        2.55618975461365
C          -12.63491407127919       -0.10898891986623        0.31770590247975
C          -10.73437650553488       -1.50499122854631        1.10321759664116
C          -11.46899327439478       -2.54138764790691        1.66344100746748
C          -10.99407048996594       -3.83955144350688        1.70846537526972
C           -9.74375041693761       -4.12037845433759        1.18741375536253
C           -8.99185221437867       -3.10981068240084        0.62544516616369
C           -9.47565943408383       -1.79925005783724        0.56791395289686
C           -6.27983324961917       -0.91605306188696        0.26455829066095
C           -5.02736103734937       -1.23365411125030       -0.22475292243071
C           -1.13476402515875       -1.89473643198656       -1.69262225030675
C           -0.01000661027175       -1.15822242392598       -1.40240500304090
C           -0.16861990977279        0.20340697244721       -1.16060399956153
C            2.77754087703966        1.28621754416009        0.50624808624183
C            4.13269836593581        1.06266844061735        0.69371609930001
C            4.79752846450159        1.45023281499775        1.97932625922090
H            6.14701125595495        2.89057878782922       -0.72193650241008
H            7.71968017545646        2.95849006608617       -1.53347015431081
H            6.36713552454192        2.08964577652106       -2.26833832660252
H            9.37099447837420        1.45079888113481       -0.80998979235626
H           10.13397541028703        1.90852554810244        1.54909270186573
H           12.08781065944337        3.05632780509868        2.52103151618945
H           14.30002164184281        2.00487828416438        2.52368573077805
H           14.62608402399455       -0.25202141975009        1.56821336048185
H           14.29967788213549       -2.71514732627758        0.37176435575204
H           13.40721181239448       -4.73116281507676       -0.74634744265910
H           11.04532500887746       -4.86711417957196       -1.38152165194683
H            9.49103771733043       -3.01208487548747       -0.90806867281628
H            8.35011204170647       -2.18170504645963        1.18510206097284
H            5.95685712026772       -1.68344336132482        0.84099390439488
H            4.80722153940651       -0.38742241120839       -2.29159029485990
H            2.39703292338452        0.04194553528486       -2.61785717923966
H            1.72550653812505        3.74032822311598       -0.22631162934344
H            0.18280853855221        5.65767796681461       -0.04766804273595
H           -2.22507441281448        5.37953796416082       -0.39536112525225
H           -3.17381214185647        3.16553020221891       -0.95478359806012
H           -3.54937786024778        0.50593766978659       -1.52239056795403
H           -5.91624064351680       -2.47720001099545       -3.23784738077327
H           -8.16608468450375       -1.88339513234577       -2.37318020124746
H           -7.36808057382893        1.16717832199657       -1.12190790544377
H           -8.06633049474273        3.50666701315615       -1.26699403239288
H          -10.24748799919315        4.20429472290508       -0.31189939937364
H          -11.68780732393969        2.54390244663075        0.74681623297334
H          -11.97354763598124        1.33707656541800        2.59557643448883
H          -12.23487118742883       -0.34257006651370        3.05569496541527
H          -10.60909359722021        0.34054256377817        3.10379190404556
H          -13.34313113899430       -0.80095311354473        0.76487881257248
H          -12.45719956329346       -0.41702168269820       -0.71146248504091
H          -13.08593064695220        0.87936258241956        0.30672895249074
H          -12.44305362677446       -2.33583617664532        2.08106061978099
H          -11.59319596259433       -4.62160183608816        2.15041820027701
H           -9.34900415534714       -5.12555306344106        1.21799577006663
H           -8.01454233980012       -3.33543566692470        0.22651166727448
H           -6.39098379007038       -0.49240099292465        1.25175598303887
H           -4.15396881421902       -1.07603042332526        0.38999523301697
H           -1.05768245374601       -2.95335039855075       -1.89380757172376
H            0.96234462068569       -1.62409410063845       -1.35906877277212
H            2.19389770343217        1.74076937153825        1.29365055910190
H            5.04764724928069        0.55939012380659        2.55514636110964
H            4.14329351346781        2.07656522870772        2.58044068952184
H            5.72631743280473        1.98462178772735        1.78855489268067

          :  Hamiltonian                  GFN2-xTB          :
         :: gradient norm              0.000056289100 Eh/a0 ::
         :: HOMO-LUMO gap              1.575578015504 eV    ::
         :: SCC energy              -167.453164023874 Eh    ::
         :: -> dispersion             -0.152588457644 Eh    ::
         :: -> Gsolv                  -0.070299252586 Eh    ::
         :: repulsion energy           3.003015317948 Eh    ::

    * Orbital Energies and Occupations

         #    Occupation            Energy/Eh            Energy/eV
      -------------------------------------------------------------
         1        2.0000           -0.7060569             -19.2128
       ...           ...                  ...                  ...
       141        2.0000           -0.4065115             -11.0617
       142        2.0000           -0.4040537             -10.9949
       143        2.0000           -0.4026022             -10.9554
       144        2.0000           -0.4012255             -10.9179
       145        2.0000           -0.3984945             -10.8436
       146        2.0000           -0.3971679             -10.8075
       147        2.0000           -0.3928422             -10.6898
       148        2.0000           -0.3918101             -10.6617
       149        2.0000           -0.3878965             -10.5552
       150        2.0000           -0.3774219             -10.2702
       151        2.0000           -0.3710028             -10.0955
       152        2.0000           -0.3606347              -9.8134
       153        2.0000           -0.3459276              -9.4132 (HOMO)
       154                         -0.2880262              -7.8376 (LUMO)
       155                         -0.2539610              -6.9106
       156                         -0.2447845              -6.6609
       157                         -0.2418555              -6.5812
       158                         -0.2400649              -6.5325
       159                         -0.2349036              -6.3921
       160                         -0.2304123              -6.2698
       161                         -0.2297476              -6.2518
       162                         -0.2271536              -6.1812
       163                         -0.2234707              -6.0809
       164                         -0.2208521              -6.0097
       ...                                ...                  ...
       301                          0.7456989              20.2915
      -------------------------------------------------------------
                  HL-Gap            0.0579014 Eh            1.5756 eV

     #   Z          covCN         q      C6AA      α(0)
     1   6 C        3.758    -0.109    22.641     6.784
     2   6 C        2.969     0.017    27.620     8.620
     3   6 C        2.927    -0.053    29.324     8.880
     4   6 C        2.911     0.060    26.655     8.466
     5   7 N        2.802    -0.047    22.153     6.990
     6   6 C        3.077     0.048    26.846     8.495
     7   6 C        2.909    -0.052    29.301     8.876
     8   6 C        2.924    -0.036    28.888     8.814
     9   6 C        2.919    -0.043    29.080     8.843
    10   6 C        2.912    -0.035    28.880     8.812
    11   6 C        3.067    -0.020    28.427     8.743
    12   6 C        3.067    -0.020    28.428     8.743
    13   6 C        2.912    -0.035    28.881     8.812
    14   6 C        2.919    -0.043    29.079     8.843
    15   6 C        2.924    -0.036    28.886     8.814
    16   6 C        2.909    -0.052    29.298     8.876
    17   6 C        3.077     0.048    26.848     8.495
    18   6 C        2.920    -0.048    29.186     8.859
    19   6 C        2.924    -0.034    28.836     8.806
    20   6 C        2.982     0.002    27.968     8.675
    21   6 C        2.982     0.005    27.903     8.665
    22   6 C        2.924    -0.033    28.811     8.802
    23   6 C        2.920    -0.047    29.161     8.855
    24   6 C        2.912     0.057    26.724     8.477
    25   7 N        2.803    -0.032    21.861     6.944
    26   6 C        3.081     0.048    26.846     8.494
    27   6 C        2.909    -0.049    29.205     8.861
    28   6 C        2.924    -0.032    28.805     8.802
    29   6 C        2.920    -0.040    28.982     8.828
    30   6 C        2.912    -0.032    28.809     8.801
    31   6 C        3.066    -0.017    28.357     8.732
    32   6 C        3.067    -0.015    28.322     8.726
    33   6 C        2.913    -0.030    28.748     8.792
    34   6 C        2.972    -0.029    28.709     8.789
    35   6 C        2.830     0.225    23.278     7.906
    36   8 O        0.858    -0.433    22.352     6.339
    37   6 C        2.972    -0.013    28.330     8.731
    38   6 C        2.924    -0.017    28.445     8.746
    39   6 C        2.919    -0.036    28.892     8.815
    40   6 C        2.927     0.076    26.295     8.409
    41   7 N        2.754    -0.074    22.677     7.073
    42   6 C        2.928     0.059    26.688     8.472
    43   6 C        2.924    -0.060    29.493     8.906
    44   6 C        2.919    -0.035    28.867     8.811
    45   6 C        2.917    -0.047    29.158     8.855
    46   6 C        2.928    -0.038    28.933     8.821
    47   6 C        2.979    -0.014    28.356     8.735
    48   6 C        3.908     0.021    20.165     6.383
    49   6 C        3.761    -0.103    22.520     6.765
    50   6 C        3.761    -0.103    22.521     6.765
    51   6 C        2.979    -0.014    28.359     8.735
    52   6 C        2.928    -0.038    28.937     8.822
    53   6 C        2.917    -0.047    29.156     8.855
    54   6 C        2.919    -0.035    28.865     8.810
    55   6 C        2.924    -0.060    29.493     8.906
    56   6 C        2.927     0.059    26.687     8.472
    57   6 C        2.920    -0.036    28.902     8.816
    58   6 C        2.921    -0.025    28.636     8.775
    59   6 C        2.928    -0.023    28.583     8.768
    60   6 C        2.907    -0.049    29.209     8.862
    61   6 C        3.078     0.054    26.700     8.471
    62   6 C        2.927    -0.052    29.294     8.876
    63   6 C        2.969     0.019    27.578     8.614
    64   6 C        3.758    -0.110    22.653     6.786
    65   1 H        0.925     0.051     2.304     2.374
    66   1 H        0.925     0.046     2.364     2.405
    67   1 H        0.925     0.052     2.292     2.368
    68   1 H        0.926     0.041     2.431     2.438
    69   1 H        0.926     0.031     2.574     2.509
    70   1 H        0.926     0.029     2.598     2.521
    71   1 H        0.926     0.026     2.644     2.543
    72   1 H        0.926     0.028     2.615     2.529
    73   1 H        0.926     0.028     2.611     2.527
    74   1 H        0.926     0.026     2.645     2.543
    75   1 H        0.926     0.028     2.609     2.526
    76   1 H        0.926     0.029     2.598     2.520
    77   1 H        0.926     0.039     2.466     2.456
    78   1 H        0.926     0.037     2.490     2.468
    79   1 H        0.926     0.039     2.461     2.453
    80   1 H        0.926     0.041     2.439     2.442
    81   1 H        0.926     0.038     2.478     2.461
    82   1 H        0.926     0.036     2.503     2.474
    83   1 H        0.926     0.033     2.544     2.494
    84   1 H        0.926     0.034     2.527     2.486
    85   1 H        0.926     0.042     2.421     2.433
    86   1 H        0.926     0.050     2.318     2.381
    87   1 H        0.926     0.051     2.309     2.376
    88   1 H        0.926     0.022     2.701     2.570
    89   1 H        0.926     0.027     2.635     2.538
    90   1 H        0.926     0.026     2.649     2.545
    91   1 H        0.926     0.032     2.554     2.499
    92   1 H        0.925     0.042     2.426     2.436
    93   1 H        0.925     0.041     2.431     2.438
    94   1 H        0.925     0.030     2.586     2.515
    95   1 H        0.925     0.041     2.430     2.438
    96   1 H        0.925     0.030     2.592     2.518
    97   1 H        0.925     0.042     2.428     2.437
    98   1 H        0.926     0.033     2.550     2.497
    99   1 H        0.926     0.025     2.652     2.547
   100   1 H        0.926     0.026     2.649     2.545
   101   1 H        0.926     0.022     2.702     2.571
   102   1 H        0.926     0.052     2.290     2.366
   103   1 H        0.926     0.051     2.305     2.374
   104   1 H        0.926     0.044     2.402     2.423
   105   1 H        0.926     0.043     2.412     2.428
   106   1 H        0.926     0.045     2.385     2.415
   107   1 H        0.925     0.054     2.276     2.359
   108   1 H        0.925     0.048     2.341     2.393
   109   1 H        0.925     0.051     2.302     2.373

molecular dipole:
                 x           y           z       tot (Debye)
 q only:        0.755       2.180       1.080
   full:        0.785       2.095       1.047       6.278

 projected vibrational frequencies (cm⁻¹)
eigval :       -0.00    -0.00     0.00     0.00     0.00     0.00
eigval :        4.13     7.56    10.22    12.98    15.31    19.36
eigval :       25.11    33.43    37.68    41.06    43.81    50.19
eigval :       53.46    57.03    62.71    71.48    75.42    83.39
eigval :       88.31    92.05    98.44   103.92   107.20   120.01
eigval :      130.64   132.70   135.94   142.66   155.92   167.14
eigval :      170.63   186.10   190.32   191.73   208.15   213.28
eigval :      215.91   220.54   226.11   234.25   239.64   246.35
eigval :      272.93   277.14   283.74   295.00   305.29   315.75
eigval :      319.60   331.01   335.72   345.50   348.51   358.58
eigval :      375.83   378.55   388.79   391.86   396.26   401.54
eigval :      409.10   412.03   417.90   421.15   426.55   427.57
eigval :      431.84   442.39   451.48   455.07   462.78   475.74
eigval :      489.43   493.93   509.29   514.83   517.31   518.46
eigval :      529.35   535.44   541.48   543.44   547.23   551.83
eigval :      553.70   558.31   567.70   581.38   587.45   588.30
eigval :      594.17   600.98   607.18   622.12   625.48   630.40
eigval :      647.36   665.04   673.00   674.51   681.91   685.36
eigval :      692.94   694.41   696.41   700.40   707.72   709.19
eigval :      713.55   732.86   734.82   744.59   754.96   768.59
eigval :      774.36   777.18   778.52   779.93   807.23   817.59
eigval :      826.09   828.41   834.48   839.49   842.31   844.22
eigval :      862.04   866.80   868.61   870.77   872.08   873.83
eigval :      881.76   888.76   889.16   893.05   898.41   901.51
eigval :      902.67   906.52   912.04   912.38   914.29   915.56
eigval :      918.56   919.18   919.56   921.54   922.13   922.63
eigval :      925.73   926.31   927.39   931.19   938.54   958.04
eigval :      964.52   991.29   995.96   997.69  1010.43  1013.94
eigval :     1017.64  1023.50  1024.18  1029.40  1030.40  1032.59
eigval :     1068.41  1068.74  1071.89  1076.29  1085.64  1111.80
eigval :     1114.62  1118.50  1119.30  1126.96  1128.84  1139.18
eigval :     1148.68  1150.27  1151.53  1158.55  1161.49  1171.03
eigval :     1171.30  1174.65  1179.92  1180.29  1181.05  1182.79
eigval :     1185.46  1186.68  1202.08  1204.70  1217.81  1225.89
eigval :     1235.48  1236.69  1242.20  1244.39  1248.56  1251.53
eigval :     1252.07  1254.76  1258.19  1267.19  1282.40  1290.54
eigval :     1293.24  1301.30  1302.86  1307.67  1308.63  1310.78
eigval :     1312.99  1316.87  1324.07  1333.57  1338.16  1352.72
eigval :     1355.19  1358.54  1361.06  1363.67  1374.23  1397.05
eigval :     1399.89  1402.03  1407.66  1412.31  1416.22  1418.35
eigval :     1425.37  1427.46  1435.55  1437.42  1440.24  1441.86
eigval :     1469.01  1469.70  1471.54  1472.01  1472.70  1475.25
eigval :     1477.29  1481.27  1483.42  1483.74  1486.69  1487.44
eigval :     1488.09  1495.83  1496.69  1502.87  1507.30  1556.07
eigval :     1558.39  1563.00  1566.30  1572.88  1573.74  1575.94
eigval :     1582.12  1586.63  1587.19  1589.78  1590.43  1595.25
eigval :     1596.10  1597.37  1600.82  1607.27  1613.58  1642.51
eigval :     3004.60  3006.06  3020.67  3023.15  3023.36  3028.23
eigval :     3038.43  3040.41  3043.45  3044.22  3047.17  3051.23
eigval :     3069.00  3069.88  3071.07  3071.56  3074.63  3075.13
eigval :     3075.46  3075.73  3077.80  3077.91  3078.43  3080.46
eigval :     3081.24  3082.17  3082.86  3083.76  3084.13  3084.23
eigval :     3084.87  3088.02  3089.07  3089.40  3089.53  3091.83
eigval :     3091.92  3092.90  3092.99  3093.48  3094.91  3095.25
eigval :     3095.78  3097.10  3097.25

   temp. (K)  partition function   enthalpy   heat capacity  entropy
                                   cal/mol     cal/K/mol   cal/K/mol   J/K/mol
 298.15  VIB  0.258E+27            31966.154    197.583    202.322
         ROT  0.312E+09              888.752      2.981     41.851
         INT  0.806E+35            32854.907    200.564    244.173
         TR   0.229E+29             1481.254      4.968     45.984
         TOT                       34336.1608   205.5321   290.1563  1214.0138

       T/K    H(0)-H(T)+PV         H(T)/Eh          T*S/Eh         G(T)/Eh
   ------------------------------------------------------------------------
    298.15    0.547182E-01    0.909803E+00    0.137863E+00    0.771940E+00
   ------------------------------------------------------------------------

         :::::::::::::::::::::::::::::::::::::::::::::::::::::
         ::                  THERMODYNAMIC                  ::
         :::::::::::::::::::::::::::::::::::::::::::::::::::::
         :: total free energy        -163.678208326825 Eh   ::
         ::.................................................::
         :: total energy             -164.450148701393 Eh   ::
         :: zero point energy           0.855084820587 Eh   ::
         :: G(RRHO) w/o ZPVE           -0.083144446019 Eh   ::
         :: G(RRHO) contrib.            0.771940374568 Eh   ::
         :::::::::::::::::::::::::::::::::::::::::::::::::::::

           -------------------------------------------------
          | TOTAL ENERGY             -164.450148701393 Eh   |
          | TOTAL ENTHALPY           -163.540345725683 Eh   |
          | TOTAL FREE ENERGY        -163.678208326825 Eh   |
          | GRADIENT NORM               0.000056287159 Eh/α |
          | HOMO-LUMO GAP               1.575578248797 eV   |
           -------------------------------------------------

 * finished run on 2025/09/09 at 07:45:18.601
