   * xtb version 6.7.1 (edcfbbe) compiled by 'albert@albert-system' on 2024-07-22

   ID    Z sym.   atoms
    1    6 C      1-4, 6-24, 26-35, 37-40, 42-64
    2    7 N      5, 25, 41
    3    8 O      36
    4    1 H      65-109

          program call               : xtb data2507/toluene/CDBP-BP-DMAC/CDBP-BP-DMAC_toluene_S0_crest.xyz --gfn 2 --gbsa toluene --ohess vtight --parallel 40 --molden --ceasefiles --namespace data2507/toluene/CDBP-BP-DMAC/CDBP-BP-DMAC_toluene_S0_finalOpt
      * Solvation model:               GBSA
        Solvent                        toluene
        Solvent mass                       9.2140E+01 g/mol
          :  Hamiltonian                  GFN2-xTB          :
 * total energy  :  -164.4499898 Eh     change       -0.7534112E-08 Eh
 * total energy  :  -164.4500836 Eh     change       -0.9373821E-04 Eh
 * total energy  :  -164.4501092 Eh     change       -0.2562016E-04 Eh
 * total energy  :  -164.4501163 Eh     change       -0.7148579E-05 Eh
 * total energy  :  -164.4501252 Eh     change       -0.8911937E-05 Eh
 * total energy  :  -164.4501365 Eh     change       -0.1126978E-04 Eh
 * total energy  :  -164.4501450 Eh     change       -0.8487536E-05 Eh
 * total energy  :  -164.4501524 Eh     change       -0.7426498E-05 Eh
 * total energy  :  -164.4501593 Eh     change       -0.6845434E-05 Eh
 * total energy  :  -164.4501667 Eh     change       -0.7433631E-05 Eh
 * total energy  :  -164.4503173 Eh     change       -0.2449445E-05 Eh
 * total energy  :  -164.4503197 Eh     change       -0.2369502E-05 Eh
 * total energy  :  -164.4503204 Eh     change       -0.7006745E-06 Eh
 * total energy  :  -164.4503219 Eh     change       -0.1452008E-05 Eh
 * total energy  :  -164.4503221 Eh     change       -0.2659115E-06 Eh
 * total energy  :  -164.4503225 Eh     change       -0.3462550E-06 Eh
 * total energy  :  -164.4503228 Eh     change       -0.3090153E-06 Eh
 * total energy  :  -164.4503229 Eh     change       -0.1648357E-06 Eh
 * total energy  :  -164.4503229 Eh     change       -0.1041286E-08 Eh
   *** GEOMETRY OPTIMIZATION CONVERGED AFTER 74 ITERATIONS ***

 final structure:
================
109
 xtb: 6.7.1 (edcfbbe)
C            6.56715540592048        2.05389446473112       -1.70547550336846
C            7.05754646624830        0.98472329203409       -0.77656737113622
C            8.41484016516500        0.74282657926998       -0.63270771176873
C            8.88080053643224       -0.24861106833975        0.22412802672844
N           10.26227381737050       -0.46649171316939        0.36027057496978
C           11.20422768676753        0.49576990128154        0.66078184236197
C           11.03295175596493        1.84655962510538        0.93131735197218
C           12.15653132632518        2.59254297216564        1.23152859785513
C           13.42452600000115        2.01510769545644        1.27093023479458
C           13.59884315619246        0.66779482444686        1.02418962008942
C           12.48411889355984       -0.10390882899744        0.72077741408174
C           12.29357888079006       -1.49871736359281        0.43648675232692
C           13.15719851896903       -2.58248447106866        0.33734340641534
C           12.63329993429484       -3.82014063958317        0.02064884115040
C           11.26818777834580       -3.98310505181523       -0.20912310113380
C           10.38907290961021       -2.92120376875856       -0.11586192846249
C           10.90665860278887       -1.67851281702430        0.22308685481916
C            7.97429865624163       -1.01843090636810        0.94393262753532
C            6.61957325830785       -0.78845980329875        0.79728574869954
C            6.15112597856570        0.20674830451728       -0.05059348372740
C            4.69135811178219        0.42652136231665       -0.18480644664911
C            4.00079874088994       -0.17504793065477       -1.22894879112479
C            2.63923448746657        0.00824565807532       -1.38096142382811
C            1.95235487606686        0.80093701029435       -0.46967387457224
N            0.56509367210442        1.00180822208538       -0.60606260948351
C           -0.06740575193235        2.23066764506039       -0.65567609646202
C            0.47795616451091        3.50612826053500       -0.62484919967932
C           -0.38936694100774        4.57876728338079       -0.71128641587901
C           -1.76589081673806        4.39493715205828       -0.83031859582961
C           -2.31237513020355        3.12774222596789       -0.88163442414671
C           -1.45956003422727        2.03422662515220       -0.80002469081412
C           -1.66612816475183        0.61223160772500       -0.83440850851158
C           -2.79534778258014       -0.17845563802997       -0.94489404306618
C           -2.64872689388682       -1.56455082359912       -0.93126964140943
C           -3.80021724874207       -2.46687601164405       -1.08636206568687
O           -3.67992224159923       -3.61208170150118       -1.50482447556228
C           -5.14004964119936       -1.93266076361915       -0.72050052185928
C           -6.23810067269089       -2.26012133360424       -1.51300833134251
C           -7.49755196400590       -1.79084398992565       -1.19555868761246
C           -7.68003793633368       -1.00786726931503       -0.05987250770451
N           -8.97266873060734       -0.51951544872293        0.27017063807032
C           -9.27835401152755        0.80746496278959        0.00510427662247
C           -8.32327460009853        1.63117543691121       -0.59883852910073
C           -8.59400579706884        2.95655430327977       -0.86794962294345
C           -9.83095232927176        3.48523667583896       -0.54570908242892
C          -10.78455226847456        2.66730274815862        0.03214652244556
C          -10.53878924672773        1.33011912562759        0.31433987496465
C          -11.63716071325438        0.48369804319685        0.93047930108516
C          -12.03440773402327        1.09956209415312        2.28540937747519
C          -12.84558685866458        0.47334889929954       -0.02463824986929
C          -11.18538443438596       -0.94631106685440        1.16286363511339
C          -12.06754068240843       -1.85809559095013        1.72719599483378
C          -11.70722520867399       -3.16809672289925        1.98486619459347
C          -10.42369908869542       -3.58725788399587        1.68390840343924
C           -9.52695426707871       -2.70260509499706        1.12215581820682
C           -9.89583433519309       -1.38345569025120        0.84113231929582
C           -6.59266462691930       -0.70596720655727        0.75427433438750
C           -5.33025991993317       -1.15949192990869        0.42356747740548
C           -1.36797255887328       -2.13502264346239       -0.81376689664141
C           -0.23467523310718       -1.36563434951558       -0.69170865978313
C           -0.38210025565332        0.01863559937854       -0.71502077397572
C            2.63753273856617        1.39946958223655        0.58128347349796
C            4.00432000426659        1.22445491862560        0.73460905388640
C            4.73035668309969        1.86604861859854        1.87755003061211
H            5.83955104760777        2.69274108607375       -1.20789383425779
H            7.39233886099842        2.66572160233195       -2.06114589132200
H            6.07259824264469        1.60603232872515       -2.56704154300054
H            9.12765701400247        1.32331405269020       -1.20066737208846
H           10.05321870707234        2.29983099677025        0.91761672909338
H           12.05020214428062        3.64661167046045        1.44379216029757
H           14.27893905129808        2.63279815403074        1.50679437775419
H           14.57976397692269        0.21811388179633        1.06907419734083
H           14.21698233978622       -2.45462649134732        0.50160667991349
H           13.28786652497373       -4.67590133981940       -0.05933933813170
H           10.88970675220585       -4.96138241056199       -0.46850729143957
H            9.33516058569719       -3.05426005686068       -0.30888044364812
H            8.33285327391369       -1.78095329232105        1.61885117867697
H            5.91059049375172       -1.38596558783094        1.35226319921345
H            4.54087569103532       -0.79253673340748       -1.93208275987855
H            2.11136222951573       -0.44874302956217       -2.20433670659670
H            1.54348916615886        3.65712348340190       -0.54512088103179
H            0.00838759679965        5.58270861892952       -0.68795560390203
H           -2.41039319116568        5.25937931251477       -0.89114519676089
H           -3.37734383277789        2.98516958836926       -0.98674979746309
H           -3.76718060296401        0.27395627662095       -1.06599311343382
H           -6.08425319441043       -2.87464915679461       -2.38799236612928
H           -8.34658930303167       -2.03145375015863       -1.81805746117825
H           -7.36030203535955        1.22322890834244       -0.86453683808916
H           -7.83794621703563        3.57278798724536       -1.33240628163777
H          -10.05597084513349        4.52158720925949       -0.74849798020561
H          -11.74985026489129        3.08964537886962        0.26690417377805
H          -12.82965110879397        0.52651111375300        2.75394546609443
H          -11.17572746924548        1.10657521022278        2.95490508085473
H          -12.37999777227344        2.12192335323940        2.15988573281342
H          -13.66093346815740       -0.11386560278986        0.38860083353987
H          -12.55887585691520        0.03791588137415       -0.98055697818766
H          -13.20869645825261        1.48181785306907       -0.20230202664335
H          -13.06875789323043       -1.54164255705452        1.97799344075148
H          -12.42007064082830       -3.85090429975445        2.42242469252192
H          -10.11510976261145       -4.60225780461674        1.88783938746973
H           -8.52463974220411       -3.03553567167117        0.89970143466019
H           -6.74536572692916       -0.11105303843377        1.64264717715081
H           -4.49183759675207       -0.93426993630425        1.06555699739217
H           -1.29971170147730       -3.21319847787610       -0.80902539184387
H            0.73627417605220       -1.82236351812592       -0.57775364379711
H            2.09010061564950        2.00058251139043        1.29273353681449
H            5.00692135905852        1.11321090183982        2.61542135598581
H            4.10611570349251        2.61117564662846        2.36417811657866
H            5.64919358497625        2.33832251843564        1.53516021489771

          :  Hamiltonian                  GFN2-xTB          :
         :: gradient norm              0.000192581425 Eh/a0 ::
         :: HOMO-LUMO gap              1.602096975568 eV    ::
         :: SCC energy              -167.453229787049 Eh    ::
         :: -> dispersion             -0.152735642525 Eh    ::
         :: -> Gsolv                  -0.070336227345 Eh    ::
         :: repulsion energy           3.002906838058 Eh    ::

    * Orbital Energies and Occupations

         #    Occupation            Energy/Eh            Energy/eV
      -------------------------------------------------------------
         1        2.0000           -0.7056509             -19.2017
       ...           ...                  ...                  ...
       141        2.0000           -0.4065487             -11.0628
       142        2.0000           -0.4040690             -10.9953
       143        2.0000           -0.4027401             -10.9591
       144        2.0000           -0.4011989             -10.9172
       145        2.0000           -0.3984004             -10.8410
       146        2.0000           -0.3972319             -10.8092
       147        2.0000           -0.3924469             -10.6790
       148        2.0000           -0.3918555             -10.6629
       149        2.0000           -0.3880409             -10.5591
       150        2.0000           -0.3774374             -10.2706
       151        2.0000           -0.3712339             -10.1018
       152        2.0000           -0.3606253              -9.8131
       153        2.0000           -0.3461536              -9.4193 (HOMO)
       154                         -0.2872776              -7.8172 (LUMO)
       155                         -0.2540663              -6.9135
       156                         -0.2448480              -6.6627
       157                         -0.2415512              -6.5729
       158                         -0.2400522              -6.5322
       159                         -0.2353677              -6.4047
       160                         -0.2301771              -6.2634
       161                         -0.2294529              -6.2437
       162                         -0.2271005              -6.1797
       163                         -0.2236389              -6.0855
       164                         -0.2208803              -6.0105
       ...                                ...                  ...
       301                          0.7456256              20.2895
      -------------------------------------------------------------
                  HL-Gap            0.0588760 Eh            1.6021 eV

     #   Z          covCN         q      C6AA      α(0)
     1   6 C        3.758    -0.109    22.641     6.784
     2   6 C        2.969     0.017    27.623     8.621
     3   6 C        2.927    -0.053    29.327     8.881
     4   6 C        2.911     0.060    26.656     8.466
     5   7 N        2.802    -0.047    22.151     6.990
     6   6 C        3.077     0.048    26.847     8.495
     7   6 C        2.909    -0.052    29.300     8.876
     8   6 C        2.924    -0.036    28.889     8.814
     9   6 C        2.919    -0.043    29.079     8.843
    10   6 C        2.912    -0.035    28.880     8.812
    11   6 C        3.067    -0.020    28.426     8.743
    12   6 C        3.067    -0.020    28.428     8.743
    13   6 C        2.912    -0.035    28.881     8.812
    14   6 C        2.919    -0.043    29.078     8.843
    15   6 C        2.924    -0.036    28.887     8.814
    16   6 C        2.909    -0.052    29.297     8.875
    17   6 C        3.077     0.048    26.848     8.495
    18   6 C        2.920    -0.048    29.188     8.860
    19   6 C        2.924    -0.034    28.835     8.806
    20   6 C        2.982     0.002    27.971     8.675
    21   6 C        2.982     0.005    27.904     8.665
    22   6 C        2.924    -0.032    28.807     8.802
    23   6 C        2.920    -0.047    29.162     8.856
    24   6 C        2.912     0.057    26.725     8.477
    25   7 N        2.803    -0.032    21.850     6.943
    26   6 C        3.081     0.048    26.847     8.494
    27   6 C        2.909    -0.048    29.203     8.861
    28   6 C        2.924    -0.032    28.805     8.801
    29   6 C        2.920    -0.039    28.979     8.828
    30   6 C        2.912    -0.032    28.806     8.801
    31   6 C        3.066    -0.017    28.355     8.732
    32   6 C        3.067    -0.015    28.320     8.726
    33   6 C        2.913    -0.030    28.747     8.792
    34   6 C        2.972    -0.029    28.718     8.790
    35   6 C        2.830     0.225    23.281     7.907
    36   8 O        0.858    -0.434    22.372     6.342
    37   6 C        2.972    -0.013    28.329     8.730
    38   6 C        2.923    -0.018    28.459     8.748
    39   6 C        2.919    -0.036    28.901     8.816
    40   6 C        2.927     0.075    26.316     8.413
    41   7 N        2.754    -0.073    22.660     7.070
    42   6 C        2.927     0.058    26.691     8.472
    43   6 C        2.924    -0.060    29.493     8.906
    44   6 C        2.919    -0.035    28.866     8.811
    45   6 C        2.917    -0.046    29.154     8.854
    46   6 C        2.928    -0.038    28.933     8.821
    47   6 C        2.979    -0.014    28.352     8.734
    48   6 C        3.908     0.021    20.165     6.383
    49   6 C        3.761    -0.103    22.523     6.765
    50   6 C        3.761    -0.103    22.520     6.765
    51   6 C        2.979    -0.014    28.355     8.735
    52   6 C        2.928    -0.038    28.937     8.822
    53   6 C        2.917    -0.046    29.151     8.854
    54   6 C        2.919    -0.035    28.865     8.810
    55   6 C        2.924    -0.060    29.488     8.905
    56   6 C        2.927     0.058    26.690     8.472
    57   6 C        2.920    -0.037    28.913     8.818
    58   6 C        2.921    -0.026    28.645     8.777
    59   6 C        2.928    -0.023    28.578     8.767
    60   6 C        2.907    -0.049    29.205     8.861
    61   6 C        3.078     0.055    26.694     8.471
    62   6 C        2.927    -0.052    29.297     8.876
    63   6 C        2.969     0.019    27.581     8.614
    64   6 C        3.758    -0.110    22.654     6.786
    65   1 H        0.925     0.051     2.309     2.377
    66   1 H        0.925     0.047     2.363     2.404
    67   1 H        0.925     0.052     2.290     2.366
    68   1 H        0.926     0.041     2.431     2.438
    69   1 H        0.926     0.031     2.574     2.509
    70   1 H        0.926     0.029     2.598     2.521
    71   1 H        0.926     0.026     2.643     2.543
    72   1 H        0.926     0.028     2.614     2.528
    73   1 H        0.926     0.028     2.611     2.527
    74   1 H        0.926     0.026     2.644     2.543
    75   1 H        0.926     0.028     2.609     2.526
    76   1 H        0.926     0.029     2.597     2.520
    77   1 H        0.926     0.039     2.466     2.456
    78   1 H        0.926     0.037     2.488     2.466
    79   1 H        0.926     0.039     2.460     2.453
    80   1 H        0.926     0.041     2.440     2.443
    81   1 H        0.926     0.038     2.474     2.460
    82   1 H        0.926     0.036     2.500     2.473
    83   1 H        0.926     0.033     2.541     2.493
    84   1 H        0.926     0.034     2.526     2.485
    85   1 H        0.926     0.042     2.417     2.431
    86   1 H        0.926     0.048     2.340     2.392
    87   1 H        0.926     0.050     2.318     2.381
    88   1 H        0.926     0.023     2.693     2.566
    89   1 H        0.926     0.027     2.631     2.537
    90   1 H        0.926     0.026     2.646     2.544
    91   1 H        0.926     0.032     2.551     2.498
    92   1 H        0.925     0.041     2.430     2.438
    93   1 H        0.925     0.030     2.586     2.515
    94   1 H        0.925     0.042     2.425     2.435
    95   1 H        0.925     0.041     2.429     2.437
    96   1 H        0.925     0.030     2.591     2.517
    97   1 H        0.925     0.042     2.427     2.436
    98   1 H        0.926     0.033     2.549     2.496
    99   1 H        0.926     0.026     2.650     2.546
   100   1 H        0.926     0.026     2.647     2.544
   101   1 H        0.926     0.023     2.694     2.566
   102   1 H        0.926     0.052     2.292     2.367
   103   1 H        0.926     0.050     2.319     2.381
   104   1 H        0.926     0.045     2.389     2.417
   105   1 H        0.926     0.043     2.410     2.428
   106   1 H        0.926     0.045     2.382     2.414
   107   1 H        0.925     0.054     2.273     2.358
   108   1 H        0.925     0.048     2.340     2.392
   109   1 H        0.925     0.051     2.303     2.373

molecular dipole:
                 x           y           z       tot (Debye)
 q only:        0.766       2.373       0.591
   full:        0.793       2.278       0.571       6.300

 projected vibrational frequencies (cm⁻¹)
eigval :       -0.00    -0.00     0.00     0.00     0.00     0.00
eigval :        5.62     6.95    10.17    12.43    13.04    19.49
eigval :       24.34    33.56    37.11    39.54    41.83    45.51
eigval :       49.95    53.19    58.47    68.08    69.31    76.08
eigval :       86.84    91.76   101.98   104.06   106.01   119.27
eigval :      131.52   135.27   142.57   144.47   156.96   167.06
eigval :      169.18   186.58   190.71   205.90   208.32   213.52
eigval :      216.12   223.06   226.01   234.71   239.29   246.20
eigval :      273.04   275.85   281.78   294.48   305.58   315.79
eigval :      319.97   332.36   334.92   344.90   349.12   358.19
eigval :      373.49   378.64   389.41   391.58   396.98   401.55
eigval :      409.22   412.66   418.67   421.04   425.91   426.71
eigval :      431.11   441.85   451.60   454.39   461.50   474.75
eigval :      490.68   494.53   508.66   516.21   517.07   520.49
eigval :      529.04   535.47   542.31   543.57   547.40   551.95
eigval :      553.51   557.87   567.31   581.65   587.10   587.86
eigval :      594.19   601.46   606.29   621.53   625.21   630.16
eigval :      647.34   665.70   674.15   674.95   683.28   684.77
eigval :      694.18   694.96   695.26   700.16   707.05   710.35
eigval :      712.92   732.47   734.50   744.62   754.78   767.64
eigval :      775.18   775.95   777.34   779.01   807.96   817.99
eigval :      827.54   828.88   834.39   839.69   842.99   844.24
eigval :      863.04   866.99   867.49   870.58   872.09   872.38
eigval :      881.92   889.23   890.87   893.60   898.29   900.74
eigval :      903.78   905.97   912.58   913.74   914.70   915.65
eigval :      917.23   919.34   921.14   921.28   922.22   923.01
eigval :      923.84   924.78   927.43   931.34   937.35   956.62
eigval :      964.07   991.13   995.77   997.46  1010.29  1016.43
eigval :     1017.32  1023.65  1024.12  1028.61  1030.17  1031.51
eigval :     1068.04  1068.68  1071.29  1076.98  1085.08  1112.17
eigval :     1114.77  1118.41  1119.09  1128.36  1129.19  1139.67
eigval :     1145.81  1149.17  1152.26  1158.10  1161.48  1170.68
eigval :     1171.77  1173.97  1178.73  1180.46  1181.46  1182.15
eigval :     1185.69  1186.56  1202.29  1204.72  1217.62  1226.26
eigval :     1234.96  1236.76  1241.94  1244.24  1247.87  1251.36
eigval :     1252.08  1254.50  1259.21  1266.57  1281.90  1290.03
eigval :     1293.23  1300.88  1302.35  1307.19  1308.61  1310.72
eigval :     1312.33  1315.77  1323.98  1333.32  1336.61  1352.85
eigval :     1355.22  1358.49  1361.25  1363.88  1374.03  1397.10
eigval :     1400.07  1401.22  1406.38  1412.15  1416.29  1418.72
eigval :     1425.56  1427.27  1435.34  1437.06  1439.72  1441.66
eigval :     1468.73  1469.85  1471.54  1471.79  1473.12  1475.01
eigval :     1476.54  1480.52  1482.78  1483.29  1487.10  1487.11
eigval :     1489.26  1495.28  1498.49  1503.23  1507.29  1555.72
eigval :     1557.93  1562.70  1566.27  1572.98  1573.78  1575.27
eigval :     1581.63  1586.39  1587.14  1589.73  1590.41  1595.06
eigval :     1596.01  1597.33  1600.69  1607.23  1613.49  1641.99
eigval :     3004.69  3005.42  3020.02  3022.50  3025.24  3030.04
eigval :     3039.13  3041.02  3043.70  3044.29  3047.70  3051.77
eigval :     3069.07  3069.55  3070.91  3072.18  3074.41  3074.89
eigval :     3075.35  3076.00  3077.76  3078.32  3079.59  3080.67
eigval :     3081.43  3082.59  3082.74  3083.23  3083.51  3084.16
eigval :     3085.29  3089.06  3089.29  3089.86  3091.16  3091.45
eigval :     3092.50  3092.91  3093.41  3094.05  3094.81  3096.13
eigval :     3097.01  3097.80  3099.94

   temp. (K)  partition function   enthalpy   heat capacity  entropy
                                   cal/mol     cal/K/mol   cal/K/mol   J/K/mol
 298.15  VIB  0.400E+27            31990.990    197.079    202.425
         ROT  0.303E+09              888.752      2.981     41.790
         INT  0.121E+36            32879.742    200.060    244.215
         TR   0.229E+29             1481.254      4.968     45.984
         TOT                       34360.9959   205.0285   290.1991  1214.1930

       T/K    H(0)-H(T)+PV         H(T)/Eh          T*S/Eh         G(T)/Eh
   ------------------------------------------------------------------------
    298.15    0.547577E-01    0.909803E+00    0.137883E+00    0.771920E+00
   ------------------------------------------------------------------------

         :::::::::::::::::::::::::::::::::::::::::::::::::::::
         ::                  THERMODYNAMIC                  ::
         :::::::::::::::::::::::::::::::::::::::::::::::::::::
         :: total free energy        -163.678403097257 Eh   ::
         ::.................................................::
         :: total energy             -164.450322952400 Eh   ::
         :: zero point energy           0.855045079546 Eh   ::
         :: G(RRHO) w/o ZPVE           -0.083125224403 Eh   ::
         :: G(RRHO) contrib.            0.771919855144 Eh   ::
         :::::::::::::::::::::::::::::::::::::::::::::::::::::

           -------------------------------------------------
          | TOTAL ENERGY             -164.450322952400 Eh   |
          | TOTAL ENTHALPY           -163.540520140440 Eh   |
          | TOTAL FREE ENERGY        -163.678403097257 Eh   |
          | GRADIENT NORM               0.000192584028 Eh/α |
          | HOMO-LUMO GAP               1.602097779525 eV   |
           -------------------------------------------------

 * finished run on 2025/09/09 at 07:58:56.755
