   * xtb version 6.7.1 (edcfbbe) compiled by 'albert@albert-system' on 2024-07-22

   ID    Z sym.   atoms
    1    6 C      1-4, 6-24, 26-35, 37-40, 42-64
    2    7 N      5, 25, 41
    3    8 O      36
    4    1 H      65-109

          program call               : xtb data2507/toluene/CDBP-BP-DMAC/CDBP-BP-DMAC_toluene_S0_finalOpt.xtbopt.xyz --gfn 2 --uhf 2 --gbsa toluene --ohess vtight --parallel 40 --molden --ceasefiles --namespace data2507/toluene/CDBP-BP-DMAC/CDBP-BP-DMAC_toluene_T1_preOpt
      * Solvation model:               GBSA
        Solvent                        toluene
        Solvent mass                       9.2140E+01 g/mol
          :  Hamiltonian                  GFN2-xTB          :
 * total energy  :  -164.3610886 Eh     change       -0.1839129E-07 Eh
 * total energy  :  -164.3649546 Eh     change       -0.3865984E-02 Eh
 * total energy  :  -164.3660417 Eh     change       -0.1087149E-02 Eh
 * total energy  :  -164.3662844 Eh     change       -0.2426358E-03 Eh
 * total energy  :  -164.3665663 Eh     change       -0.2819897E-03 Eh
 * total energy  :  -164.3668264 Eh     change       -0.2600134E-03 Eh
 * total energy  :  -164.3670594 Eh     change       -0.2330816E-03 Eh
 * total energy  :  -164.3671983 Eh     change       -0.1388732E-03 Eh
 * total energy  :  -164.3672679 Eh     change       -0.6955726E-04 Eh
 * total energy  :  -164.3673309 Eh     change       -0.6306580E-04 Eh
 * total energy  :  -164.3681905 Eh     change       -0.4740460E-06 Eh
 * total energy  :  -164.3681908 Eh     change       -0.3182147E-06 Eh
 * total energy  :  -164.3681911 Eh     change       -0.2953133E-06 Eh
 * total energy  :  -164.3681913 Eh     change       -0.2215043E-06 Eh
 * total energy  :  -164.3681916 Eh     change       -0.2560137E-06 Eh
 * total energy  :  -164.3681917 Eh     change       -0.1796504E-06 Eh
 * total energy  :  -164.3681919 Eh     change       -0.1269069E-06 Eh
 * total energy  :  -164.3681920 Eh     change       -0.1158529E-06 Eh
 * total energy  :  -164.3681921 Eh     change       -0.8928725E-07 Eh
   *** GEOMETRY OPTIMIZATION CONVERGED AFTER 141 ITERATIONS ***

 final structure:
================
109
 xtb: 6.7.1 (edcfbbe)
C            6.66245721979763        2.11291910630027       -1.55163856626371
C            7.12744633665518        0.98491869794179       -0.68132978934461
C            8.47646262568761        0.67986132844093       -0.58867106792230
C            8.92341139508054       -0.36423213607697        0.21419709299056
N           10.29666118153264       -0.64750971162921        0.29672607744695
C           11.29119334333914        0.26382184914529        0.58587400704750
C           11.19034904111847        1.61286533766510        0.89881567959435
C           12.35700412657603        2.30067529620435        1.17396966253703
C           13.59794927154355        1.66724680210521        1.14889067441447
C           13.70271244064863        0.31974146301622        0.86122998154081
C           12.54449343289810       -0.39279508363585        0.58067185375337
C           12.28060632494238       -1.77035806721946        0.26678314321131
C           13.08999464290889       -2.88677438759021        0.10466877050661
C           12.49859622488167       -4.09137573595932       -0.22499892502809
C           11.12036446526317       -4.18745326421038       -0.40714631254591
C           10.29395066473241       -3.09076844193397       -0.25111545357910
C           10.87965232925659       -1.88250900460427        0.10249219501242
C            8.00540986927796       -1.12094174925974        0.93420832627652
C            6.65874783092398       -0.82673692456299        0.83928259355165
C            6.20875578089119        0.21865758637019        0.04238082232482
C            4.75700009571019        0.50194633103252       -0.04391336609198
C            4.03637279196860        0.05012701757879       -1.14306695235790
C            2.68298521516709        0.29934740362490       -1.25928255693161
C            2.02857779630241        1.00900895477752       -0.25671066778343
N            0.65903753506372        1.28713945394991       -0.36440347879338
C            0.08045181795508        2.53358856845578       -0.23615188680289
C            0.67389622830787        3.76378122205505        0.01498974286613
C           -0.14473661499506        4.87691257202082        0.07365321353066
C           -1.51955163918888        4.77866578271794       -0.12273638224408
C           -2.11298873633311        3.55956570068782       -0.40187828969170
C           -1.31238075645262        2.42983285339001       -0.46551382662635
C           -1.57839873319603        1.04155709730381       -0.74460121824445
C           -2.73412871596873        0.34704145992656       -1.04478096727061
C           -2.66567948307799       -1.04272820711042       -1.22516660088424
C           -3.83704828350681       -1.84660015608460       -1.57438620501422
O           -3.66738607753578       -2.87589168868457       -2.31316430642818
C           -5.14923091439632       -1.47467136603977       -1.12121253498900
C           -6.27658035759645       -2.04035186861104       -1.76748982914693
C           -7.55255505913343       -1.73749408885796       -1.37445922848622
C           -7.76719388683173       -0.87204111441134       -0.29606018603122
N           -9.09067748243344       -0.53541457630067        0.11065740149056
C           -9.63783697967916        0.65325842748376       -0.32025462854283
C           -8.89161999357279        1.48738109275139       -1.16757377482026
C           -9.40357200178822        2.68658517121818       -1.60678679541539
C          -10.67552542344556        3.07886558988956       -1.21429398430970
C          -11.42060166824089        2.25434862025183       -0.39105272272249
C          -10.93188176002947        1.03865759654266        0.06841620450403
C          -11.79646511338629        0.16664975470791        0.95269414423122
C          -12.15193371593349        0.95188498748761        2.23103709350296
C          -13.08031857437974       -0.19614421569803        0.17958724871456
C          -11.09043239647468       -1.11149267396571        1.35029014935520
C          -11.73683411911892       -2.03179443649674        2.16436004136924
C          -11.13037980697625       -3.20897640136616        2.56350173861339
C           -9.83467080029087       -3.48640980734112        2.15129459017313
C           -9.16780420592973       -2.59403895020958        1.34379623795428
C           -9.78301987463891       -1.40351171566717        0.92566036923020
C           -6.66998238839300       -0.35055036168907        0.39676756033202
C           -5.39087996458949       -0.64862347050024       -0.00026480866708
C           -1.40720376260221       -1.68010007660154       -1.16873360104410
C           -0.24804013938512       -0.99943294092391       -0.88142337278871
C           -0.33067707348502        0.37565990048487       -0.67497612390494
C            2.74521999672609        1.45402480001544        0.85079661758689
C            4.10449532952510        1.21186214897307        0.96911458101214
C            4.86251943597934        1.70088665254193        2.16586025319444
H            5.92273882716607        2.72046079907577       -1.03368614487443
H            7.49788182853809        2.74262699090169       -1.84705555176576
H            6.19109211799614        1.72298446024611       -2.45348602437238
H            9.19602902684040        1.25062158875657       -1.15779481200647
H           10.23213504692206        2.10822871953145        0.93665587510556
H           12.30576935255911        3.35204060151158        1.41697566344476
H           14.48757312429495        2.23970045471189        1.36724667534141
H           14.66348572209608       -0.17308893674475        0.85739666313480
H           14.15976357437041       -2.81102264679166        0.23060238512974
H           13.11081833721216       -4.97198834550653       -0.35349720526278
H           10.68861872275948       -5.13969491562121       -0.67917279146428
H            9.22917358642572       -3.17154150430884       -0.40922146697195
H            8.34965964961086       -1.92201163166421        1.57074579344116
H            5.94084836639054       -1.41521841498006        1.39218771958498
H            4.54762002048720       -0.50065890402682       -1.91934320321443
H            2.13457209479177       -0.03259859043951       -2.12784076564960
H            1.74118889607158        3.85389839851633        0.14635014099974
H            0.29331169918341        5.84415948815471        0.27159488863164
H           -2.12758847877234        5.66944483630096       -0.06596881339454
H           -3.17689100691411        3.48573725157500       -0.57072752582975
H           -3.66999475899613        0.87049482175575       -1.16315314110129
H           -6.09148089724014       -2.70972785434740       -2.59556153587701
H           -8.40235054739585       -2.15805494901904       -1.89341526086811
H           -7.90599383452736        1.17578208201562       -1.47549818619506
H           -8.81326509819619        3.31500176330803       -2.25634812543850
H          -11.08493088334109        4.01854020905905       -1.55217353489824
H          -12.41068571261406        2.57159143133513       -0.10352094408083
H          -12.79171468750186        0.36139795837094        2.87980692492013
H          -11.24463781393787        1.20310589405060        2.77720513225434
H          -12.67196098171303        1.87275391481649        1.98503723310927
H          -13.73541289755682       -0.81215328800556        0.78819003224814
H          -12.82666674321206       -0.74966345391465       -0.72265783435841
H          -13.62276251728030        0.69965099975662       -0.10733367628733
H          -12.74192898619893       -1.83027355168872        2.50026287207000
H          -11.66201036697051       -3.90366627768782        3.19553416839512
H           -9.34499657294119       -4.39744323104820        2.46028188671826
H           -8.15874485226825       -2.80416004841081        1.02570568660427
H           -6.84180318069334        0.28036981326809        1.25780992698609
H           -4.55733850060677       -0.27815304124127        0.57736757601024
H           -1.38444571745428       -2.74678681308145       -1.34085760167308
H            0.69303034982064       -1.52330723043821       -0.80582299540109
H            2.22410547442464        1.98228629947533        1.63590362528026
H            5.13699883569879        0.86334723000246        2.80634777320602
H            4.26117236370458        2.39536035591007        2.74691578982618
H            5.78359848260303        2.19464874160173        1.86140276502381

          :  Hamiltonian                  GFN2-xTB          :
         :: gradient norm              0.000044612726 Eh/a0 ::
         :: HOMO-LUMO gap              0.628534995404 eV    ::
         :: SCC energy              -167.355268031086 Eh    ::
         :: -> dispersion             -0.152278360054 Eh    ::
         :: -> Gsolv                  -0.082113099081 Eh    ::
         :: repulsion energy           2.987075958135 Eh    ::

    * Orbital Energies and Occupations

         #    Occupation            Energy/Eh            Energy/eV
      -------------------------------------------------------------
         1        2.0000           -0.6826471             -18.5758
       ...           ...                  ...                  ...
       142        2.0000           -0.4065551             -11.0629
       143        2.0000           -0.4035154             -10.9802
       144        2.0000           -0.4013787             -10.9221
       145        2.0000           -0.4005495             -10.8995
       146        2.0000           -0.3980628             -10.8318
       147        2.0000           -0.3909652             -10.6387
       148        2.0000           -0.3807852             -10.3617
       149        2.0000           -0.3791820             -10.3181
       150        1.9742           -0.3648178              -9.9272
       151        1.9299           -0.3638256              -9.9002
       152        1.7481           -0.3624038              -9.8615
       153        1.3478           -0.3607722              -9.8171
       154        1.0000           -0.2709935              -7.3741 (HOMO)
       155        0.0000           -0.2478949              -6.7456 (LUMO)
       156        0.0000           -0.2457054              -6.6860
       157                         -0.2411568              -6.5622
       158                         -0.2378612              -6.4725
       159                         -0.2328103              -6.3351
       160                         -0.2321428              -6.3169
       161                         -0.2293362              -6.2406
       162                         -0.2284206              -6.2156
       163                         -0.2281107              -6.2072
       164                         -0.2253261              -6.1314
       165                         -0.2243194              -6.1040
       ...                                ...                  ...
       301                          0.7423232              20.1996
      -------------------------------------------------------------
                  HL-Gap            0.0230987 Eh            0.6285 eV

     #   Z          covCN         q      C6AA      α(0)
     1   6 C        3.758    -0.110    22.653     6.786
     2   6 C        2.969     0.018    27.596     8.617
     3   6 C        2.927    -0.053    29.314     8.879
     4   6 C        2.911     0.059    26.669     8.468
     5   7 N        2.802    -0.039    21.984     6.964
     6   6 C        3.076     0.048    26.849     8.495
     7   6 C        2.909    -0.050    29.241     8.867
     8   6 C        2.923    -0.034    28.857     8.809
     9   6 C        2.920    -0.041    29.014     8.833
    10   6 C        2.912    -0.034    28.839     8.806
    11   6 C        3.067    -0.017    28.376     8.735
    12   6 C        3.067    -0.018    28.378     8.735
    13   6 C        2.912    -0.034    28.841     8.806
    14   6 C        2.920    -0.041    29.013     8.833
    15   6 C        2.923    -0.034    28.855     8.809
    16   6 C        2.909    -0.050    29.237     8.866
    17   6 C        3.076     0.048    26.850     8.496
    18   6 C        2.920    -0.047    29.170     8.857
    19   6 C        2.924    -0.033    28.811     8.802
    20   6 C        2.981     0.004    27.930     8.669
    21   6 C        2.981     0.004    27.926     8.668
    22   6 C        2.924    -0.032    28.805     8.801
    23   6 C        2.920    -0.046    29.149     8.854
    24   6 C        2.912     0.059    26.673     8.469
    25   7 N        2.801    -0.031    21.834     6.940
    26   6 C        3.072     0.047    26.864     8.498
    27   6 C        2.910    -0.049    29.207     8.862
    28   6 C        2.923    -0.034    28.858     8.810
    29   6 C        2.920    -0.039    28.981     8.828
    30   6 C        2.912    -0.033    28.814     8.802
    31   6 C        3.065    -0.016    28.337     8.729
    32   6 C        3.059    -0.016    28.359     8.733
    33   6 C        2.913    -0.046    29.135     8.851
    34   6 C        2.969    -0.016    28.415     8.744
    35   6 C        2.834     0.157    24.587     8.126
    36   8 O        0.858    -0.529    24.441     6.628
    37   6 C        2.966    -0.027    28.662     8.781
    38   6 C        2.924    -0.035    28.882     8.813
    39   6 C        2.913    -0.043    29.079     8.843
    40   6 C        2.929     0.030    27.337     8.575
    41   7 N        2.754    -0.016    21.564     6.897
    42   6 C        2.930     0.062    26.606     8.459
    43   6 C        2.923    -0.046    29.144     8.853
    44   6 C        2.917    -0.028    28.694     8.784
    45   6 C        2.917    -0.031    28.785     8.798
    46   6 C        2.925    -0.033    28.824     8.804
    47   6 C        2.978    -0.001    28.059     8.689
    48   6 C        3.909     0.024    20.108     6.374
    49   6 C        3.761    -0.108    22.603     6.777
    50   6 C        3.761    -0.107    22.598     6.777
    51   6 C        2.978    -0.002    28.060     8.689
    52   6 C        2.925    -0.033    28.825     8.805
    53   6 C        2.917    -0.031    28.782     8.798
    54   6 C        2.917    -0.028    28.692     8.784
    55   6 C        2.922    -0.046    29.141     8.853
    56   6 C        2.930     0.062    26.603     8.459
    57   6 C        2.914    -0.043    29.073     8.842
    58   6 C        2.918    -0.048    29.181     8.858
    59   6 C        2.928    -0.032    28.800     8.801
    60   6 C        2.906    -0.050    29.229     8.865
    61   6 C        3.072     0.040    27.036     8.525
    62   6 C        2.927    -0.053    29.319     8.880
    63   6 C        2.968     0.019    27.589     8.616
    64   6 C        3.758    -0.110    22.659     6.787
    65   1 H        0.925     0.051     2.313     2.378
    66   1 H        0.925     0.048     2.342     2.393
    67   1 H        0.925     0.053     2.278     2.360
    68   1 H        0.926     0.044     2.398     2.422
    69   1 H        0.926     0.034     2.525     2.485
    70   1 H        0.926     0.032     2.553     2.499
    71   1 H        0.926     0.030     2.591     2.517
    72   1 H        0.926     0.032     2.562     2.503
    73   1 H        0.926     0.032     2.557     2.501
    74   1 H        0.926     0.030     2.593     2.518
    75   1 H        0.926     0.031     2.567     2.506
    76   1 H        0.926     0.032     2.552     2.498
    77   1 H        0.926     0.041     2.435     2.440
    78   1 H        0.926     0.039     2.468     2.457
    79   1 H        0.926     0.039     2.459     2.452
    80   1 H        0.926     0.039     2.458     2.452
    81   1 H        0.926     0.038     2.473     2.459
    82   1 H        0.926     0.036     2.504     2.475
    83   1 H        0.926     0.033     2.542     2.493
    84   1 H        0.926     0.033     2.548     2.496
    85   1 H        0.926     0.032     2.562     2.503
    86   1 H        0.926     0.026     2.641     2.542
    87   1 H        0.926     0.029     2.603     2.523
    88   1 H        0.926     0.041     2.432     2.439
    89   1 H        0.926     0.041     2.431     2.438
    90   1 H        0.926     0.044     2.394     2.419
    91   1 H        0.926     0.050     2.315     2.379
    92   1 H        0.925     0.052     2.295     2.369
    93   1 H        0.925     0.037     2.489     2.467
    94   1 H        0.925     0.052     2.292     2.367
    95   1 H        0.925     0.052     2.295     2.369
    96   1 H        0.925     0.036     2.499     2.472
    97   1 H        0.925     0.052     2.294     2.368
    98   1 H        0.926     0.051     2.312     2.378
    99   1 H        0.926     0.044     2.395     2.420
   100   1 H        0.926     0.041     2.438     2.442
   101   1 H        0.926     0.041     2.436     2.441
   102   1 H        0.926     0.030     2.581     2.512
   103   1 H        0.926     0.030     2.590     2.517
   104   1 H        0.926     0.028     2.608     2.526
   105   1 H        0.926     0.033     2.551     2.498
   106   1 H        0.926     0.045     2.381     2.413
   107   1 H        0.925     0.055     2.264     2.353
   108   1 H        0.925     0.048     2.339     2.392
   109   1 H        0.925     0.052     2.294     2.369

molecular dipole:
                 x           y           z       tot (Debye)
 q only:       -1.113       3.137       2.513
   full:       -1.014       2.986       2.430      10.118

 projected vibrational frequencies (cm⁻¹)
eigval :       -0.00    -0.00    -0.00     0.00     0.00     0.00
eigval :        4.65     7.31    10.68    12.40    16.69    17.86
eigval :       28.28    33.09    37.84    42.42    44.84    47.71
eigval :       51.11    59.83    65.71    71.25    73.52    83.09
eigval :       90.02    95.64   103.29   104.33   105.82   119.05
eigval :      132.48   133.52   133.99   141.61   155.79   168.54
eigval :      170.88   187.17   193.27   196.54   208.28   213.48
eigval :      216.91   217.93   228.61   234.73   245.59   250.02
eigval :      271.20   273.69   280.33   298.73   305.46   312.61
eigval :      320.92   325.37   336.57   340.71   344.95   357.17
eigval :      373.61   379.87   387.40   392.93   394.13   401.51
eigval :      402.55   408.68   413.94   420.11   420.40   426.89
eigval :      429.56   440.56   449.49   453.51   455.33   462.59
eigval :      488.28   499.14   504.16   509.08   515.95   516.87
eigval :      523.34   530.06   532.26   540.15   543.09   546.78
eigval :      550.87   554.35   565.26   575.07   582.76   587.19
eigval :      589.02   596.04   603.17   610.72   615.73   622.62
eigval :      627.04   647.90   663.39   664.25   672.73   674.11
eigval :      686.13   689.65   693.02   700.18   703.36   703.98
eigval :      707.17   708.67   732.05   736.41   754.84   768.35
eigval :      771.99   775.24   778.88   779.14   793.21   800.91
eigval :      810.12   825.40   832.43   836.44   837.04   839.89
eigval :      842.22   865.42   867.77   868.63   872.13   872.59
eigval :      874.71   883.50   890.53   891.61   898.30   900.95
eigval :      901.50   903.39   904.25   905.55   908.98   910.83
eigval :      915.53   916.38   918.25   918.78   919.50   920.97
eigval :      922.74   926.28   926.55   927.09   936.17   948.57
eigval :      958.90   989.23   994.41   996.30   996.77  1010.12
eigval :     1012.59  1016.28  1023.62  1027.01  1028.37  1031.41
eigval :     1068.25  1068.64  1071.09  1073.02  1083.12  1103.19
eigval :     1109.53  1112.60  1116.31  1127.65  1128.46  1136.56
eigval :     1139.94  1145.53  1148.24  1151.19  1154.35  1163.08
eigval :     1168.17  1170.68  1174.57  1179.19  1179.66  1180.25
eigval :     1181.82  1183.01  1198.59  1202.77  1216.26  1224.94
eigval :     1233.44  1234.24  1236.64  1238.13  1241.27  1249.82
eigval :     1250.09  1252.34  1254.36  1256.12  1265.76  1287.29
eigval :     1291.64  1295.05  1296.61  1300.60  1303.80  1308.41
eigval :     1310.97  1311.33  1323.79  1327.92  1334.56  1341.42
eigval :     1348.15  1353.58  1354.66  1358.06  1370.29  1397.73
eigval :     1399.98  1401.28  1405.55  1408.50  1409.13  1412.66
eigval :     1414.24  1416.04  1416.69  1421.62  1425.28  1428.23
eigval :     1434.52  1440.20  1452.12  1455.75  1463.44  1468.03
eigval :     1469.39  1470.48  1471.36  1473.12  1473.80  1479.67
eigval :     1479.85  1480.53  1482.94  1484.81  1490.59  1497.28
eigval :     1503.91  1517.60  1548.02  1549.47  1554.86  1560.34
eigval :     1560.73  1569.71  1575.05  1575.66  1579.90  1584.26
eigval :     1586.06  1587.56  1590.11  1593.20  1594.40  1607.20
eigval :     3005.12  3007.11  3027.05  3027.51  3028.51  3029.57
eigval :     3042.60  3044.28  3048.61  3050.44  3055.44  3059.11
eigval :     3064.44  3066.57  3072.42  3072.79  3073.85  3074.87
eigval :     3076.48  3077.51  3078.22  3079.06  3079.44  3080.65
eigval :     3082.06  3083.28  3083.80  3084.31  3084.71  3084.94
eigval :     3086.20  3087.61  3088.55  3090.86  3091.58  3092.60
eigval :     3092.80  3093.23  3094.05  3094.63  3095.75  3100.44
eigval :     3100.74  3108.08  3108.42

   temp. (K)  partition function   enthalpy   heat capacity  entropy
                                   cal/mol     cal/K/mol   cal/K/mol   J/K/mol
 298.15  VIB  0.212E+27            32102.916    198.933    202.697
         ROT  0.313E+09              888.752      2.981     41.852
         INT  0.663E+35            32991.668    201.914    244.550
         TR   0.229E+29             1481.254      4.968     45.984
         TOT                       34472.9223   206.8825   290.5332  1215.5910

       T/K    H(0)-H(T)+PV         H(T)/Eh          T*S/Eh         G(T)/Eh
   ------------------------------------------------------------------------
    298.15    0.549361E-01    0.906746E+00    0.138042E+00    0.768704E+00
   ------------------------------------------------------------------------

         :::::::::::::::::::::::::::::::::::::::::::::::::::::
         ::                  THERMODYNAMIC                  ::
         :::::::::::::::::::::::::::::::::::::::::::::::::::::
         :: total free energy        -163.599487980723 Eh   ::
         ::.................................................::
         :: total energy             -164.368192072000 Eh   ::
         :: zero point energy           0.851809702317 Eh   ::
         :: G(RRHO) w/o ZPVE           -0.083105611040 Eh   ::
         :: G(RRHO) contrib.            0.768704091277 Eh   ::
         :::::::::::::::::::::::::::::::::::::::::::::::::::::

           -------------------------------------------------
          | TOTAL ENERGY             -164.368192072000 Eh   |
          | TOTAL ENTHALPY           -163.461446271180 Eh   |
          | TOTAL FREE ENERGY        -163.599487980723 Eh   |
          | GRADIENT NORM               0.000041357028 Eh/α |
          | HOMO-LUMO GAP               0.628547064667 eV   |
           -------------------------------------------------

 * finished run on 2025/09/09 at 07:59:26.104
