   * xtb version 6.7.1 (edcfbbe) compiled by 'albert@albert-system' on 2024-07-22

   ID    Z sym.   atoms
    1    6 C      1-4, 6-24, 26-35, 37-40, 42-64
    2    7 N      5, 25, 41
    3    8 O      36
    4    1 H      65-109

          program call               : xtb data2507/toluene/CDBP-BP-DMAC/CDBP-BP-DMAC_toluene_T1_crest.xyz --gfn 2 --uhf 2 --gbsa toluene --ohess vtight --parallel 40 --molden --ceasefiles --namespace data2507/toluene/CDBP-BP-DMAC/CDBP-BP-DMAC_toluene_T1_finalOpt
      * Solvation model:               GBSA
        Solvent                        toluene
        Solvent mass                       9.2140E+01 g/mol
          :  Hamiltonian                  GFN2-xTB          :
 * total energy  :  -164.3680161 Eh     change       -0.1585647E-09 Eh
 * total energy  :  -164.3681637 Eh     change       -0.1476107E-03 Eh
 * total energy  :  -164.3682030 Eh     change       -0.3929847E-04 Eh
 * total energy  :  -164.3682116 Eh     change       -0.8610400E-05 Eh
 * total energy  :  -164.3682178 Eh     change       -0.6207439E-05 Eh
 * total energy  :  -164.3682228 Eh     change       -0.5009279E-05 Eh
 * total energy  :  -164.3682259 Eh     change       -0.3047553E-05 Eh
 * total energy  :  -164.3682282 Eh     change       -0.2340104E-05 Eh
 * total energy  :  -164.3682306 Eh     change       -0.2387659E-05 Eh
 * total energy  :  -164.3682332 Eh     change       -0.2586786E-05 Eh
 * total energy  :  -164.3682803 Eh     change       -0.1969720E-05 Eh
 * total energy  :  -164.3682820 Eh     change       -0.1705027E-05 Eh
 * total energy  :  -164.3682836 Eh     change       -0.1631651E-05 Eh
 * total energy  :  -164.3682855 Eh     change       -0.1862254E-05 Eh
 * total energy  :  -164.3682875 Eh     change       -0.2071108E-05 Eh
 * total energy  :  -164.3682892 Eh     change       -0.1627348E-05 Eh
 * total energy  :  -164.3682901 Eh     change       -0.9603611E-06 Eh
 * total energy  :  -164.3682907 Eh     change       -0.5969263E-06 Eh
 * total energy  :  -164.3682907 Eh     change       -0.4054840E-08 Eh
   *** GEOMETRY OPTIMIZATION CONVERGED AFTER 44 ITERATIONS ***

 final structure:
================
109
 xtb: 6.7.1 (edcfbbe)
C            6.18763321950149        1.25785018476254       -2.28391788397544
C            6.87332767415592        0.57905022671890       -1.13741322872761
C            8.21882084913944        0.25509722359118       -1.21174302023366
C            8.86419823946316       -0.37862250075170       -0.15484719152289
N           10.23097747814342       -0.68830339967352       -0.25300384324676
C           11.23425830537126        0.19583778262293       -0.59120716284033
C           11.16057677469423        1.55728018232812       -0.85386066704673
C           12.33598567837339        2.22249529018592       -1.14670194079769
C           13.56076678424769        1.55826692442515       -1.17133910680027
C           13.64337824564672        0.20789881798340       -0.88983478301715
C           12.47594421400726       -0.48245092645793       -0.59253888603698
C           12.19388744618194       -1.84739771380660       -0.24147760482480
C           12.98249389629817       -2.98107405523170       -0.09761038251688
C           12.37198657904672       -4.17413345359656        0.23914517402576
C           10.99219909039927       -4.24775216395939        0.42010179706161
C           10.18609614868922       -3.13369499593075        0.28185662725584
C           10.79612749923379       -1.92764322879602       -0.03625467647613
C            8.15122930340103       -0.70047332971577        0.99458643051924
C            6.80767572163494       -0.38603913097821        1.07161644294229
C            6.16173145718281        0.25386830142495        0.02157561800614
C            4.71982573963751        0.57695315476826        0.13462206756227
C            3.77820565358343       -0.29076323738002       -0.40533777909261
C            2.42693706041032       -0.01783967426626       -0.32121096949653
C            2.00108127756068        1.14151901134214        0.32041520616846
N            0.63496517389223        1.44095856522660        0.40758058817894
C            0.05113660346177        2.64550317801288        0.07244408863976
C            0.62790905317760        3.79108906105513       -0.46052713590464
C           -0.20059717381358        4.86285782471838       -0.73844348967791
C           -1.57177708534321        4.80104934322774       -0.50448269745473
C           -2.15600232239304        3.65312921443210        0.00239390974653
C           -1.34519351453469        2.56632792919977        0.29007102664377
C           -1.60756727435621        1.23850008444447        0.78388776248483
C           -2.76128861146650        0.59660371406143        1.19005441442342
C           -2.68273846772781       -0.73715089057528        1.61898511498828
C           -3.85795635873379       -1.48804309170050        2.06315714820845
O           -3.70896865949289       -2.35233909135206        2.99299394711484
C           -5.14778197811473       -1.24645622966771        1.47901293659545
C           -6.29775800480772       -1.73616406997156        2.14769829100283
C           -7.55352997734614       -1.56469611211255        1.63008402061541
C           -7.72307295868273       -0.91270429555667        0.40389015086682
N           -9.02648119929878       -0.72077524898493       -0.14055810951129
C           -9.54510047473040       -1.67561289406526       -0.98662793489900
C           -8.78595288989031       -2.81896323909679       -1.28100002835391
C           -9.27365232256279       -3.79121102321449       -2.12362115144206
C          -10.53135796588965       -3.64441436692801       -2.69154704389301
C          -11.28462092476364       -2.52102694705016       -2.40254752791877
C          -10.82089446974258       -1.52345051157005       -1.55560240397232
C          -11.68792624015641       -0.31648815665004       -1.26952031186760
C          -11.97663246294062        0.41114320691707       -2.59799213553724
C          -13.00679676695338       -0.79568182225650       -0.63066100091905
C          -11.01347818168377        0.65268221275594       -0.32296799046958
C          -11.66789009974301        1.81754881595500        0.05449997093756
C          -11.09213268050254        2.73447029794119        0.91514692460139
C           -9.82248824564959        2.49573487637801        1.42197726470672
C           -9.14834898478735        1.35038492271303        1.06584989717066
C           -9.72872612968075        0.41556584843707        0.19435976086867
C           -6.60015376378499       -0.46675518414198       -0.29994505607673
C           -5.34170861231201       -0.63176273396863        0.22137500075813
C           -1.41384119023646       -1.34461364972407        1.73551820834941
C           -0.25603520657569       -0.71273403815996        1.34767149035773
C           -0.35548166332959        0.57913014773672        0.83651576384417
C            2.94130382689382        2.00704007173079        0.87256407355596
C            4.29829934892769        1.74096262318751        0.78492556678209
C            5.29756856032344        2.67881239892566        1.39142790695308
H            5.47150683856591        0.58082176805150       -2.74862902983850
H            5.63393152823735        2.12957346522172       -1.93933006057622
H            6.90762426735503        1.56909943130372       -3.03643947305452
H            8.77769876386093        0.48399328055460       -2.10767584164101
H           10.21828718488210        2.08274801459621       -0.82170084742556
H           12.30550353099093        3.28161943268260       -1.35737616746167
H           14.45747785504502        2.11261401829841       -1.40673667250980
H           14.59510419335552       -0.30216305626968       -0.89555866840163
H           14.05014881133087       -2.92898687199099       -0.25058554683706
H           12.96835093485889       -5.06693546356759        0.35764979892853
H           10.54225290714768       -5.19759755196321        0.67008886668842
H            9.11627380747020       -3.20332715174481        0.40831550310207
H            8.65187752837277       -1.18005113886480        1.82209642465172
H            6.24799869047593       -0.63576060951306        1.96150270977181
H            4.11332480230946       -1.18963236736129       -0.90261635510124
H            1.70188863902142       -0.68484926251651       -0.76232627794057
H            1.68672037049786        3.84308610648465       -0.66206420553079
H            0.22509667819650        5.76620138791339       -1.15003145474372
H           -2.18708683958452        5.65877884956674       -0.73283100536378
H           -3.22184751994144        3.59812848112983        0.16624877853104
H           -3.70255809384467        1.12379673384430        1.20792177540581
H           -6.14633983267836       -2.24406875339471        3.08965786396567
H           -8.42194999418358       -1.92951049790547        2.16029005237820
H           -7.80945831106836       -2.92954109431147       -0.83629396143101
H           -8.67479172697399       -4.66356779166106       -2.33725429596229
H          -10.92174863258440       -4.40123612803578       -3.35455269830173
H          -12.26047233351678       -2.42497435976107       -2.85220650386281
H          -12.61264067309282        1.27553156345457       -2.43257553069426
H          -11.04442207512201        0.74950276398178       -3.04653911122763
H          -12.47541137980182       -0.25144374815363       -3.29883376463871
H          -13.52669992774840       -1.48326176396847       -1.29082607382846
H          -13.66344318001965        0.04473137252260       -0.42722503803427
H          -12.80094775514113       -1.30761909486950        0.30757146849166
H          -12.65495228276492        2.02105102843665       -0.33018911412061
H          -11.62901715126697        3.62982236314610        1.18876624038530
H           -9.35999386475390        3.20196018438273        2.09477499981601
H           -8.16144925291840        1.15983034991639        1.45723708620074
H           -6.73476200363129        0.00070243384138       -1.26553170140235
H           -4.48457973083896       -0.32406614227868       -0.35855412825465
H           -1.37948128485326       -2.34849075811461        2.13408821617190
H            0.69889442109667       -1.20709196673805        1.44371842744990
H            2.60018733287644        2.89024928393394        1.39280377153742
H            4.83148164902285        3.62630504928126        1.64965338163021
H            6.12197554215849        2.86143425629334        0.70490479042338
H            5.71725643034163        2.24409047873402        2.29836696528080

          :  Hamiltonian                  GFN2-xTB          :
         :: gradient norm              0.000054964586 Eh/a0 ::
         :: HOMO-LUMO gap              0.636535701977 eV    ::
         :: SCC energy              -167.355555320940 Eh    ::
         :: -> dispersion             -0.152236117521 Eh    ::
         :: -> Gsolv                  -0.082127076533 Eh    ::
         :: repulsion energy           2.987264597939 Eh    ::

    * Orbital Energies and Occupations

         #    Occupation            Energy/Eh            Energy/eV
      -------------------------------------------------------------
         1        2.0000           -0.6826186             -18.5750
       ...           ...                  ...                  ...
       142        2.0000           -0.4065786             -11.0636
       143        2.0000           -0.4035205             -10.9804
       144        2.0000           -0.4014962             -10.9253
       145        2.0000           -0.4001288             -10.8881
       146        2.0000           -0.3992686             -10.8647
       147        2.0000           -0.3906958             -10.6314
       148        2.0000           -0.3807920             -10.3619
       149        2.0000           -0.3793432             -10.3225
       150        1.9534           -0.3643256              -9.9138
       151        1.9297           -0.3639124              -9.9026
       152        1.7868           -0.3626994              -9.8696
       153        1.3301           -0.3607866              -9.8175
       154        1.0000           -0.2711551              -7.3785 (HOMO)
       155        0.0000           -0.2477625              -6.7420 (LUMO)
       156        0.0000           -0.2455906              -6.6829
       157                         -0.2411276              -6.5614
       158                         -0.2362697              -6.4292
       159                         -0.2327939              -6.3346
       160                         -0.2321350              -6.3167
       161                         -0.2306977              -6.2776
       162                         -0.2287637              -6.2250
       163                         -0.2284239              -6.2157
       164                         -0.2254014              -6.1335
       165                         -0.2243167              -6.1040
       ...                                ...                  ...
       301                          0.7423634              20.2007
      -------------------------------------------------------------
                  HL-Gap            0.0233925 Eh            0.6365 eV

     #   Z          covCN         q      C6AA      α(0)
     1   6 C        3.758    -0.110    22.655     6.786
     2   6 C        2.969     0.018    27.594     8.616
     3   6 C        2.927    -0.053    29.311     8.879
     4   6 C        2.912     0.059    26.669     8.468
     5   7 N        2.802    -0.039    21.986     6.964
     6   6 C        3.076     0.048    26.848     8.495
     7   6 C        2.909    -0.050    29.240     8.867
     8   6 C        2.923    -0.034    28.857     8.809
     9   6 C        2.920    -0.041    29.014     8.833
    10   6 C        2.912    -0.034    28.839     8.806
    11   6 C        3.067    -0.018    28.377     8.735
    12   6 C        3.067    -0.018    28.378     8.735
    13   6 C        2.912    -0.034    28.840     8.806
    14   6 C        2.920    -0.041    29.013     8.833
    15   6 C        2.923    -0.034    28.855     8.809
    16   6 C        2.909    -0.050    29.237     8.866
    17   6 C        3.076     0.048    26.849     8.495
    18   6 C        2.920    -0.047    29.164     8.856
    19   6 C        2.923    -0.033    28.813     8.803
    20   6 C        2.982     0.004    27.926     8.668
    21   6 C        2.981     0.004    27.922     8.668
    22   6 C        2.923    -0.032    28.810     8.802
    23   6 C        2.920    -0.046    29.155     8.854
    24   6 C        2.912     0.059    26.675     8.469
    25   7 N        2.801    -0.030    21.827     6.939
    26   6 C        3.071     0.047    26.865     8.499
    27   6 C        2.910    -0.049    29.206     8.862
    28   6 C        2.923    -0.034    28.858     8.810
    29   6 C        2.920    -0.039    28.978     8.828
    30   6 C        2.912    -0.033    28.815     8.802
    31   6 C        3.065    -0.016    28.333     8.728
    32   6 C        3.059    -0.016    28.362     8.734
    33   6 C        2.913    -0.045    29.119     8.849
    34   6 C        2.969    -0.016    28.399     8.741
    35   6 C        2.834     0.158    24.586     8.125
    36   8 O        0.857    -0.530    24.451     6.630
    37   6 C        2.966    -0.027    28.677     8.784
    38   6 C        2.924    -0.035    28.883     8.813
    39   6 C        2.913    -0.044    29.081     8.843
    40   6 C        2.929     0.030    27.341     8.575
    41   7 N        2.754    -0.016    21.569     6.898
    42   6 C        2.930     0.062    26.601     8.458
    43   6 C        2.923    -0.046    29.141     8.852
    44   6 C        2.917    -0.028    28.692     8.784
    45   6 C        2.917    -0.031    28.782     8.798
    46   6 C        2.925    -0.033    28.825     8.805
    47   6 C        2.978    -0.002    28.060     8.689
    48   6 C        3.909     0.024    20.108     6.374
    49   6 C        3.761    -0.107    22.601     6.777
    50   6 C        3.761    -0.107    22.601     6.777
    51   6 C        2.978    -0.002    28.060     8.689
    52   6 C        2.925    -0.033    28.824     8.804
    53   6 C        2.917    -0.031    28.784     8.798
    54   6 C        2.917    -0.028    28.693     8.784
    55   6 C        2.923    -0.046    29.142     8.853
    56   6 C        2.930     0.062    26.602     8.458
    57   6 C        2.914    -0.043    29.074     8.842
    58   6 C        2.918    -0.048    29.188     8.859
    59   6 C        2.928    -0.032    28.804     8.802
    60   6 C        2.906    -0.049    29.226     8.864
    61   6 C        3.072     0.040    27.038     8.526
    62   6 C        2.927    -0.053    29.316     8.879
    63   6 C        2.968     0.019    27.587     8.615
    64   6 C        3.758    -0.110    22.655     6.786
    65   1 H        0.925     0.053     2.281     2.362
    66   1 H        0.925     0.052     2.299     2.371
    67   1 H        0.925     0.048     2.344     2.394
    68   1 H        0.926     0.044     2.398     2.422
    69   1 H        0.926     0.034     2.527     2.486
    70   1 H        0.926     0.032     2.553     2.499
    71   1 H        0.926     0.030     2.591     2.517
    72   1 H        0.926     0.032     2.562     2.503
    73   1 H        0.926     0.032     2.557     2.501
    74   1 H        0.926     0.030     2.593     2.518
    75   1 H        0.926     0.031     2.567     2.506
    76   1 H        0.926     0.032     2.553     2.499
    77   1 H        0.926     0.041     2.437     2.441
    78   1 H        0.926     0.038     2.473     2.459
    79   1 H        0.926     0.039     2.459     2.452
    80   1 H        0.926     0.040     2.449     2.447
    81   1 H        0.926     0.038     2.472     2.459
    82   1 H        0.926     0.036     2.504     2.474
    83   1 H        0.926     0.033     2.543     2.494
    84   1 H        0.926     0.033     2.550     2.497
    85   1 H        0.926     0.032     2.561     2.503
    86   1 H        0.926     0.026     2.643     2.542
    87   1 H        0.926     0.028     2.608     2.526
    88   1 H        0.926     0.041     2.438     2.442
    89   1 H        0.926     0.041     2.437     2.441
    90   1 H        0.926     0.044     2.394     2.420
    91   1 H        0.926     0.051     2.313     2.378
    92   1 H        0.925     0.052     2.292     2.368
    93   1 H        0.925     0.037     2.490     2.468
    94   1 H        0.925     0.052     2.294     2.368
    95   1 H        0.925     0.052     2.295     2.369
    96   1 H        0.925     0.052     2.293     2.368
    97   1 H        0.925     0.036     2.498     2.472
    98   1 H        0.926     0.050     2.314     2.379
    99   1 H        0.926     0.044     2.394     2.419
   100   1 H        0.926     0.041     2.432     2.439
   101   1 H        0.926     0.041     2.433     2.439
   102   1 H        0.926     0.030     2.584     2.514
   103   1 H        0.926     0.030     2.588     2.516
   104   1 H        0.926     0.029     2.603     2.523
   105   1 H        0.926     0.033     2.550     2.497
   106   1 H        0.926     0.045     2.389     2.417
   107   1 H        0.925     0.048     2.341     2.393
   108   1 H        0.925     0.052     2.293     2.368
   109   1 H        0.925     0.054     2.272     2.357

molecular dipole:
                 x           y           z       tot (Debye)
 q only:       -1.017       2.494      -3.249
   full:       -0.923       2.365      -3.145      10.274

 projected vibrational frequencies (cm⁻¹)
eigval :       -0.00    -0.00    -0.00     0.00     0.00     0.00
eigval :       -8.03     5.54     8.52    10.34    13.63    15.63
eigval :       19.10    25.68    31.91    38.66    42.19    46.78
eigval :       51.18    55.33    64.06    69.18    74.06    91.53
eigval :       93.36    99.56   100.72   103.03   105.23   114.40
eigval :      119.91   129.96   135.07   141.50   155.27   166.37
eigval :      171.04   183.58   184.86   195.60   211.56   212.73
eigval :      215.45   218.14   225.92   233.74   239.48   250.77
eigval :      271.29   273.24   284.31   296.99   306.97   311.64
eigval :      320.31   324.84   337.66   339.58   343.71   353.34
eigval :      371.32   379.33   384.96   392.43   393.65   401.74
eigval :      402.35   408.06   413.01   418.92   421.42   426.42
eigval :      431.44   440.57   448.51   450.69   455.17   465.61
eigval :      487.25   495.65   503.06   508.57   514.63   516.38
eigval :      521.61   529.99   532.93   540.31   542.26   547.70
eigval :      551.09   553.18   566.10   575.23   582.58   587.19
eigval :      589.09   595.90   603.22   610.62   615.39   622.08
eigval :      627.13   646.65   661.94   664.80   673.90   674.54
eigval :      685.97   689.12   694.45   699.34   703.33   703.60
eigval :      705.99   710.44   732.15   736.39   754.71   769.32
eigval :      772.90   775.30   777.18   780.41   791.78   800.31
eigval :      814.09   824.79   832.39   835.20   836.82   839.74
eigval :      843.57   866.13   868.66   869.84   872.31   872.66
eigval :      873.38   883.94   891.77   891.88   893.74   898.45
eigval :      901.66   903.75   906.79   908.03   909.31   910.41
eigval :      915.87   916.77   919.12   920.42   921.29   923.90
eigval :      924.83   924.93   925.83   925.93   935.70   948.52
eigval :      957.32   989.52   994.54   996.26   996.82  1010.02
eigval :     1011.22  1017.10  1023.47  1027.48  1029.37  1032.89
eigval :     1067.24  1068.57  1070.31  1072.60  1082.66  1102.85
eigval :     1109.39  1111.96  1116.21  1127.00  1127.18  1135.84
eigval :     1141.94  1145.10  1146.86  1149.63  1154.18  1163.39
eigval :     1168.24  1170.93  1174.20  1178.98  1179.74  1180.12
eigval :     1180.34  1180.41  1198.53  1202.54  1216.25  1225.20
eigval :     1232.91  1234.31  1236.56  1238.64  1241.77  1248.83
eigval :     1249.63  1252.15  1254.44  1256.73  1265.90  1287.31
eigval :     1291.56  1295.17  1296.45  1300.30  1304.22  1309.62
eigval :     1310.39  1311.63  1323.06  1328.06  1334.58  1341.42
eigval :     1347.74  1353.54  1354.64  1357.95  1370.29  1396.28
eigval :     1399.81  1402.25  1407.06  1408.58  1409.67  1413.16
eigval :     1413.78  1414.73  1416.23  1421.35  1425.50  1428.43
eigval :     1434.68  1440.37  1452.25  1455.69  1463.57  1468.16
eigval :     1469.17  1470.72  1471.08  1473.29  1474.08  1479.06
eigval :     1480.26  1481.70  1482.08  1484.72  1490.12  1495.91
eigval :     1503.89  1517.06  1548.15  1549.68  1555.50  1560.17
eigval :     1560.69  1569.66  1574.84  1575.97  1579.89  1584.31
eigval :     1586.28  1587.76  1590.02  1593.40  1594.57  1607.17
eigval :     3003.99  3006.98  3025.35  3025.58  3028.26  3030.01
eigval :     3043.80  3044.19  3048.82  3050.83  3055.62  3059.54
eigval :     3064.30  3066.32  3072.23  3072.58  3074.88  3076.23
eigval :     3076.89  3077.77  3077.92  3078.43  3078.56  3081.10
eigval :     3081.91  3082.98  3083.80  3083.89  3084.03  3085.48
eigval :     3086.32  3087.59  3088.62  3090.41  3090.63  3090.86
eigval :     3091.91  3092.38  3093.09  3094.89  3095.90  3100.28
eigval :     3100.76  3107.37  3108.27

   temp. (K)  partition function   enthalpy   heat capacity  entropy
                                   cal/mol     cal/K/mol   cal/K/mol   J/K/mol
 298.15  VIB  0.103E+28            32206.704    198.509    204.004
         ROT  0.319E+09              888.752      2.981     41.891
         INT  0.327E+36            33095.457    201.490    245.895
         TR   0.229E+29             1481.254      4.968     45.984
         TOT                       34576.7106   206.4578   291.8785  1221.2196

       T/K    H(0)-H(T)+PV         H(T)/Eh          T*S/Eh         G(T)/Eh
   ------------------------------------------------------------------------
    298.15    0.551015E-01    0.906664E+00    0.138681E+00    0.767983E+00
   ------------------------------------------------------------------------

         :::::::::::::::::::::::::::::::::::::::::::::::::::::
         ::                  THERMODYNAMIC                  ::
         :::::::::::::::::::::::::::::::::::::::::::::::::::::
         :: total free energy        -163.600307937943 Eh   ::
         ::.................................................::
         :: total energy             -164.368290720262 Eh   ::
         :: zero point energy           0.851562171708 Eh   ::
         :: G(RRHO) w/o ZPVE           -0.083579389388 Eh   ::
         :: G(RRHO) contrib.            0.767982782319 Eh   ::
         :::::::::::::::::::::::::::::::::::::::::::::::::::::

           -------------------------------------------------
          | TOTAL ENERGY             -164.368290720262 Eh   |
          | TOTAL ENTHALPY           -163.461627052931 Eh   |
          | TOTAL FREE ENERGY        -163.600307937943 Eh   |
          | GRADIENT NORM               0.000055226878 Eh/α |
          | HOMO-LUMO GAP               0.636543676777 eV   |
           -------------------------------------------------

 * finished run on 2025/09/09 at 08:14:43.233
