   * xtb version 6.7.1 (edcfbbe) compiled by 'albert@albert-system' on 2024-07-22

   ID    Z sym.   atoms
    1    6 C      1-8, 10-23, 25-40
    2   15 P      9, 24
    3    1 H      41-80

          program call               : xtb data2507/gas/LEt/LEt_gas_S0_finalOpt.xtbopt.xyz --gfn 2 --spinpol --tblite --uhf 2 --ohess vtight --parallel 40 --molden --ceasefiles --namespace data2507/gas/LEt/LEt_gas_T1_preOpt
 * total energy  :  -106.6994009 Eh     change        0.4929072E-07 Eh
 * total energy  :  -106.7074887 Eh     change       -0.8087847E-02 Eh
 * total energy  :  -106.7107544 Eh     change       -0.3265696E-02 Eh
 * total energy  :  -106.7116216 Eh     change       -0.8671196E-03 Eh
 * total energy  :  -106.7122555 Eh     change       -0.6339898E-03 Eh
 * total energy  :  -106.7125281 Eh     change       -0.2725255E-03 Eh
 * total energy  :  -106.7127925 Eh     change       -0.2644693E-03 Eh
 * total energy  :  -106.7129985 Eh     change       -0.2059756E-03 Eh
 * total energy  :  -106.7131734 Eh     change       -0.1748909E-03 Eh
 * total energy  :  -106.7133546 Eh     change       -0.1811763E-03 Eh
 * total energy  :  -106.7147348 Eh     change       -0.4872496E-06 Eh
 * total energy  :  -106.7147352 Eh     change       -0.3575397E-06 Eh
 * total energy  :  -106.7147356 Eh     change       -0.3719542E-06 Eh
 * total energy  :  -106.7147358 Eh     change       -0.2680222E-06 Eh
 * total energy  :  -106.7147361 Eh     change       -0.3138399E-06 Eh
 * total energy  :  -106.7147364 Eh     change       -0.2330996E-06 Eh
 * total energy  :  -106.7147366 Eh     change       -0.2250810E-06 Eh
 * total energy  :  -106.7147366 Eh     change        0.6917787E-08 Eh
 * total energy  :  -106.7147366 Eh     change       -0.4224627E-07 Eh
   *** GEOMETRY OPTIMIZATION CONVERGED AFTER 69 ITERATIONS ***

 final structure:
================
80
 xtb: 6.7.1 (edcfbbe)
C           -2.51444682794746        0.74101177216556       -3.42661055402028
C           -1.11695231637787        1.01199415694834       -2.87023406742522
C           -1.13596245043133        2.15220264678708       -1.89786239063007
C           -1.01135237774919        3.46250016800075       -2.33785614756376
C           -1.08537874314826        4.52191871515901       -1.45090209646979
C           -1.27429398805628        4.28018764426479       -0.09771124677338
C           -1.37411663612780        2.98139382788250        0.35996161177882
C           -1.32917712487194        1.91481930842770       -0.53357435699877
P           -1.34252397320809        0.19404794322472        0.10918263231474
C           -3.10999404623694       -0.24493946428276        0.07478845418986
C           -4.07535869101476        0.76760722060992        0.07783300539019
C           -5.41271084485599        0.44815919750446        0.19237439825349
C           -5.80559750704304       -0.87737267430304        0.29994655106547
C           -4.84854097718165       -1.88354830030415        0.29099325787981
C           -3.50215772154069       -1.58741531134970        0.17904358949530
C           -2.47324020658953       -2.67367847579624        0.11447363244807
C           -2.07178934614928       -2.95660794028720       -1.33184033492780
C           -0.84663964423066        0.29633716255141        1.81067757607659
C           -1.61228411738335        0.42645202120739        2.97598354177423
C           -0.97490905924127        0.44407619382598        4.18871952394146
C            0.43449787705934        0.29851116351807        4.27949985701415
C            1.19660082667138        0.10666429298782        3.14980898842108
C            0.56283603403738        0.02547073180222        1.91475804626821
P            1.22146530662947       -0.16995223215292        0.27335357099562
C            1.24393676059290       -1.97356293638566       -0.06312171355697
C            0.94923027611252       -2.87508064871558        0.95592204601442
C            0.99649245881005       -4.23538231332161        0.72065041790661
C            1.34449088486627       -4.70431548137753       -0.53652951444146
C            1.64380640982541       -3.80988014907623       -1.54919817687570
C            1.60073462964657       -2.43955376041574       -1.33036228083068
C            1.94511045005648       -1.48539610792763       -2.43606661167894
C            3.44182602651477       -1.49822441819303       -2.74332589595032
C            2.99498058664422        0.22120601133513        0.38494809149831
C            3.87116748008785       -0.74185099884139        0.89724822268988
C            5.21423482354040       -0.45282607986510        1.02927669174542
C            5.70020179591929        0.78438142417746        0.63675020359964
C            4.82990887374919        1.73897865245537        0.12795093124998
C            3.47605733382800        1.47642666159651       -0.00047771957994
C            2.53628682975003        2.54364476237995       -0.47343693754094
C            2.10068153579182        3.41454815298826        0.70412435745149
H           -3.19891395248984        0.48482093102391       -2.62017037075922
H           -2.89758353663938        1.62294972081585       -3.93561708733602
H           -2.48789916883440       -0.08495860927715       -4.13412431940459
H           -0.75897790791541        0.11240899971870       -2.35393936360253
H           -0.43392292477020        1.23356398695203       -3.69414412207255
H           -0.85698152141160        3.65303880611959       -3.39109243011515
H           -0.99130516865077        5.53572050586146       -1.81184433212638
H           -1.33609174420521        5.10429743006266        0.59842309247885
H           -1.49848646329535        2.77984026551179        1.41590367236477
H           -3.76983710060643        1.80046663809780       -0.01074158953609
H           -6.15258171983214        1.23575289268576        0.19898948534038
H           -6.85210348892456       -1.12828858183368        0.38712930289665
H           -5.15728908682556       -2.91675486208487        0.36938925115742
H           -1.58399354252743       -2.35590212823843        0.67123148074839
H           -2.85944756672607       -3.58634146667451        0.57257069625515
H           -1.32204984954021       -3.74322534373354       -1.37107878305209
H           -1.65217056139029       -2.05871904285998       -1.78320415162484
H           -2.93813589036403       -3.26286535049370       -1.91461793563807
H           -2.68419510956190        0.56001278535649        2.90358502258379
H           -1.54242794278123        0.58992860399556        5.09612594544318
H            0.90183139028729        0.31657621055206        5.25238585810106
H            2.26874950552934       -0.02642295462164        3.21798464810978
H            0.68586971548974       -2.49755749476379        1.93578682084086
H            0.76230457389531       -4.92912929921412        1.51485029213971
H            1.38169340161037       -5.76702131000052       -0.72699343331808
H            1.90769527781392       -4.17956544646918       -2.53034171406941
H            1.38830230250957       -1.75174365282238       -3.33865712643968
H            1.65053535918652       -0.47192069443106       -2.13659853302028
H            3.76177352757415       -2.49195725861317       -3.04840670366762
H            4.01146340085422       -1.20908378095791       -1.86278655694476
H            3.66844831311805       -0.79977601665931       -3.54560299735230
H            3.49110997352539       -1.71184611782434        1.18621947872207
H            5.88598422456075       -1.19772255268488        1.43140247862733
H            6.75289613106711        1.00730847066808        0.72619689283195
H            5.21073100774089        2.70520545943337       -0.17214073132718
H            1.64766951075346        2.08250979578794       -0.92072198356482
H            3.01966061837268        3.16567479310491       -1.23006915277770
H            1.57600159513423        2.80782919232265        1.44049603243741
H            2.96668768007001        3.86623953637494        1.18346074798513
H            1.43253518348043        4.20261966057816        0.36611018810239

 projected vibrational frequencies (cm⁻¹)
eigval :       -0.00    -0.00    -0.00     0.00     0.00     0.00
eigval :       12.28    21.10    26.59    27.32    32.46    40.20
eigval :       43.16    45.45    51.20    52.70    58.25    61.42
eigval :       70.65    76.46    83.73    98.28   106.96   111.64
eigval :      117.16   121.39   124.13   133.82   152.06   161.14
eigval :      172.64   178.16   183.61   185.68   193.37   198.09
eigval :      207.14   220.36   222.53   225.30   234.21   282.13
eigval :      300.02   304.87   306.19   312.35   331.63   348.43
eigval :      358.25   365.76   369.98   381.30   392.65   394.96
eigval :      396.30   402.79   417.02   430.78   438.41   448.58
eigval :      454.38   477.80   496.17   500.14   506.29   507.52
eigval :      543.74   544.90   545.62   547.84   577.22   647.60
eigval :      652.64   657.23   661.76   667.43   668.65   671.03
eigval :      677.49   694.45   711.76   725.21   758.42   761.83
eigval :      769.58   771.55   788.43   789.08   790.37   791.07
eigval :      811.46   816.57   817.14   822.14   827.33   863.17
eigval :      863.75   881.91   886.76   887.38   898.15   900.74
eigval :      900.91   910.88   914.37   914.68   915.95   924.51
eigval :      927.71   983.55   997.62   998.74  1000.94  1002.57
eigval :     1006.72  1029.69  1033.40  1037.35  1039.91  1041.77
eigval :     1047.16  1050.11  1056.20  1068.03  1078.34  1078.71
eigval :     1079.03  1081.96  1091.55  1093.30  1094.39  1095.43
eigval :     1146.93  1151.01  1155.72  1156.16  1161.44  1175.25
eigval :     1177.30  1178.77  1178.98  1179.31  1184.57  1204.28
eigval :     1208.43  1213.12  1217.54  1226.82  1228.42  1230.67
eigval :     1233.62  1257.73  1257.93  1259.02  1261.10  1310.32
eigval :     1311.52  1312.32  1314.37  1317.06  1321.50  1323.83
eigval :     1327.03  1329.35  1335.86  1390.81  1402.61  1406.12
eigval :     1407.71  1408.60  1410.40  1411.94  1418.09  1419.24
eigval :     1438.09  1446.67  1447.98  1451.58  1456.80  1460.15
eigval :     1464.31  1466.39  1469.65  1481.33  1491.22  1493.49
eigval :     1494.75  1496.68  1498.28  1498.88  1502.46  1502.67
eigval :     1513.72  1519.13  1544.03  1546.93  1553.47  1558.49
eigval :     1566.23  1571.51  2902.53  2903.73  2914.09  2917.61
eigval :     2957.17  2964.44  2970.84  2978.02  3015.74  3022.17
eigval :     3028.43  3029.64  3030.50  3031.14  3032.89  3034.97
eigval :     3035.46  3037.96  3040.21  3041.51  3046.70  3048.92
eigval :     3050.98  3055.58  3064.32  3064.43  3066.52  3067.20
eigval :     3068.06  3068.48  3073.88  3075.10  3075.55  3076.79
eigval :     3077.77  3086.17  3087.76  3088.60  3089.59  3090.39

   temp. (K)  partition function   enthalpy   heat capacity  entropy
                                   cal/mol     cal/K/mol   cal/K/mol   J/K/mol
 298.15  VIB  0.121E+20            24114.424    142.721    153.398
         ROT  0.320E+08              888.752      2.981     37.326
         INT  0.389E+27            25003.177    145.702    190.724
         TR   0.128E+29             1481.254      4.968     44.826
         TOT                       26484.4305   150.6697   235.5500   985.5413

       T/K    H(0)-H(T)+PV         H(T)/Eh          T*S/Eh         G(T)/Eh
   ------------------------------------------------------------------------
    298.15    0.422056E-01    0.691328E+00    0.111917E+00    0.579411E+00
   ------------------------------------------------------------------------

         :::::::::::::::::::::::::::::::::::::::::::::::::::::
         ::                  THERMODYNAMIC                  ::
         :::::::::::::::::::::::::::::::::::::::::::::::::::::
         :: total free energy        -106.135326028996 Eh   ::
         ::.................................................::
         :: total energy             -106.714736607987 Eh   ::
         :: zero point energy           0.649122365009 Eh   ::
         :: G(RRHO) w/o ZPVE           -0.069711786018 Eh   ::
         :: G(RRHO) contrib.            0.579410578990 Eh   ::
         :::::::::::::::::::::::::::::::::::::::::::::::::::::

           -------------------------------------------------
          | TOTAL ENERGY             -106.714736607987 Eh   |
          | TOTAL ENTHALPY           -106.023408616495 Eh   |
          | TOTAL FREE ENERGY        -106.135326028996 Eh   |
          | GRADIENT NORM               0.000135143614 Eh/α |
           -------------------------------------------------

 * finished run on 2025/09/12 at 09:49:15.806
