   * xtb version 6.7.1 (edcfbbe) compiled by 'albert@albert-system' on 2024-07-22

   ID    Z sym.   atoms
    1    6 C      1-8, 10-23, 25-40
    2   15 P      9, 24
    3    1 H      41-80

          program call               : xtb data2507/gas/LEt/LEt.xyz --gfn 2 --ohess vtight --parallel 40 --molden --ceasefiles --namespace data2507/gas/LEt/LEt_gas_S0_preOpt
          :  Hamiltonian                  GFN2-xTB          :
 * total energy  :  -106.7601646 Eh     change       -0.6448033E-09 Eh
 * total energy  :  -106.7779136 Eh     change       -0.1774898E-01 Eh
 * total energy  :  -106.7848993 Eh     change       -0.6985742E-02 Eh
 * total energy  :  -106.7889788 Eh     change       -0.4079514E-02 Eh
 * total energy  :  -106.7926071 Eh     change       -0.3628310E-02 Eh
 * total energy  :  -106.7950997 Eh     change       -0.2492602E-02 Eh
 * total energy  :  -106.7965452 Eh     change       -0.1445443E-02 Eh
 * total energy  :  -106.7972072 Eh     change       -0.6619925E-03 Eh
 * total energy  :  -106.7975209 Eh     change       -0.3137702E-03 Eh
 * total energy  :  -106.7978155 Eh     change       -0.2945982E-03 Eh
 * total energy  :  -106.7998163 Eh     change       -0.5073241E-06 Eh
 * total energy  :  -106.7998167 Eh     change       -0.4064661E-06 Eh
 * total energy  :  -106.7998171 Eh     change       -0.3588208E-06 Eh
 * total energy  :  -106.7998173 Eh     change       -0.2693157E-06 Eh
 * total energy  :  -106.7998175 Eh     change       -0.2134608E-06 Eh
 * total energy  :  -106.7998177 Eh     change       -0.1698257E-06 Eh
 * total energy  :  -106.7998178 Eh     change       -0.1330459E-06 Eh
 * total energy  :  -106.7998178 Eh     change        0.3578890E-08 Eh
 * total energy  :  -106.7998179 Eh     change       -0.9814286E-07 Eh
   *** GEOMETRY OPTIMIZATION CONVERGED AFTER 60 ITERATIONS ***

 final structure:
================
80
 xtb: 6.7.1 (edcfbbe)
C           -1.85552980016160        4.01731223983588       -1.97507499955029
C           -1.88343403826083        2.64964230272224       -1.30857458697146
C           -2.01430996232014        2.65098480284067        0.18849730435846
C           -2.26474166055700        3.79983292965512        0.92205484218611
C           -2.37422003196532        3.75612413005654        2.30200007107937
C           -2.23184090919622        2.55412746046847        2.96977396930643
C           -1.98042145977610        1.39781007377347        2.25363589185583
C           -1.87708867750340        1.43227445794988        0.86903329132653
P           -1.47181829687852       -0.04142073928244       -0.15148502924117
C           -3.15990750796987       -0.68778765243934       -0.48198200687502
C           -4.30810227508457       -0.04326082052161       -0.03053147154017
C           -5.56130134159121       -0.54469623415957       -0.32821774715725
C           -5.68093837835796       -1.69216407246667       -1.09323272604424
C           -4.54419449173593       -2.32709456142318       -1.55871838709533
C           -3.27649444160868       -1.84100311720831       -1.26630326765487
C           -2.07132189710132       -2.57025119595564       -1.78629679879669
C           -1.85322333097452       -3.89638055358912       -1.05869890878040
C           -0.94685071245475       -1.25146746752555        1.11023139875228
C           -1.75530104484823       -1.86529634534658        2.05452159518537
C           -1.20258740464867       -2.79015938321019        2.92639936884047
C            0.14228958828047       -3.11411025363863        2.83937660143288
C            0.94926062563561       -2.52595756967157        1.87889869900853
C            0.41200257286837       -1.57727499512625        1.02065165060181
P            1.20765201010384       -0.86180416482673       -0.45616588327812
C            2.88168873067480       -1.65267646570839       -0.39104951260489
C            3.05321198860269       -2.55064472003355       -1.44587309901990
C            4.21703467745101       -3.27608850542268       -1.60145485296447
C            5.24357514310280       -3.10676657208914       -0.68828163812418
C            5.08424505130055       -2.22244648627113        0.36162537605702
C            3.91653619734198       -1.48572573657631        0.53228639246841
C            3.83897399140153       -0.54219384045189        1.69750806986611
C            4.61467852729664        0.74418859119228        1.41262626759151
C            1.49673788048219        0.88401375808311        0.02761915220851
C            1.10740434382684        1.39848224649914        1.25986951120507
C            1.21663165029039        2.74979390950348        1.52863025511139
C            1.70248605825589        3.60717480312436        0.55834501837035
C            2.09230479841507        3.10334331147099       -0.66993337353781
C            1.99591590178084        1.74815814624500       -0.95293449341902
C            2.39791059536802        1.23225040296016       -2.30498711539811
C            1.19829038134859        1.17924549948635       -3.25028004798710
H           -2.79283272276072        4.54888414446132       -1.82616878110971
H           -1.03953058912805        4.61796386085180       -1.57866892277783
H           -1.70368561488003        3.89857111177867       -3.04589292373713
H           -2.70712650023798        2.05804432998386       -1.72627465273610
H           -0.95609071821464        2.12013665921610       -1.55259301067968
H           -2.37492115922436        4.74832226891535        0.42022561829566
H           -2.56789749795403        4.66435691098758        2.85446361009698
H           -2.31317104996238        2.51378123200575        4.04663586329627
H           -1.85856526268663        0.46437757775192        2.78419422685344
H           -4.22066891917624        0.85659318342311        0.56177025339884
H           -6.44339365881579       -0.03745330680955        0.03517568514798
H           -6.65774848151548       -2.08731233145007       -1.33153983784953
H           -4.63895911244961       -3.21473809298937       -2.16877574229221
H           -2.20125582208636       -2.76617583365816       -2.85416949007977
H           -1.18013068905777       -1.94491094987670       -1.66286486876822
H           -0.97069325252959       -4.39833676383994       -1.44856748410534
H           -2.71162876972889       -4.55190016921089       -1.18856899377773
H           -1.70898549188341       -3.72765156671774        0.00602134037895
H           -2.81358721774887       -1.64132341654865        2.09143819885385
H           -1.82671277928089       -3.27167762822760        3.66569270958277
H            0.56218535127197       -3.84624165088314        3.51432141953167
H            1.98765190140510       -2.81382303870091        1.79443431935325
H            2.24192999310031       -2.67190301640285       -2.15373510998078
H            4.32442888970132       -3.96657556660218       -2.42520656770569
H            6.16322500073352       -3.66436914169626       -0.79079135829593
H            5.88337283525796       -2.10019200198238        1.08038715505900
H            2.80060163350483       -0.29957692380741        1.91607201302345
H            4.26742317204817       -1.02571453861580        2.58020051545245
H            5.66351161901327        0.52408705568759        1.22504388153156
H            4.54660573738564        1.42181015460551        2.26076042039010
H            4.20758230288066        1.24756217120972        0.53878852277445
H            0.72569661604271        0.73706644708994        2.02603742816040
H            0.91035586031805        3.13133016723183        2.49161000592477
H            1.78035221803206        4.66585470296126        0.75857037700300
H            2.47681252655047        3.77284618460050       -1.42741857396736
H            2.81926188191024        0.22759518762522       -2.20376452212810
H            3.16757449754817        1.88000071356865       -2.73189933756135
H            0.77964228424297        2.17389146607336       -3.38924447810199
H            1.49741663330218        0.78895689008755       -4.22026625991429
H            0.42674530423636        0.52975290500730       -2.83894242933836

          :  Hamiltonian                  GFN2-xTB          :
         :: gradient norm              0.000034287728 Eh/a0 ::
         :: HOMO-LUMO gap              2.846970457674 eV    ::
         :: SCC energy              -108.701653435053 Eh    ::
         :: -> dispersion             -0.125306180254 Eh    ::
         :: repulsion energy           1.901835498779 Eh    ::

    * Orbital Energies and Occupations

         #    Occupation            Energy/Eh            Energy/eV
      -------------------------------------------------------------
         1        2.0000           -0.6642714             -18.0757
       ...           ...                  ...                  ...
        89        2.0000           -0.4082956             -11.1103
        90        2.0000           -0.4042504             -11.0002
        91        2.0000           -0.4012353             -10.9182
        92        2.0000           -0.3989798             -10.8568
        93        2.0000           -0.3956469             -10.7661
        94        2.0000           -0.3948391             -10.7441
        95        2.0000           -0.3934141             -10.7053
        96        2.0000           -0.3919540             -10.6656
        97        2.0000           -0.3902800             -10.6201
        98        2.0000           -0.3879367             -10.5563
        99        2.0000           -0.3842478             -10.4559
       100        2.0000           -0.3685079             -10.0276
       101        2.0000           -0.3495930              -9.5129 (HOMO)
       102                         -0.2449688              -6.6659 (LUMO)
       103                         -0.2377274              -6.4689
       104                         -0.2337375              -6.3603
       105                         -0.2316992              -6.3049
       106                         -0.2227023              -6.0600
       107                         -0.2202444              -5.9932
       108                         -0.2188810              -5.9561
       109                         -0.2184446              -5.9442
       110                         -0.2164240              -5.8892
       111                         -0.2146380              -5.8406
       112                         -0.1656806              -4.5084
       ...                                ...                  ...
       210                          1.1966082              32.5614
      -------------------------------------------------------------
                  HL-Gap            0.1046243 Eh            2.8470 eV

     #   Z          covCN         q      C6AA      α(0)
     1   6 C        3.751    -0.098    22.441     6.756
     2   6 C        3.822    -0.055    21.545     6.605
     3   6 C        3.057     0.014    27.649     8.623
     4   6 C        2.922    -0.040    29.002     8.831
     5   6 C        2.919    -0.032    28.787     8.798
     6   6 C        2.919    -0.036    28.898     8.815
     7   6 C        2.965    -0.028    28.697     8.787
     8   6 C        2.922     0.017    27.631     8.620
     9  15 P        3.904    -0.170   168.028    23.285
    10   6 C        2.919     0.016    27.652     8.623
    11   6 C        2.969    -0.031    28.761     8.797
    12   6 C        2.919    -0.035    28.870     8.811
    13   6 C        2.918    -0.031    28.785     8.798
    14   6 C        2.925    -0.038    28.936     8.822
    15   6 C        3.050     0.015    27.633     8.621
    16   6 C        3.810    -0.055    21.549     6.608
    17   6 C        3.753    -0.092    22.321     6.737
    18   6 C        3.073     0.026    27.346     8.574
    19   6 C        2.951    -0.027    28.664     8.781
    20   6 C        2.919    -0.033    28.818     8.803
    21   6 C        2.920    -0.030    28.751     8.793
    22   6 C        2.951    -0.030    28.757     8.795
    23   6 C        3.065     0.027    27.346     8.575
    24  15 P        3.934    -0.193   169.093    23.359
    25   6 C        2.916     0.014    27.707     8.632
    26   6 C        3.078    -0.028    28.616     8.770
    27   6 C        2.917    -0.035    28.876     8.812
    28   6 C        2.919    -0.030    28.756     8.794
    29   6 C        2.927    -0.039    28.959     8.825
    30   6 C        2.986     0.016    27.654     8.626
    31   6 C        3.807    -0.054    21.534     6.606
    32   6 C        3.753    -0.093    22.336     6.739
    33   6 C        2.922     0.030    27.323     8.572
    34   6 C        2.970    -0.020    28.513     8.759
    35   6 C        2.919    -0.032    28.803     8.801
    36   6 C        2.918    -0.030    28.752     8.793
    37   6 C        2.924    -0.039    28.960     8.825
    38   6 C        3.058     0.014    27.653     8.624
    39   6 C        3.813    -0.051    21.473     6.596
    40   6 C        3.753    -0.095    22.380     6.746
    41   1 H        0.925     0.036     2.509     2.477
    42   1 H        0.925     0.037     2.492     2.469
    43   1 H        0.925     0.034     2.531     2.488
    44   1 H        0.924     0.049     2.335     2.390
    45   1 H        0.924     0.065     2.141     2.288
    46   1 H        0.926     0.035     2.520     2.483
    47   1 H        0.926     0.026     2.640     2.541
    48   1 H        0.926     0.025     2.658     2.550
    49   1 H        0.926     0.033     2.538     2.492
    50   1 H        0.926     0.035     2.523     2.484
    51   1 H        0.926     0.027     2.624     2.533
    52   1 H        0.926     0.028     2.613     2.528
    53   1 H        0.925     0.030     2.582     2.513
    54   1 H        0.924     0.040     2.455     2.450
    55   1 H        0.925     0.069     2.098     2.265
    56   1 H        0.925     0.036     2.508     2.476
    57   1 H        0.925     0.034     2.527     2.486
    58   1 H        0.925     0.032     2.556     2.500
    59   1 H        0.925     0.035     2.516     2.480
    60   1 H        0.926     0.028     2.620     2.531
    61   1 H        0.926     0.028     2.612     2.527
    62   1 H        0.926     0.035     2.513     2.479
    63   1 H        0.925     0.040     2.444     2.445
    64   1 H        0.926     0.028     2.622     2.532
    65   1 H        0.926     0.027     2.627     2.534
    66   1 H        0.925     0.028     2.617     2.530
    67   1 H        0.925     0.050     2.323     2.383
    68   1 H        0.924     0.031     2.576     2.510
    69   1 H        0.925     0.034     2.534     2.489
    70   1 H        0.925     0.031     2.575     2.509
    71   1 H        0.925     0.034     2.534     2.490
    72   1 H        0.925     0.029     2.596     2.520
    73   1 H        0.926     0.024     2.673     2.557
    74   1 H        0.926     0.026     2.642     2.542
    75   1 H        0.925     0.028     2.618     2.530
    76   1 H        0.924     0.051     2.305     2.374
    77   1 H        0.924     0.031     2.574     2.509
    78   1 H        0.925     0.034     2.523     2.484
    79   1 H        0.925     0.036     2.509     2.477
    80   1 H        0.925     0.056     2.252     2.347

molecular dipole:
                 x           y           z       tot (Debye)
 q only:        0.059       0.145      -0.319
   full:        0.032       0.100       0.326       0.871

 projected vibrational frequencies (cm⁻¹)
eigval :       -0.00    -0.00    -0.00     0.00     0.00     0.00
eigval :       19.88    24.07    24.26    31.94    35.39    36.01
eigval :       44.03    49.75    53.29    60.57    67.49    71.49
eigval :       74.67    89.00   102.16   105.37   108.38   113.58
eigval :      131.62   138.44   146.01   150.03   156.89   174.40
eigval :      180.39   182.50   194.41   198.25   212.10   215.01
eigval :      220.51   237.84   243.84   250.47   264.40   290.06
eigval :      295.10   302.55   304.64   315.53   349.28   365.59
eigval :      378.24   386.86   395.05   406.97   408.84   419.09
eigval :      420.29   428.13   438.05   456.65   464.63   481.59
eigval :      485.91   491.03   499.34   502.75   512.91   517.91
eigval :      544.67   549.57   552.02   555.50   646.87   653.94
eigval :      659.50   666.57   669.00   676.59   682.96   684.42
eigval :      688.94   697.04   711.07   759.04   770.37   773.55
eigval :      773.78   775.24   781.97   791.53   792.79   797.03
eigval :      814.41   818.68   819.04   819.30   877.70   883.44
eigval :      883.89   887.76   889.20   911.24   916.16   916.81
eigval :      919.23   920.56   927.46   929.16   930.04   932.33
eigval :      935.42  1002.94  1003.20  1004.51  1005.10  1008.65
eigval :     1038.56  1040.19  1043.72  1045.00  1064.32  1065.31
eigval :     1068.31  1078.03  1078.92  1081.41  1082.41  1085.81
eigval :     1097.36  1102.33  1102.93  1105.10  1108.95  1128.96
eigval :     1153.53  1159.22  1160.89  1161.31  1164.93  1181.73
eigval :     1183.60  1183.88  1185.34  1186.75  1218.86  1220.06
eigval :     1223.04  1224.34  1230.47  1233.29  1234.80  1237.24
eigval :     1249.88  1262.02  1262.52  1264.00  1265.52  1309.80
eigval :     1311.15  1314.73  1315.42  1317.55  1318.93  1320.91
eigval :     1322.86  1337.14  1401.97  1407.50  1410.92  1411.21
eigval :     1415.57  1416.64  1417.29  1424.07  1426.35  1428.87
eigval :     1444.40  1454.01  1455.33  1459.18  1463.94  1466.21
eigval :     1477.55  1480.18  1495.73  1497.83  1498.21  1499.77
eigval :     1505.46  1505.91  1508.59  1512.93  1563.10  1566.43
eigval :     1569.60  1570.72  1573.18  1573.40  1586.99  1587.88
eigval :     1589.41  1591.70  2913.87  2925.40  2943.64  2949.91
eigval :     2955.23  2958.68  2968.36  3013.99  3024.16  3027.13
eigval :     3029.59  3030.57  3031.17  3032.23  3033.95  3034.11
eigval :     3036.25  3036.46  3037.70  3043.70  3043.83  3055.13
eigval :     3057.35  3061.10  3062.45  3065.95  3067.07  3068.16
eigval :     3069.92  3074.63  3075.11  3075.46  3076.07  3078.16
eigval :     3083.47  3084.28  3086.38  3087.10  3087.88  3101.63

   temp. (K)  partition function   enthalpy   heat capacity  entropy
                                   cal/mol     cal/K/mol   cal/K/mol   J/K/mol
 298.15  VIB  0.713E+18            23360.204    140.775    146.987
         ROT  0.329E+08              888.752      2.981     37.377
         INT  0.234E+26            24248.957    143.756    184.365
         TR   0.128E+29             1481.254      4.968     44.826
         TOT                       25730.2107   148.7240   229.1904   958.9328

       T/K    H(0)-H(T)+PV         H(T)/Eh          T*S/Eh         G(T)/Eh
   ------------------------------------------------------------------------
    298.15    0.410037E-01    0.696237E+00    0.108896E+00    0.587341E+00
   ------------------------------------------------------------------------

         :::::::::::::::::::::::::::::::::::::::::::::::::::::
         ::                  THERMODYNAMIC                  ::
         :::::::::::::::::::::::::::::::::::::::::::::::::::::
         :: total free energy        -106.212476740361 Eh   ::
         ::.................................................::
         :: total energy             -106.799817936274 Eh   ::
         :: zero point energy           0.655233267940 Eh   ::
         :: G(RRHO) w/o ZPVE           -0.067892072026 Eh   ::
         :: G(RRHO) contrib.            0.587341195913 Eh   ::
         :::::::::::::::::::::::::::::::::::::::::::::::::::::

           -------------------------------------------------
          | TOTAL ENERGY             -106.799817936274 Eh   |
          | TOTAL ENTHALPY           -106.103580967622 Eh   |
          | TOTAL FREE ENERGY        -106.212476740361 Eh   |
          | GRADIENT NORM               0.000034286377 Eh/α |
          | HOMO-LUMO GAP               2.846970804865 eV   |
           -------------------------------------------------

 * finished run on 2025/09/12 at 09:41:15.353
