   * xtb version 6.7.1 (edcfbbe) compiled by 'albert@albert-system' on 2024-07-22

   ID    Z sym.   atoms
    1    6 C      1-8, 10-23, 25-40
    2   15 P      9, 24
    3    1 H      41-80

          program call               : xtb data2507/gas/LEt/LEt_gas_T1_crest.xyz --gfn 2 --spinpol --tblite --uhf 2 --ohess vtight --parallel 40 --molden --ceasefiles --namespace data2507/gas/LEt/LEt_gas_T1_finalOpt
 * total energy  :  -106.7146698 Eh     change       -0.1118676E-07 Eh
 * total energy  :  -106.7146888 Eh     change       -0.1902406E-04 Eh
 * total energy  :  -106.7147016 Eh     change       -0.1275630E-04 Eh
 * total energy  :  -106.7147071 Eh     change       -0.5575016E-05 Eh
 * total energy  :  -106.7147114 Eh     change       -0.4263782E-05 Eh
 * total energy  :  -106.7147176 Eh     change       -0.6175346E-05 Eh
 * total energy  :  -106.7147229 Eh     change       -0.5328530E-05 Eh
 * total energy  :  -106.7147266 Eh     change       -0.3740353E-05 Eh
 * total energy  :  -106.7147298 Eh     change       -0.3123326E-05 Eh
 * total energy  :  -106.7147325 Eh     change       -0.2720538E-05 Eh
 * total energy  :  -106.7147394 Eh     change       -0.3338541E-06 Eh
 * total energy  :  -106.7147396 Eh     change       -0.2099978E-06 Eh
 * total energy  :  -106.7147398 Eh     change       -0.2434283E-06 Eh
 * total energy  :  -106.7147398 Eh     change        0.1071140E-07 Eh
 * total energy  :  -106.7147400 Eh     change       -0.1882401E-06 Eh
 * total energy  :  -106.7147402 Eh     change       -0.1786421E-06 Eh
 * total energy  :  -106.7147400 Eh     change        0.1488705E-06 Eh
 * total energy  :  -106.7147402 Eh     change       -0.2004542E-06 Eh
 * total energy  :  -106.7147403 Eh     change       -0.4520903E-07 Eh
   *** GEOMETRY OPTIMIZATION CONVERGED AFTER 26 ITERATIONS ***

 final structure:
================
80
 xtb: 6.7.1 (edcfbbe)
C           -2.69741973465026        0.67710933067203       -3.33334703686883
C           -1.30808821510875        1.05004093460610       -2.81694997748370
C           -1.38898465748287        2.14644420534938       -1.79847471471855
C           -1.39124677235265        3.47847104647307       -2.18800564349415
C           -1.52460833439080        4.49290250035426       -1.25652081790921
C           -1.64489222446553        4.18418526016112        0.09104024309736
C           -1.61804822493566        2.86520977987851        0.49782244127141
C           -1.51450375273926        1.84113113682927       -0.43981082911138
P           -1.36273531790434        0.10217855250800        0.13172095664953
C           -3.08974005862611       -0.47827834554696        0.14709650415974
C           -4.13283167931097        0.45070088112349        0.22365573464055
C           -5.43463728840680        0.01863946185778        0.37312375574489
C           -5.71486036127275       -1.33765624923736        0.44273191353637
C           -4.68084356309593       -2.26082036456477        0.36044696050074
C           -3.36802923623929       -1.85127591994386        0.21251469801858
C           -2.25822430319612       -2.84647326161891        0.06884161271314
C           -1.88805334824229       -3.03981536296704       -1.40038428148754
C           -0.80595359396206        0.18494897859786        1.81582927337097
C           -1.53071645925225        0.21812478631133        3.01363522085380
C           -0.84681144017966        0.25173899737232        4.20052750245095
C            0.57180195908932        0.22075361240388        4.23111087017712
C            1.29920676359843        0.12499381860995        3.06629178242057
C            0.62308738848685        0.02741993027480        1.85572865030943
P            1.22441905124063       -0.07200578385460        0.18303787368805
C            1.36896032347894       -1.86012849592955       -0.20151535505912
C            1.18753708604627       -2.80547955434882        0.80461940406779
C            1.33859246885751       -4.15146806543849        0.53447037361719
C            1.68026179109744       -4.56245314775358       -0.74469936061154
C            1.86923962855995       -3.62408310725048       -1.74421198494108
C            1.72010734618222       -2.26734676573011       -1.49068090192493
C            1.94426294612448       -1.26426126648477       -2.58393997038924
C            3.42384375979190       -1.15098274130046       -2.94819450266811
C            2.96703021632657        0.44837904829789        0.23286500415918
C            3.92704569298498       -0.44959570574828        0.71218449477346
C            5.25083092021255       -0.06785025430265        0.79068591731510
C            5.63434930344514        1.19824502064905        0.37661438207546
C            4.68090187004327        2.08793437605073       -0.09990164194163
C            3.34469135873829        1.73174883265390       -0.17480500473894
C            2.31413686305259        2.72747428131264       -0.61316216838859
C            1.84158566932058        3.54972843042212        0.58483895642079
H           -3.32475404717548        0.33179154863994       -2.51374619279302
H           -3.17557873349192        1.53991908391542       -3.79228550306396
H           -2.62692742061391       -0.11655763176947       -4.07402752552729
H           -0.85297227607664        0.16681452044136       -2.35138919731663
H           -0.68001576213330        1.36245415203280       -3.65502813370132
H           -1.29010279847499        3.72172849705897       -3.23683056642844
H           -1.52985382269700        5.52411068283183       -1.57827630831401
H           -1.75122569900279        4.97271340427100        0.82206640922629
H           -1.68798187384754        2.61384814676631        1.54806271666991
H           -3.91552536579405        1.50766394693610        0.16430266809345
H           -6.23482102712717        0.74209917840742        0.43667878392894
H           -6.73357341489462       -1.67660012027604        0.55703669710871
H           -4.90188116030315       -3.31806352184475        0.40897336177886
H           -1.37772664751537       -2.47879587935754        0.60839348263577
H           -2.55285235341151       -3.80461671494388        0.50138185802725
H           -1.07951450828770       -3.76052439544893       -1.49652641649487
H           -1.55838640034702       -2.09392306624000       -1.82785330185003
H           -2.74748775200515       -3.39315979075382       -1.96651301379158
H           -2.61198144875880        0.26556685278049        2.98758905973855
H           -1.38608807988055        0.32290487000253        5.13371968045992
H            1.07664903213693        0.24932044720067        5.18477835532486
H            2.38045648525959        0.07910825465089        3.08831676173767
H            0.92858776428530       -2.47323620147092        1.80189399129987
H            1.19057673329848       -4.87937219729037        1.31878063745259
H            1.79884485525866       -5.61389758810539       -0.96225058338667
H            2.12875712476008       -3.94897384316677       -2.74222804475334
H            1.37429106583964       -1.55336502080910       -3.47120577339458
H            1.58311609918607       -0.28453103547442       -2.24758206405261
H            3.56284636826305       -0.41728161867044       -3.73889488281598
H            3.80808766620206       -2.10840020762168       -3.29257185501177
H            4.00400654145678       -0.83938298070123       -2.08232494253459
H            3.62639465428322       -1.44249183621837        1.01667160785568
H            5.98789437531782       -0.76272080605099        1.16710700285640
H            6.67181916883710        1.49358136133625        0.42383564858607
H            4.98207322357280        3.07660361462906       -0.41692729828213
H            1.45271510694386        2.20335101943093       -1.04390581863843
H            2.72915778785000        3.39241728708009       -1.37377472085196
H            1.38487632915366        2.89597145623751        1.32644338512673
H            2.68141526037842        4.06322044016900        1.04825579553298
H            1.10502312449209        4.28605135094845        0.27326026087032

 projected vibrational frequencies (cm⁻¹)
eigval :       -0.00    -0.00    -0.00    -0.00     0.00     0.00
eigval :       13.56    23.17    26.51    27.11    33.38    40.26
eigval :       43.27    44.56    51.32    52.45    58.79    61.54
eigval :       70.33    76.22    84.05    98.69   107.38   111.61
eigval :      117.38   121.79   124.42   133.80   152.70   161.14
eigval :      172.21   178.61   184.09   185.17   193.21   198.50
eigval :      207.51   221.53   223.24   224.49   235.48   282.40
eigval :      300.01   304.86   306.02   311.90   331.79   348.71
eigval :      358.59   365.66   371.53   381.69   393.21   395.59
eigval :      396.20   404.21   416.25   429.91   438.12   448.30
eigval :      454.96   477.32   495.91   500.06   506.52   507.18
eigval :      543.68   544.92   545.62   547.64   578.34   647.92
eigval :      652.69   657.66   661.87   667.37   668.66   670.41
eigval :      678.00   694.27   711.75   725.49   758.66   761.86
eigval :      769.50   771.15   788.20   788.95   790.03   791.02
eigval :      811.14   816.17   816.88   821.80   828.12   863.44
eigval :      863.88   881.75   886.58   887.72   898.28   900.77
eigval :      901.15   910.84   914.39   914.82   915.74   924.17
eigval :      927.34   982.87   997.81   998.72  1000.78  1002.67
eigval :     1006.58  1030.09  1033.30  1036.78  1039.87  1041.65
eigval :     1046.77  1049.33  1055.83  1068.28  1078.33  1078.63
eigval :     1078.94  1081.99  1091.68  1093.33  1094.25  1095.43
eigval :     1147.02  1151.09  1155.67  1156.22  1161.42  1175.77
eigval :     1177.43  1178.77  1179.02  1179.47  1185.58  1204.23
eigval :     1208.75  1212.87  1217.40  1226.70  1228.18  1230.32
eigval :     1233.40  1257.62  1258.00  1259.02  1261.01  1309.92
eigval :     1311.33  1312.76  1314.14  1316.66  1321.72  1323.88
eigval :     1327.10  1329.26  1336.61  1389.86  1402.28  1405.85
eigval :     1407.30  1408.22  1410.25  1411.75  1417.94  1418.85
eigval :     1438.16  1446.78  1448.17  1451.40  1456.75  1460.20
eigval :     1464.03  1465.89  1469.41  1483.17  1490.85  1493.31
eigval :     1494.08  1496.08  1497.75  1498.39  1502.41  1502.63
eigval :     1514.23  1518.27  1543.35  1547.35  1552.30  1557.51
eigval :     1565.07  1571.56  2901.91  2903.71  2913.31  2917.88
eigval :     2956.44  2964.01  2971.17  2977.75  3014.71  3019.96
eigval :     3028.30  3029.37  3030.12  3030.85  3032.73  3034.21
eigval :     3035.32  3037.66  3039.89  3041.29  3046.66  3049.76
eigval :     3051.02  3055.72  3063.84  3064.33  3066.65  3067.22
eigval :     3068.31  3068.46  3074.26  3075.31  3075.49  3076.75
eigval :     3078.04  3086.30  3087.87  3089.37  3089.78  3090.63

   temp. (K)  partition function   enthalpy   heat capacity  entropy
                                   cal/mol     cal/K/mol   cal/K/mol   J/K/mol
 298.15  VIB  0.979E+19            24102.455    142.731    153.163
         ROT  0.320E+08              888.752      2.981     37.326
         INT  0.314E+27            24991.207    145.712    190.488
         TR   0.128E+29             1481.254      4.968     44.826
         TOT                       26472.4608   150.6804   235.3142   984.5546

       T/K    H(0)-H(T)+PV         H(T)/Eh          T*S/Eh         G(T)/Eh
   ------------------------------------------------------------------------
    298.15    0.421866E-01    0.691298E+00    0.111805E+00    0.579493E+00
   ------------------------------------------------------------------------

         :::::::::::::::::::::::::::::::::::::::::::::::::::::
         ::                  THERMODYNAMIC                  ::
         :::::::::::::::::::::::::::::::::::::::::::::::::::::
         :: total free energy        -106.135247570423 Eh   ::
         ::.................................................::
         :: total energy             -106.714740260279 Eh   ::
         :: zero point energy           0.649111501308 Eh   ::
         :: G(RRHO) w/o ZPVE           -0.069618811452 Eh   ::
         :: G(RRHO) contrib.            0.579492689856 Eh   ::
         :::::::::::::::::::::::::::::::::::::::::::::::::::::

           -------------------------------------------------
          | TOTAL ENERGY             -106.714740260279 Eh   |
          | TOTAL ENTHALPY           -106.023442207373 Eh   |
          | TOTAL FREE ENERGY        -106.135247570423 Eh   |
          | GRADIENT NORM               0.000056916363 Eh/α |
           -------------------------------------------------

 * finished run on 2025/09/12 at 10:00:07.070
