   * xtb version 6.7.1 (edcfbbe) compiled by 'albert@albert-system' on 2024-07-22

   ID    Z sym.   atoms
    1    6 C      1-8, 10-23, 25-40
    2   15 P      9, 24
    3    1 H      41-80

          program call               : xtb data2507/gas/LEt/LEt_gas_S0_crest.xyz --gfn 2 --ohess vtight --parallel 40 --molden --ceasefiles --namespace data2507/gas/LEt/LEt_gas_S0_finalOpt
          :  Hamiltonian                  GFN2-xTB          :
 * total energy  :  -106.8106192 Eh     change       -0.9695924E-08 Eh
 * total energy  :  -106.8106201 Eh     change       -0.8886308E-06 Eh
 * total energy  :  -106.8106209 Eh     change       -0.8475640E-06 Eh
 * total energy  :  -106.8106224 Eh     change       -0.1513822E-05 Eh
 * total energy  :  -106.8106227 Eh     change       -0.3071809E-06 Eh
 * total energy  :  -106.8106230 Eh     change       -0.2638290E-06 Eh
 * total energy  :  -106.8106235 Eh     change       -0.4663493E-06 Eh
 * total energy  :  -106.8106237 Eh     change       -0.2614634E-06 Eh
 * total energy  :  -106.8106239 Eh     change       -0.1519808E-06 Eh
 * total energy  :  -106.8106241 Eh     change       -0.2398919E-06 Eh
 * total energy  :  -106.8106246 Eh     change       -0.2216065E-06 Eh
 * total energy  :  -106.8106248 Eh     change       -0.1916567E-06 Eh
 * total energy  :  -106.8106251 Eh     change       -0.2156409E-06 Eh
 * total energy  :  -106.8106253 Eh     change       -0.2284033E-06 Eh
 * total energy  :  -106.8106255 Eh     change       -0.1697924E-06 Eh
 * total energy  :  -106.8106256 Eh     change       -0.1417816E-06 Eh
 * total energy  :  -106.8106257 Eh     change       -0.1390879E-06 Eh
 * total energy  :  -106.8106259 Eh     change       -0.1219909E-06 Eh
 * total energy  :  -106.8106259 Eh     change       -0.9145178E-07 Eh
   *** GEOMETRY OPTIMIZATION CONVERGED AFTER 20 ITERATIONS ***

 final structure:
================
80
 xtb: 6.7.1 (edcfbbe)
C           -2.21855741805782        0.56266041305994       -3.43717830340857
C           -0.85895608268283        1.05482293996670       -2.94375600924408
C           -1.02695434496186        2.11460319021234       -1.89661998745730
C           -0.92122670301588        3.45871956879908       -2.22710662779407
C           -1.11684682938837        4.44426712967385       -1.27628302592849
C           -1.42072032799599        4.09321023231151        0.02822681395543
C           -1.52257710904618        2.75886110501241        0.37484412955677
C           -1.33180781319327        1.76418971365311       -0.57884651792506
P           -1.44339764300798       -0.01726105586988       -0.15667695743301
C           -3.25652659790782       -0.20282603258205        0.12049313687097
C           -4.15996834980935        0.84268844085164       -0.03536994859801
C           -5.51560706441554        0.63772361228492        0.14984654416835
C           -5.98502050717042       -0.61996314352330        0.48389444377381
C           -5.09434833002106       -1.67147767140760        0.61440098966752
C           -3.73331109834731       -1.48286875316148        0.42715477244712
C           -2.79256393362858       -2.65027361842315        0.50076762804227
C           -2.52616722290223       -3.20789632455668       -0.89683134536224
C           -0.86736243181125        0.09650466112474        1.57490040819630
C           -1.62093027000257        0.12668494840893        2.73508667193921
C           -0.97363536384045        0.23743123681346        3.95773113672975
C            0.40761492014329        0.31823934694897        4.01726687553483
C            1.16911524693919        0.26013957207179        2.85846214939138
C            0.53028475520389        0.12002136674334        1.63870668799143
P            1.26396024544923        0.02371582782006       -0.03113723322576
C            1.29714654096834       -1.79529279111584       -0.27035976712648
C            0.84352216775885       -2.68464251357336        0.69934228806119
C            0.81238445058255       -4.04449722084183        0.45325020238619
C            1.22522102366336       -4.53208754554394       -0.77457569780965
C            1.68473860099047       -3.65510618217761       -1.73930974634165
C            1.73541165190618       -2.28727872184262       -1.50362575218162
C            2.29906910328425       -1.38013532935227       -2.55871490919245
C            3.81844047384435       -1.51751945309747       -2.65296547546337
C            3.04197247812170        0.29002888095905        0.37624782127631
C            3.80024061729702       -0.70895942671784        0.98026628184283
C            5.13637078979142       -0.50327144824812        1.26795882771771
C            5.73055102707811        0.70536508549574        0.94541575383840
C            4.98284024613483        1.70037299975965        0.34235080031846
C            3.63874767348741        1.50968782948372        0.04912908655797
C            2.83382640181270        2.62124512349774       -0.55724175451180
C            2.07480909521574        3.37903768070466        0.53020303356705
H           -2.79004556621927        0.14572486301678       -2.60801091901008
H           -2.78919142225686        1.38370457824762       -3.86690666351555
H           -2.09331323381120       -0.20894751110143       -4.19346764347842
H           -0.31181086539330        0.20909765198722       -2.51469195871813
H           -0.28429597044475        1.44860754472483       -3.78485442532232
H           -0.68308947788160        3.73554888133495       -3.24499732600339
H           -1.03247281326261        5.48570690559322       -1.55208466954784
H           -1.57502007682346        4.85749334261545        0.77636750007429
H           -1.75720415326957        2.48687571556711        1.39506951779913
H           -3.80400669675837        1.82735279842094       -0.30259592751521
H           -6.20375224406256        1.46251114912895        0.03289071711809
H           -7.04210499365108       -0.78433512353669        0.63443483725486
H           -5.46137944844770       -2.65822627780494        0.86193437587756
H           -1.84279426946448       -2.33654147606016        0.94268199961229
H           -3.21892896025556       -3.43364922733237        1.13144356625346
H           -1.84785980123604       -4.05626013339952       -0.84429612883866
H           -2.06766124513291       -2.44248960101069       -1.52160451594140
H           -3.45589197699042       -3.52543718397365       -1.36431473040859
H           -2.70058284945924        0.07478179074833        2.68883130241801
H           -1.55422915459859        0.27110972571728        4.86861941387699
H            0.89915709951250        0.41942055863007        4.97433666121228
H            2.24777917406349        0.31421614972811        2.91074551318779
H            0.52513144394518       -2.31431244236792        1.66413859599010
H            0.46194028944180       -4.72121857813915        1.21949696888039
H            1.19243441351064       -5.59277113135003       -0.97780625435717
H            2.00965279421386       -4.03554618333909       -2.69784457936824
H            1.85406468842712       -1.62141486863552       -3.52768200088562
H            2.05299501812500       -0.34075046488938       -2.31690024434931
H            4.09632316143854       -2.53959582969350       -2.90054674919097
H            4.28148355813299       -1.25597306335605       -1.70390833939240
H            4.21036537719171       -0.85545655929312       -3.42177513411413
H            3.33822531119984       -1.65632158808496        1.22345918204787
H            5.71374679919686       -1.28568930372521        1.73930340489428
H            6.77571007276306        0.87104200917927        1.16308529439604
H            5.44913122581874        2.64316027922007        0.09130287542420
H            2.10974722711361        2.21275815376054       -1.26878603971934
H            3.49256046837773        3.30895509647682       -1.09163221437032
H            1.38343221430984        2.70779206298804        1.03863181071586
H            2.76587632634597        3.78478586216682        1.26647914002137
H            1.50082099032392        4.19438621021746        0.09662379785981

          :  Hamiltonian                  GFN2-xTB          :
         :: gradient norm              0.000030237579 Eh/a0 ::
         :: HOMO-LUMO gap              2.894849523177 eV    ::
         :: SCC energy              -108.713704172192 Eh    ::
         :: -> dispersion             -0.124933240082 Eh    ::
         :: repulsion energy           1.903078222775 Eh    ::

    * Orbital Energies and Occupations

         #    Occupation            Energy/Eh            Energy/eV
      -------------------------------------------------------------
         1        2.0000           -0.6645050             -18.0821
       ...           ...                  ...                  ...
        89        2.0000           -0.4075527             -11.0901
        90        2.0000           -0.4046675             -11.0116
        91        2.0000           -0.4001216             -10.8879
        92        2.0000           -0.3977603             -10.8236
        93        2.0000           -0.3975811             -10.8187
        94        2.0000           -0.3955045             -10.7622
        95        2.0000           -0.3937477             -10.7144
        96        2.0000           -0.3916841             -10.6583
        97        2.0000           -0.3914246             -10.6512
        98        2.0000           -0.3889994             -10.5852
        99        2.0000           -0.3873315             -10.5398
       100        2.0000           -0.3711398             -10.0992
       101        2.0000           -0.3487784              -9.4907 (HOMO)
       102                         -0.2423947              -6.5959 (LUMO)
       103                         -0.2361697              -6.4265
       104                         -0.2344950              -6.3809
       105                         -0.2308920              -6.2829
       106                         -0.2225837              -6.0568
       107                         -0.2195179              -5.9734
       108                         -0.2192066              -5.9649
       109                         -0.2175093              -5.9187
       110                         -0.2173882              -5.9154
       111                         -0.2157628              -5.8712
       112                         -0.1718008              -4.6749
       ...                                ...                  ...
       210                          1.4794692              40.2584
      -------------------------------------------------------------
                  HL-Gap            0.1063837 Eh            2.8948 eV

     #   Z          covCN         q      C6AA      α(0)
     1   6 C        3.753    -0.092    22.306     6.735
     2   6 C        3.813    -0.055    21.550     6.608
     3   6 C        3.051     0.019    27.541     8.607
     4   6 C        2.924    -0.038    28.951     8.824
     5   6 C        2.918    -0.031    28.762     8.795
     6   6 C        2.919    -0.034    28.855     8.809
     7   6 C        2.974    -0.025    28.612     8.774
     8   6 C        2.922     0.027    27.390     8.582
     9  15 P        4.034    -0.180   168.463    23.315
    10   6 C        2.919     0.016    27.660     8.624
    11   6 C        2.964    -0.030    28.757     8.796
    12   6 C        2.919    -0.035    28.874     8.812
    13   6 C        2.918    -0.032    28.791     8.799
    14   6 C        2.924    -0.039    28.980     8.828
    15   6 C        3.053     0.014    27.644     8.623
    16   6 C        3.814    -0.050    21.464     6.594
    17   6 C        3.754    -0.093    22.334     6.739
    18   6 C        3.097     0.025    27.319     8.566
    19   6 C        2.944    -0.030    28.748     8.794
    20   6 C        2.920    -0.031    28.779     8.797
    21   6 C        2.920    -0.031    28.783     8.798
    22   6 C        2.944    -0.029    28.735     8.792
    23   6 C        3.095     0.026    27.306     8.564
    24  15 P        4.028    -0.185   168.734    23.334
    25   6 C        2.919     0.026    27.419     8.587
    26   6 C        2.971    -0.024    28.598     8.772
    27   6 C        2.919    -0.034    28.835     8.806
    28   6 C        2.918    -0.031    28.774     8.796
    29   6 C        2.925    -0.037    28.914     8.818
    30   6 C        3.052     0.015    27.619     8.619
    31   6 C        3.811    -0.053    21.510     6.602
    32   6 C        3.753    -0.095    22.379     6.746
    33   6 C        2.920     0.018    27.614     8.617
    34   6 C        2.975    -0.027    28.666     8.782
    35   6 C        2.918    -0.036    28.895     8.815
    36   6 C        2.918    -0.031    28.771     8.796
    37   6 C        2.924    -0.039    28.964     8.826
    38   6 C        3.040     0.015    27.633     8.622
    39   6 C        3.810    -0.052    21.501     6.600
    40   6 C        3.754    -0.089    22.251     6.726
    41   1 H        0.925     0.046     2.373     2.409
    42   1 H        0.925     0.033     2.548     2.496
    43   1 H        0.925     0.035     2.514     2.479
    44   1 H        0.924     0.066     2.130     2.282
    45   1 H        0.924     0.034     2.532     2.488
    46   1 H        0.925     0.029     2.607     2.525
    47   1 H        0.926     0.026     2.639     2.540
    48   1 H        0.926     0.026     2.647     2.544
    49   1 H        0.925     0.032     2.556     2.500
    50   1 H        0.926     0.034     2.536     2.490
    51   1 H        0.926     0.026     2.647     2.544
    52   1 H        0.926     0.027     2.634     2.538
    53   1 H        0.925     0.027     2.630     2.536
    54   1 H        0.924     0.052     2.295     2.369
    55   1 H        0.924     0.031     2.573     2.509
    56   1 H        0.925     0.035     2.522     2.484
    57   1 H        0.925     0.048     2.348     2.396
    58   1 H        0.925     0.034     2.527     2.486
    59   1 H        0.925     0.032     2.556     2.500
    60   1 H        0.926     0.028     2.617     2.530
    61   1 H        0.926     0.028     2.616     2.530
    62   1 H        0.925     0.034     2.526     2.486
    63   1 H        0.925     0.030     2.593     2.518
    64   1 H        0.926     0.026     2.645     2.543
    65   1 H        0.926     0.027     2.632     2.537
    66   1 H        0.925     0.030     2.591     2.517
    67   1 H        0.924     0.039     2.462     2.454
    68   1 H        0.925     0.058     2.226     2.333
    69   1 H        0.925     0.036     2.501     2.473
    70   1 H        0.925     0.035     2.518     2.482
    71   1 H        0.925     0.035     2.522     2.483
    72   1 H        0.925     0.035     2.523     2.484
    73   1 H        0.926     0.026     2.643     2.542
    74   1 H        0.926     0.028     2.621     2.532
    75   1 H        0.925     0.028     2.612     2.527
    76   1 H        0.924     0.051     2.302     2.373
    77   1 H        0.924     0.034     2.537     2.491
    78   1 H        0.925     0.041     2.435     2.440
    79   1 H        0.925     0.033     2.545     2.495
    80   1 H        0.925     0.034     2.523     2.484

molecular dipole:
                 x           y           z       tot (Debye)
 q only:        0.223      -0.045      -0.473
   full:        0.183       0.001       0.095       0.525

 projected vibrational frequencies (cm⁻¹)
eigval :       -0.00    -0.00    -0.00     0.00     0.00     0.00
eigval :       19.39    25.02    25.48    34.84    39.22    43.40
eigval :       48.59    49.52    54.45    59.54    67.35    72.58
eigval :       83.28    88.34    94.89    98.51   112.29   115.85
eigval :      123.19   128.62   134.59   144.00   165.28   177.84
eigval :      179.15   190.71   192.02   196.63   203.83   208.65
eigval :      219.08   221.52   234.23   238.84   253.54   291.72
eigval :      301.63   307.52   310.16   318.03   363.64   367.75
eigval :      372.84   387.02   390.83   401.95   412.04   420.73
eigval :      427.75   434.43   444.53   451.58   459.93   472.35
eigval :      481.32   498.43   506.65   509.51   512.27   519.84
eigval :      547.24   548.45   550.10   550.97   657.12   663.71
eigval :      667.20   674.70   677.37   679.87   685.70   686.03
eigval :      691.08   692.86   704.91   766.60   771.97   773.92
eigval :      774.67   777.03   791.25   792.41   793.33   793.94
eigval :      812.96   817.25   818.08   823.51   879.90   881.23
eigval :      884.56   885.51   886.96   911.13   913.46   917.06
eigval :      917.71   919.16   928.37   928.85   930.10   930.55
eigval :      931.20  1001.16  1003.10  1003.99  1004.74  1005.03
eigval :     1040.18  1042.89  1043.71  1046.26  1062.14  1064.82
eigval :     1066.58  1068.00  1078.86  1080.12  1080.64  1082.37
eigval :     1084.52  1100.58  1100.96  1103.24  1103.79  1130.39
eigval :     1157.82  1160.83  1160.87  1161.94  1162.69  1183.27
eigval :     1183.76  1184.63  1184.71  1186.09  1220.20  1222.98
eigval :     1224.87  1226.98  1228.88  1229.65  1231.22  1234.37
eigval :     1237.47  1260.88  1262.26  1262.79  1265.35  1311.43
eigval :     1312.14  1314.62  1314.91  1318.35  1319.52  1320.58
eigval :     1320.88  1322.45  1405.55  1406.94  1408.20  1410.80
eigval :     1414.57  1420.97  1424.66  1425.95  1426.79  1427.45
eigval :     1454.68  1455.93  1457.46  1457.86  1462.28  1472.30
eigval :     1474.38  1476.07  1491.34  1493.44  1494.37  1496.88
eigval :     1497.58  1497.87  1500.32  1504.45  1564.86  1569.17
eigval :     1572.45  1572.76  1573.38  1574.17  1587.78  1588.33
eigval :     1588.60  1588.94  2930.51  2937.73  2943.74  2955.95
eigval :     2960.30  2972.48  2973.84  2975.38  3008.26  3013.61
eigval :     3014.29  3027.48  3027.49  3030.35  3031.57  3032.03
eigval :     3033.86  3035.60  3037.21  3040.32  3060.35  3062.38
eigval :     3062.49  3062.89  3063.62  3063.83  3064.71  3065.80
eigval :     3065.92  3070.10  3073.35  3073.51  3074.13  3074.34
eigval :     3079.46  3083.74  3084.27  3084.98  3085.93  3087.19

   temp. (K)  partition function   enthalpy   heat capacity  entropy
                                   cal/mol     cal/K/mol   cal/K/mol   J/K/mol
 298.15  VIB  0.530E+18            23374.533    141.159    147.464
         ROT  0.318E+08              888.752      2.981     37.312
         INT  0.169E+26            24263.285    144.139    184.776
         TR   0.128E+29             1481.254      4.968     44.826
         TOT                       25744.5392   149.1076   229.6014   960.6523

       T/K    H(0)-H(T)+PV         H(T)/Eh          T*S/Eh         G(T)/Eh
   ------------------------------------------------------------------------
    298.15    0.410265E-01    0.695979E+00    0.109091E+00    0.586887E+00
   ------------------------------------------------------------------------

         :::::::::::::::::::::::::::::::::::::::::::::::::::::
         ::                  THERMODYNAMIC                  ::
         :::::::::::::::::::::::::::::::::::::::::::::::::::::
         :: total free energy        -106.223738475074 Eh   ::
         ::.................................................::
         :: total energy             -106.810625949416 Eh   ::
         :: zero point energy           0.654951979442 Eh   ::
         :: G(RRHO) w/o ZPVE           -0.068064505100 Eh   ::
         :: G(RRHO) contrib.            0.586887474342 Eh   ::
         :::::::::::::::::::::::::::::::::::::::::::::::::::::

           -------------------------------------------------
          | TOTAL ENERGY             -106.810625949416 Eh   |
          | TOTAL ENTHALPY           -106.114647435348 Eh   |
          | TOTAL FREE ENERGY        -106.223738475074 Eh   |
          | GRADIENT NORM               0.000030249751 Eh/α |
          | HOMO-LUMO GAP               2.894848652544 eV   |
           -------------------------------------------------

 * finished run on 2025/09/12 at 09:49:03.999
