   * xtb version 6.7.1 (edcfbbe) compiled by 'albert@albert-system' on 2024-07-22

   ID    Z sym.   atoms
    1    8 O      1, 3, 11, 22, 29, 31
    2    6 C      2, 4-10, 12-17, 20, 21, 23-28, 30
    3   35 Br     18
    4   16 S      19
    5    1 H      32-44

          program call               : xtb data2507/gas/3-BHH/3-BHH_gas_S0_finalOpt.xtbopt.xyz --gfn 2 --spinpol --tblite --uhf 2 --ohess vtight --parallel 40 --molden --ceasefiles --namespace data2507/gas/3-BHH/3-BHH_gas_T1_preOpt
 * total energy  :   -87.5513115 Eh     change       -0.2798620E-07 Eh
 * total energy  :   -87.5567389 Eh     change       -0.5427459E-02 Eh
 * total energy  :   -87.5582484 Eh     change       -0.1509459E-02 Eh
 * total energy  :   -87.5584344 Eh     change       -0.1859561E-03 Eh
 * total energy  :   -87.5585381 Eh     change       -0.1037341E-03 Eh
 * total energy  :   -87.5585881 Eh     change       -0.5004515E-04 Eh
 * total energy  :   -87.5586221 Eh     change       -0.3393498E-04 Eh
 * total energy  :   -87.5586465 Eh     change       -0.2440731E-04 Eh
 * total energy  :   -87.5586672 Eh     change       -0.2071263E-04 Eh
 * total energy  :   -87.5586868 Eh     change       -0.1957985E-04 Eh
 * total energy  :   -87.5587892 Eh     change       -0.1511953E-05 Eh
 * total energy  :   -87.5587902 Eh     change       -0.1045909E-05 Eh
 * total energy  :   -87.5587906 Eh     change       -0.4255485E-06 Eh
 * total energy  :   -87.5587914 Eh     change       -0.7650167E-06 Eh
 * total energy  :   -87.5587916 Eh     change       -0.1685179E-06 Eh
 * total energy  :   -87.5587918 Eh     change       -0.2590570E-06 Eh
 * total energy  :   -87.5587919 Eh     change       -0.1016728E-06 Eh
 * total energy  :   -87.5587921 Eh     change       -0.1612248E-06 Eh
 * total energy  :   -87.5587921 Eh     change       -0.5240032E-07 Eh
   *** GEOMETRY OPTIMIZATION CONVERGED AFTER 28 ITERATIONS ***

 final structure:
================
44
 xtb: 6.7.1 (edcfbbe)
O           -2.42170012159596        0.56729442767155       -2.53288290425744
C           -2.67999409843257       -0.10797317582561       -1.53417269665197
O           -3.95221127028804       -0.55253134490199       -1.42030366094780
C           -4.33584088403587       -1.34443947006301       -0.38054193982553
C           -5.64098682193927       -1.79745188732719       -0.36242028595244
C           -6.07865120502465       -2.59626965241095        0.68896717636413
C           -5.21068725498044       -2.93131552869739        1.72271519854752
C           -3.91096212288208       -2.48354912023198        1.71538025236000
C           -3.44077824304547       -1.67350691985280        0.65821133412650
C           -2.11054020336959       -1.16897251604638        0.62241919226971
O           -1.32841643340788       -1.45671845138476        1.65060801168904
C           -1.70898963162496       -0.44911289554164       -0.53618782020700
C           -0.29452622369154       -0.03050095161722       -0.86872844403935
C            0.77181582341173       -1.02316296690198       -0.53605040473636
C            0.66878093559365       -2.37493905639939       -0.38590141800366
C            1.90832644402527       -3.01070376707402       -0.17578133319145
C            2.94021708387156       -2.12308187492894       -0.18859878875173
Br           4.75822795037199       -2.51311157822325        0.04237587672747
S            2.42123588197511       -0.49467613203629       -0.45625467207499
C           -0.13015632213392        1.31295631547294       -0.19270487445934
C           -0.34810523712712        2.53515287907303       -0.89624761046396
O           -0.83851601471072        2.61067478014474       -2.12792406974088
C            0.05930456920405        3.74007035056648       -0.26954470840923
C           -0.02626597341840        4.99692216004791       -0.91099709251829
C            0.35257973785001        6.14108737533768       -0.25009854838900
C            0.83093970505713        6.07815341583130        1.05417813611452
C            0.92512031641762        4.85249120839397        1.70838634504912
C            0.54940481733939        3.69668582087720        1.05399595701716
O            0.64664229753013        2.52051154813209        1.73634222712319
C            0.33590911846889        1.33747605703483        1.15601466042887
O            0.51309364118770        0.32910193114721        1.84640245552596
H           -6.29969683212567       -1.52074698856112       -1.16945102640472
H           -7.09567351044443       -2.95479300871202        0.69566327652037
H           -5.55957273355474       -3.54932191870266        2.53573067672286
H           -3.22242464167203       -2.73416735086423        2.50564914561045
H           -0.50939507769468       -0.88434924343373        1.70094344560860
H           -0.25617019219007        0.13054187974843       -1.95650567793208
H           -0.26237513116676       -2.91070500641214       -0.42034031763746
H            2.03095485565011       -4.06681933352878       -0.02157236751714
H           -1.37044131225245        1.81291591125632       -2.39915304888306
H           -0.39577158215763        5.02399796330164       -1.92289304049930
H            0.28126421328419        7.09566598265217       -0.74852574154459
H            1.13473334168050        6.97733686825125        1.56605050443303
H            1.28833707283548        4.78395045979501        2.72090207734793

 projected vibrational frequencies (cm⁻¹)
eigval :       -0.00    -0.00    -0.00     0.00     0.00     0.00
eigval :       16.95    22.59    29.03    38.15    46.03    70.37
eigval :       80.37   109.33   115.07   121.77   132.20   149.02
eigval :      153.27   159.56   173.29   206.28   245.83   247.82
eigval :      254.85   264.56   275.50   291.25   294.44   325.68
eigval :      341.49   356.53   377.33   394.65   401.46   407.00
eigval :      424.22   435.65   451.19   487.06   490.02   497.02
eigval :      506.93   519.05   528.89   546.75   560.04   594.65
eigval :      611.79   616.08   632.69   649.39   653.48   657.38
eigval :      677.52   683.49   689.35   710.09   732.19   755.75
eigval :      762.43   768.02   781.52   782.19   799.68   814.55
eigval :      839.91   850.21   852.71   856.42   884.53   889.10
eigval :      892.65   905.49   912.48   914.46   916.06   935.19
eigval :     1038.82  1062.91  1066.02  1070.74  1078.20  1095.80
eigval :     1105.28  1133.93  1161.03  1166.57  1170.50  1175.13
eigval :     1186.47  1200.58  1207.13  1215.10  1227.80  1230.10
eigval :     1234.56  1251.18  1281.22  1289.40  1303.13  1334.06
eigval :     1340.35  1341.75  1369.41  1380.16  1388.63  1399.58
eigval :     1421.26  1435.53  1450.20  1455.46  1512.22  1521.86
eigval :     1535.16  1539.22  1542.18  1556.21  1573.95  2764.77
eigval :     2844.38  2876.03  3092.60  3093.12  3104.34  3104.45
eigval :     3116.95  3117.06  3119.71  3120.02  3135.54  3147.47

   temp. (K)  partition function   enthalpy   heat capacity  entropy
                                   cal/mol     cal/K/mol   cal/K/mol   J/K/mol
 298.15  VIB  0.433E+11            14656.429     91.948     89.618
         ROT  0.321E+08              888.752      2.981     37.331
         INT  0.139E+19            15545.181     94.929    126.949
         TR   0.107E+29             1481.254      4.968     44.479
         TOT                       17026.4350    99.8971   171.4287   717.2575

       T/K    H(0)-H(T)+PV         H(T)/Eh          T*S/Eh         G(T)/Eh
   ------------------------------------------------------------------------
    298.15    0.271334E-01    0.319320E+00    0.814513E-01    0.237869E+00
   ------------------------------------------------------------------------

         :::::::::::::::::::::::::::::::::::::::::::::::::::::
         ::                  THERMODYNAMIC                  ::
         :::::::::::::::::::::::::::::::::::::::::::::::::::::
         :: total free energy         -87.320923230889 Eh   ::
         ::.................................................::
         :: total energy              -87.558792120508 Eh   ::
         :: zero point energy           0.292186824052 Eh   ::
         :: G(RRHO) w/o ZPVE           -0.054317934434 Eh   ::
         :: G(RRHO) contrib.            0.237868889619 Eh   ::
         :::::::::::::::::::::::::::::::::::::::::::::::::::::

           -------------------------------------------------
          | TOTAL ENERGY              -87.558792120508 Eh   |
          | TOTAL ENTHALPY            -87.239471945217 Eh   |
          | TOTAL FREE ENERGY         -87.320923230889 Eh   |
          | GRADIENT NORM               0.000108866220 Eh/α |
           -------------------------------------------------

 * finished run on 2025/07/20 at 18:46:03.971
