   * xtb version 6.7.1 (edcfbbe) compiled by 'albert@albert-system' on 2024-07-22

   ID    Z sym.   atoms
    1    8 O      1, 3, 11, 22, 29, 31
    2    6 C      2, 4-10, 12-17, 20, 21, 23-28, 30
    3   35 Br     18
    4   16 S      19
    5    1 H      32-44

          program call               : xtb data2507/gas/3-BHH/3-BHH_gas_S0_crest.xyz --gfn 2 --ohess vtight --parallel 40 --molden --ceasefiles --namespace data2507/gas/3-BHH/3-BHH_gas_S0_finalOpt
          :  Hamiltonian                  GFN2-xTB          :
 * total energy  :   -87.6570491 Eh     change       -0.8302692E-09 Eh
 * total energy  :   -87.6570504 Eh     change       -0.1300123E-05 Eh
 * total energy  :   -87.6570520 Eh     change       -0.1634289E-05 Eh
 * total energy  :   -87.6570546 Eh     change       -0.2589308E-05 Eh
 * total energy  :   -87.6570573 Eh     change       -0.2714456E-05 Eh
 * total energy  :   -87.6570585 Eh     change       -0.1130300E-05 Eh
 * total energy  :   -87.6570590 Eh     change       -0.4808701E-06 Eh
 * total energy  :   -87.6570594 Eh     change       -0.4199293E-06 Eh
 * total energy  :   -87.6570597 Eh     change       -0.3401625E-06 Eh
 * total energy  :   -87.6570599 Eh     change       -0.2242269E-06 Eh
 * total energy  :   -87.6570601 Eh     change       -0.1790825E-06 Eh
 * total energy  :   -87.6570603 Eh     change       -0.1448400E-06 Eh
 * total energy  :   -87.6570604 Eh     change       -0.1172680E-06 Eh
 * total energy  :   -87.6570605 Eh     change       -0.1146262E-06 Eh
 * total energy  :   -87.6570606 Eh     change       -0.1409671E-06 Eh
 * total energy  :   -87.6570608 Eh     change       -0.1520452E-06 Eh
 * total energy  :   -87.6570609 Eh     change       -0.1046389E-06 Eh
 * total energy  :   -87.6570610 Eh     change       -0.6513615E-07 Eh
   *** GEOMETRY OPTIMIZATION CONVERGED AFTER 18 ITERATIONS ***

 final structure:
================
44
 xtb: 6.7.1 (edcfbbe)
O           -2.44564920281881        0.49166417399603       -2.54069234375744
C           -2.70945804322052       -0.21167155795170       -1.57219071768396
O           -3.96435722587162       -0.70435745467005       -1.49092901086297
C           -4.36067271580739       -1.44858450663106       -0.43295060786036
C           -5.65938510189511       -1.95339391186849       -0.44038140039492
C           -6.10461577928002       -2.69642521929290        0.63163169926856
C           -5.26930519457922       -2.94139113154574        1.71881314408535
C           -3.98668635056236       -2.44455791600252        1.73198179867576
C           -3.51164582685538       -1.69242953944763        0.65208437298628
C           -2.15975767383746       -1.16664223941895        0.60936901860209
O           -1.42237087680870       -1.39368131106337        1.67965879806735
C           -1.76107226314986       -0.51009375632805       -0.52814188571124
C           -0.36235117245456        0.00273460604753       -0.81385469860155
C            0.72630737366154       -0.98317396765155       -0.50834062694128
C            0.65495544008956       -2.32622520693749       -0.30603650092729
C            1.91769411814665       -2.94150908825335       -0.15313266256301
C            2.93230069089071       -2.04744402308455       -0.26320947043323
Br           4.77054037823005       -2.40443037542700       -0.13273506251841
S            2.37404465388104       -0.43585707497047       -0.55527193215976
C           -0.10026942330163        1.35558804146738       -0.17502259676789
C           -0.33608932408282        2.53006090586826       -0.84643593599078
O           -0.90353407815059        2.63675690036414       -2.03679525837604
C            0.08397852128036        3.76948736071401       -0.22616526659434
C           -0.04275736870213        5.00987857515961       -0.86103731455233
C            0.39584602081790        6.15403371622051       -0.23644616309597
C            0.96646907363603        6.08530465562689        1.03242754571755
C            1.09588097159611        4.87488631748274        1.67852093606633
C            0.65408140982966        3.71184963279565        1.05089003090131
O            0.77403072442684        2.54498977142468        1.72322061035686
C            0.40493015863877        1.36713459294150        1.17179513758014
O            0.51558131020572        0.36836065601306        1.87249855046083
H           -6.28981709835517       -1.74799907824851       -1.29036857083815
H           -7.10983834708766       -3.08887509520739        0.62716292697942
H           -5.63092275058030       -3.52251824811770        2.55279804758129
H           -3.32181091330329       -2.62248265522410        2.56202716635344
H           -0.57855806136548       -0.86370459543735        1.70191663315583
H           -0.32630241871560        0.15720766368381       -1.90370460933849
H           -0.26487244812490       -2.88047302336640       -0.26331373524451
H            2.06170448356125       -3.99041331256832        0.02969673293548
H           -1.37264737869057        1.81519111066230       -2.33708359194410
H           -0.48495595091823        5.03809375035121       -1.84401035229503
H            0.29857941774948        7.10872723111398       -0.72950340952678
H            1.30938251062323        6.98676264008744        1.51650731042336
H            1.53131437645552        4.79943479469270        2.66177715798228

          :  Hamiltonian                  GFN2-xTB          :
         :: gradient norm              0.000040482815 Eh/a0 ::
         :: HOMO-LUMO gap              2.528150814306 eV    ::
         :: SCC energy               -88.787076273328 Eh    ::
         :: -> dispersion             -0.063519928859 Eh    ::
         :: repulsion energy           1.130015319809 Eh    ::

    * Orbital Energies and Occupations

         #    Occupation            Energy/Eh            Energy/eV
      -------------------------------------------------------------
         1        2.0000           -0.8415104             -22.8987
       ...           ...                  ...                  ...
        65        2.0000           -0.4531376             -12.3305
        66        2.0000           -0.4470978             -12.1661
        67        2.0000           -0.4454143             -12.1203
        68        2.0000           -0.4383865             -11.9291
        69        2.0000           -0.4310805             -11.7303
        70        2.0000           -0.4283356             -11.6556
        71        2.0000           -0.4254113             -11.5760
        72        2.0000           -0.4243698             -11.5477
        73        2.0000           -0.4164188             -11.3313
        74        2.0000           -0.4153951             -11.3035
        75        2.0000           -0.4101557             -11.1609
        76        2.0000           -0.4035815             -10.9820
        77        2.0000           -0.3882670             -10.5653 (HOMO)
        78                         -0.2953592              -8.0371 (LUMO)
        79                         -0.2947845              -8.0215
        80                         -0.2618421              -7.1251
        81                         -0.2576827              -7.0119
        82                         -0.2555808              -6.9547
        83                         -0.2378093              -6.4711
        84                         -0.2361968              -6.4272
        85                         -0.2279267              -6.2022
        86                         -0.2037246              -5.5436
        87                         -0.1850512              -5.0355
        88                         -0.1806969              -4.9170
       ...                                ...                  ...
       147                          0.6691899              18.2096
      -------------------------------------------------------------
                  HL-Gap            0.0929078 Eh            2.5282 eV

     #   Z          covCN         q      C6AA      α(0)
     1   8 O        0.857    -0.455    22.810     6.403
     2   6 C        2.732     0.334    21.328     7.561
     3   8 O        1.710    -0.214    17.548     5.656
     4   6 C        2.883     0.140    24.946     8.188
     5   6 C        2.915    -0.046    29.131     8.851
     6   6 C        2.921    -0.022    28.543     8.761
     7   6 C        2.917    -0.031    28.786     8.798
     8   6 C        2.921    -0.023    28.568     8.765
     9   6 C        2.982    -0.024    28.593     8.771
    10   6 C        2.837     0.170    24.333     8.084
    11   8 O        1.656    -0.363    20.155     6.061
    12   6 C        2.956    -0.101    30.536     9.064
    13   6 C        3.892    -0.004    20.594     6.451
    14   6 C        2.989     0.016    27.639     8.624
    15   6 C        3.117    -0.053    29.145     8.843
    16   6 C        3.139    -0.052    29.035     8.818
    17   6 C        2.938     0.084    26.139     8.385
    18  35 Br       1.133    -0.134   188.760    22.152
    19  16 S        2.473    -0.009   141.436    20.016
    20   6 C        2.957    -0.097    30.438     9.049
    21   6 C        2.839     0.168    24.383     8.092
    22   8 O        1.657    -0.362    20.125     6.056
    23   6 C        2.981    -0.022    28.557     8.766
    24   6 C        2.921    -0.022    28.556     8.763
    25   6 C        2.917    -0.031    28.777     8.797
    26   6 C        2.921    -0.021    28.531     8.759
    27   6 C        2.915    -0.045    29.118     8.849
    28   6 C        2.882     0.141    24.917     8.183
    29   8 O        1.710    -0.214    17.548     5.656
    30   6 C        2.727     0.339    21.241     7.545
    31   8 O        0.858    -0.449    22.683     6.386
    32   1 H        0.926     0.068     2.110     2.271
    33   1 H        0.926     0.056     2.244     2.343
    34   1 H        0.926     0.054     2.273     2.357
    35   1 H        0.926     0.074     2.038     2.232
    36   1 H        0.800     0.361     0.564     1.180
    37   1 H        0.923     0.074     2.037     2.232
    38   1 H        0.926     0.047     2.362     2.403
    39   1 H        0.926     0.057     2.230     2.335
    40   1 H        0.801     0.356     0.574     1.190
    41   1 H        0.926     0.074     2.041     2.234
    42   1 H        0.926     0.054     2.270     2.356
    43   1 H        0.926     0.057     2.239     2.340
    44   1 H        0.926     0.069     2.101     2.267

molecular dipole:
                 x           y           z       tot (Debye)
 q only:       -1.591       0.826       0.440
   full:       -2.047       0.716       0.425       5.617

 projected vibrational frequencies (cm⁻¹)
eigval :       -0.00    -0.00    -0.00     0.00     0.00     0.00
eigval :       21.41    25.97    31.28    41.31    56.39    72.58
eigval :       85.16   111.24   120.20   125.11   141.31   147.03
eigval :      165.89   172.53   177.66   205.42   259.10   262.16
eigval :      265.79   276.95   281.86   307.90   309.46   323.90
eigval :      373.33   388.56   406.59   413.25   418.93   432.64
eigval :      446.79   455.09   485.33   497.52   502.52   521.80
eigval :      531.19   534.60   544.24   596.37   613.46   613.58
eigval :      623.30   638.87   651.74   661.85   683.87   686.68
eigval :      708.93   713.30   718.42   734.43   758.30   779.44
eigval :      785.99   787.69   794.88   797.50   809.82   838.17
eigval :      860.09   870.90   882.51   882.98   903.56   916.03
eigval :      918.89   919.43   929.45   929.60   958.52  1054.87
eigval :     1074.46  1075.65  1077.51  1088.78  1109.92  1121.66
eigval :     1143.39  1167.48  1169.04  1180.78  1181.86  1196.76
eigval :     1198.51  1220.71  1232.85  1237.51  1245.09  1248.15
eigval :     1259.65  1269.19  1309.43  1318.99  1328.19  1347.63
eigval :     1348.71  1366.76  1367.20  1432.32  1433.03  1456.28
eigval :     1459.70  1471.93  1541.77  1555.53  1565.81  1580.41
eigval :     1590.92  1593.02  1594.65  1652.54  1661.88  2869.30
eigval :     2885.67  2965.79  3093.62  3093.67  3102.49  3102.55
eigval :     3115.61  3115.96  3116.62  3116.92  3135.01  3146.60

   temp. (K)  partition function   enthalpy   heat capacity  entropy
                                   cal/mol     cal/K/mol   cal/K/mol   J/K/mol
 298.15  VIB  0.980E+10            14088.660     89.336     85.897
         ROT  0.323E+08              888.752      2.981     37.343
         INT  0.317E+18            14977.412     92.317    123.241
         TR   0.107E+29             1481.254      4.968     44.479
         TOT                       16458.6660    97.2855   167.7198   701.7396

       T/K    H(0)-H(T)+PV         H(T)/Eh          T*S/Eh         G(T)/Eh
   ------------------------------------------------------------------------
    298.15    0.262286E-01    0.325349E+00    0.796891E-01    0.245660E+00
   ------------------------------------------------------------------------

         :::::::::::::::::::::::::::::::::::::::::::::::::::::
         ::                  THERMODYNAMIC                  ::
         :::::::::::::::::::::::::::::::::::::::::::::::::::::
         :: total free energy         -87.411400694707 Eh   ::
         ::.................................................::
         :: total energy              -87.657060953515 Eh   ::
         :: zero point energy           0.299120787454 Eh   ::
         :: G(RRHO) w/o ZPVE           -0.053460528646 Eh   ::
         :: G(RRHO) contrib.            0.245660258808 Eh   ::
         :::::::::::::::::::::::::::::::::::::::::::::::::::::

           -------------------------------------------------
          | TOTAL ENERGY              -87.657060953515 Eh   |
          | TOTAL ENTHALPY            -87.331711612203 Eh   |
          | TOTAL FREE ENERGY         -87.411400694707 Eh   |
          | GRADIENT NORM               0.000040287661 Eh/α |
          | HOMO-LUMO GAP               2.528151037946 eV   |
           -------------------------------------------------

 * finished run on 2025/07/20 at 18:45:59.545
