   * xtb version 6.7.1 (edcfbbe) compiled by 'albert@albert-system' on 2024-07-22

   ID    Z sym.   atoms
    1    8 O      1, 3, 11, 22, 29, 31
    2    6 C      2, 4-10, 12-17, 20, 21, 23-28, 30
    3   35 Br     18
    4   16 S      19
    5    1 H      32-44

          program call               : xtb data2507/gas/3-BHH/3-BHH_gas_T1_crest.xyz --gfn 2 --spinpol --tblite --uhf 2 --ohess vtight --parallel 40 --molden --ceasefiles --namespace data2507/gas/3-BHH/3-BHH_gas_T1_finalOpt
 * total energy  :   -87.5587568 Eh     change        0.2241408E-07 Eh
 * total energy  :   -87.5587775 Eh     change       -0.2062043E-04 Eh
 * total energy  :   -87.5587881 Eh     change       -0.1062141E-04 Eh
 * total energy  :   -87.5587896 Eh     change       -0.1556987E-05 Eh
 * total energy  :   -87.5587906 Eh     change       -0.9064327E-06 Eh
 * total energy  :   -87.5587906 Eh     change        0.1282928E-08 Eh
 * total energy  :   -87.5587912 Eh     change       -0.6257981E-06 Eh
 * total energy  :   -87.5587919 Eh     change       -0.7079051E-06 Eh
 * total energy  :   -87.5587917 Eh     change        0.2290367E-06 Eh
 * total energy  :   -87.5587921 Eh     change       -0.4681483E-06 Eh
 * total energy  :   -87.5587922 Eh     change       -0.1052365E-06 Eh
 * total energy  :   -87.5587923 Eh     change       -0.8767580E-07 Eh
   *** GEOMETRY OPTIMIZATION CONVERGED AFTER 12 ITERATIONS ***

 final structure:
================
44
 xtb: 6.7.1 (edcfbbe)
O           -2.49064005495817        0.38021864387323       -2.52852679379630
C           -2.67370923100975       -0.33219791900732       -1.53886856379653
O           -3.89679021225463       -0.89721101035446       -1.42174649410273
C           -4.19356157065941       -1.73742096649087       -0.39132370808944
C           -5.45009623812218       -2.31116071586930       -0.36899993011938
C           -5.80029828998740       -3.16329209961412        0.67346049301610
C           -4.89413805018422       -3.43077066291960        1.69400524842483
C           -3.64221601632052       -2.86296088027278        1.68237063323791
C           -3.26074630795971       -1.99632126071541        0.63415494642129
C           -1.98465973061349       -1.36808349908163        0.59512209774938
O           -1.16822865885368       -1.59640460902263        1.61176876325842
C           -1.66464419935765       -0.59496255631465       -0.55509786033666
C           -0.30060221613557       -0.03694311103194       -0.89249606940915
C            0.86086094797203       -0.92607479739170       -0.58688675513790
C            0.89217744909494       -2.28316551780661       -0.45381563863103
C            2.19071002288512       -2.79743632060016       -0.26874054403117
C            3.13100476439055       -1.81331896907170       -0.28311716551884
Br           4.98153478170208       -2.02688998809980       -0.08185463161578
S            2.45204979661240       -0.24013966955240       -0.52153716519155
C           -0.25978130236187        1.30466692779788       -0.19394545897127
C           -0.60351753782882        2.51153029357415       -0.87214899400896
O           -1.11251882395603        2.56118527432343       -2.09734972551979
C           -0.30918439560946        3.73939227905072       -0.22629749058531
C           -0.52523793226970        4.99294708960811       -0.84273082092155
C           -0.25231222522752        6.15670599757917       -0.16406575184770
C            0.24568025446181        6.11755172531677        1.13381549225420
C            0.46723221971186        4.89566475754423        1.76353080722467
C            0.19849038906182        3.72042528437641        1.09103888650721
O            0.41867140101915        2.54749035310764        1.74970269888174
C            0.21753090052180        1.35039349746870        1.15039002610291
O            0.49987621005441        0.35178791684479        1.81953566356023
H           -6.14004708258082       -2.08536016048502       -1.16570339854129
H           -6.77915055629012       -3.61567271921698        0.68339076611400
H           -5.17519564285131       -4.09088822280956        2.50016832506843
H           -2.92525370866225       -3.05973245246880        2.46252844824395
H           -0.40608505523529       -0.95059118096747        1.66378336261441
H           -0.28916579420114        0.14547009410748       -1.97750267950651
H            0.01732857244990       -2.90690321387474       -0.48321762080132
H            2.41784823836630       -3.83835850298112       -0.13053086205424
H           -1.56565016262303        1.71972216074289       -2.37982966212178
H           -0.90784394909854        5.00186096116740       -1.85008071825518
H           -0.42283039292870        7.10848514594534       -0.64340631221008
H            0.46617570323331        7.03290737192365        1.65952074993615
H            0.84771021590348        4.84480087456881        2.77073734480545

 projected vibrational frequencies (cm⁻¹)
eigval :       -0.00    -0.00    -0.00    -0.00     0.00     0.00
eigval :       17.48    22.84    28.65    39.16    47.29    69.87
eigval :       80.55   109.35   114.91   121.81   132.39   149.51
eigval :      154.21   160.11   173.45   206.85   245.81   247.75
eigval :      253.64   264.74   275.54   291.14   294.96   325.92
eigval :      344.96   356.58   377.42   394.75   400.99   406.95
eigval :      424.06   435.60   451.29   487.30   489.85   496.95
eigval :      506.98   518.86   528.89   547.37   559.28   594.56
eigval :      612.00   616.08   632.94   649.44   653.36   657.22
eigval :      677.85   683.23   689.31   709.91   731.35   755.72
eigval :      762.16   768.51   781.50   782.04   799.81   813.86
eigval :      839.88   850.30   853.11   856.08   884.15   889.36
eigval :      892.28   904.03   912.25   914.72   916.11   935.13
eigval :     1038.75  1063.05  1066.09  1070.56  1078.07  1095.84
eigval :     1105.63  1133.66  1161.61  1166.56  1171.04  1175.35
eigval :     1186.56  1200.78  1207.64  1215.39  1227.06  1230.26
eigval :     1234.55  1251.53  1278.96  1289.31  1303.97  1334.04
eigval :     1340.38  1341.50  1369.52  1380.94  1388.58  1399.24
eigval :     1421.24  1435.56  1450.37  1455.06  1512.41  1521.65
eigval :     1534.90  1539.38  1542.27  1555.69  1573.34  2767.45
eigval :     2841.54  2876.26  3092.72  3093.21  3104.33  3104.46
eigval :     3116.88  3117.32  3119.12  3119.98  3135.56  3147.26

   temp. (K)  partition function   enthalpy   heat capacity  entropy
                                   cal/mol     cal/K/mol   cal/K/mol   J/K/mol
 298.15  VIB  0.398E+11            14649.079     91.986     89.549
         ROT  0.321E+08              888.752      2.981     37.332
         INT  0.128E+19            15537.831     94.967    126.881
         TR   0.107E+29             1481.254      4.968     44.479
         TOT                       17019.0852    99.9347   171.3601   716.9707

       T/K    H(0)-H(T)+PV         H(T)/Eh          T*S/Eh         G(T)/Eh
   ------------------------------------------------------------------------
    298.15    0.271216E-01    0.319316E+00    0.814187E-01    0.237898E+00
   ------------------------------------------------------------------------

         :::::::::::::::::::::::::::::::::::::::::::::::::::::
         ::                  THERMODYNAMIC                  ::
         :::::::::::::::::::::::::::::::::::::::::::::::::::::
         :: total free energy         -87.320894628984 Eh   ::
         ::.................................................::
         :: total energy              -87.558792319061 Eh   ::
         :: zero point energy           0.292194770757 Eh   ::
         :: G(RRHO) w/o ZPVE           -0.054297080681 Eh   ::
         :: G(RRHO) contrib.            0.237897690076 Eh   ::
         :::::::::::::::::::::::::::::::::::::::::::::::::::::

           -------------------------------------------------
          | TOTAL ENERGY              -87.558792319061 Eh   |
          | TOTAL ENTHALPY            -87.239475909734 Eh   |
          | TOTAL FREE ENERGY         -87.320894628984 Eh   |
          | GRADIENT NORM               0.000139353855 Eh/α |
           -------------------------------------------------

 * finished run on 2025/07/20 at 18:48:47.409
