   * xtb version 6.7.1 (edcfbbe) compiled by 'albert@albert-system' on 2024-07-22

   ID    Z sym.   atoms
    1    8 O      1, 3, 11, 22, 29, 31
    2    6 C      2, 4-10, 12-17, 20, 21, 23-28, 30
    3   35 Br     18
    4   16 S      19
    5    1 H      32-44

          program call               : xtb data2507/gas/3-BHH/3-BHH.xyz --gfn 2 --ohess vtight --parallel 40 --molden --ceasefiles --namespace data2507/gas/3-BHH/3-BHH_gas_S0_preOpt
          :  Hamiltonian                  GFN2-xTB          :
 * total energy  :   -87.6245037 Eh     change       -0.1064919E-08 Eh
 * total energy  :   -87.6425002 Eh     change       -0.1799647E-01 Eh
 * total energy  :   -87.6502095 Eh     change       -0.7709266E-02 Eh
 * total energy  :   -87.6522772 Eh     change       -0.2067767E-02 Eh
 * total energy  :   -87.6535125 Eh     change       -0.1235261E-02 Eh
 * total energy  :   -87.6541394 Eh     change       -0.6268633E-03 Eh
 * total energy  :   -87.6547110 Eh     change       -0.5716714E-03 Eh
 * total energy  :   -87.6552059 Eh     change       -0.4948827E-03 Eh
 * total energy  :   -87.6554516 Eh     change       -0.2457385E-03 Eh
 * total energy  :   -87.6557035 Eh     change       -0.2518076E-03 Eh
 * total energy  :   -87.6570591 Eh     change       -0.7715609E-06 Eh
 * total energy  :   -87.6570597 Eh     change       -0.6040442E-06 Eh
 * total energy  :   -87.6570601 Eh     change       -0.3719007E-06 Eh
 * total energy  :   -87.6570602 Eh     change       -0.1211840E-06 Eh
 * total energy  :   -87.6570604 Eh     change       -0.1876349E-06 Eh
 * total energy  :   -87.6570604 Eh     change       -0.8437311E-08 Eh
 * total energy  :   -87.6570606 Eh     change       -0.1531115E-06 Eh
 * total energy  :   -87.6570607 Eh     change       -0.1399166E-06 Eh
 * total energy  :   -87.6570608 Eh     change       -0.9009375E-07 Eh
   *** GEOMETRY OPTIMIZATION CONVERGED AFTER 42 ITERATIONS ***

 final structure:
================
44
 xtb: 6.7.1 (edcfbbe)
O           -0.59299937971808        1.13980109687004       -2.69200401743911
C           -1.37059413862139        0.99920640062266       -1.75506286465147
O           -2.46772317077286        1.78676692890356       -1.74005848975161
C           -3.35638283394753        1.73547562050139       -0.72124381892996
C           -4.48599380295573        2.54752371037778       -0.79928874201542
C           -5.40125251743556        2.53755621051089        0.23113241622036
C           -5.20251497378087        1.72769342084649        1.34662552159533
C           -4.08848839408557        0.92507091743613        1.42960292085087
C           -3.14935767488273        0.91436612871805        0.39256463916592
C           -1.97259522748958        0.06567275036007        0.42190454068146
O           -1.81078004382814       -0.65265144172623        1.51667717273289
C           -1.15504832829101        0.06238681229175       -0.68063230603876
C            0.04260754243545       -0.84313971825178       -0.89601635218466
C           -0.21320552618372       -2.28507309530444       -0.57023832058041
C           -1.38965147724692       -2.94644083249607       -0.40215134986587
C           -1.23252903899502       -4.33782777287865       -0.21272270857144
C            0.07114672696830       -4.71057131268121       -0.26105021739694
Br           0.75684349346614       -6.44695553034562       -0.06515379957532
S            1.13771784780773       -3.37647978514058       -0.53807164128069
C            1.29643162208169       -0.32203737359166       -0.21543130642596
C            2.18894167523002        0.49147909926445       -0.86921594670751
O            2.02277284895094        1.00268821094795       -2.07804973924502
C            3.43604302883746        0.81149143586877       -0.20612668951876
C            4.44309062430730        1.56493405175887       -0.81920486501134
C            5.62045736395085        1.81601426666502       -0.15409435309800
C            5.81635722934393        1.32434253803219        1.13441762713448
C            4.83549937191690        0.58517898960801        1.75960483358007
C            3.64073465347763        0.32635658090872        1.09080493369791
O            2.69109308962599       -0.38189048401910        1.74242960944057
C            1.52139485629298       -0.71236740069711        1.15065718377290
O            0.70863383100622       -1.32459410333640        1.83288311929331
H           -4.61750301437948        3.16931312330056       -1.67003403729664
H           -6.27743170424882        3.16468251544061        0.17164642924430
H           -5.92545617298327        1.73102230563811        2.14747356757489
H           -3.91450112871384        0.28874771687580        2.28255168244597
H           -0.90970721243814       -1.07295458119944        1.58772908049446
H            0.23791748369092       -0.81332568237279       -1.97950777019939
H           -2.35371172053029       -2.47144509863207       -0.40934605961909
H           -2.04471797225151       -5.02175047511808       -0.04857230331316
H            1.09019807109585        0.95217846261368       -2.41437688609306
H            4.27020026032189        1.93240987457765       -1.81803054896808
H            6.39610408124417        2.39511942268856       -0.63056414456470
H            6.74297036412698        1.52404163003123        1.65023530535870
H            4.96498738760101        0.19798546613325        2.75730869505945

          :  Hamiltonian                  GFN2-xTB          :
         :: gradient norm              0.000070492376 Eh/a0 ::
         :: HOMO-LUMO gap              2.530992570116 eV    ::
         :: SCC energy               -88.787047595926 Eh    ::
         :: -> dispersion             -0.063528681700 Eh    ::
         :: repulsion energy           1.129986802896 Eh    ::

    * Orbital Energies and Occupations

         #    Occupation            Energy/Eh            Energy/eV
      -------------------------------------------------------------
         1        2.0000           -0.8415676             -22.9002
       ...           ...                  ...                  ...
        65        2.0000           -0.4531093             -12.3297
        66        2.0000           -0.4470445             -12.1647
        67        2.0000           -0.4453845             -12.1195
        68        2.0000           -0.4383861             -11.9291
        69        2.0000           -0.4310543             -11.7296
        70        2.0000           -0.4283554             -11.6561
        71        2.0000           -0.4253735             -11.5750
        72        2.0000           -0.4243359             -11.5468
        73        2.0000           -0.4163758             -11.3302
        74        2.0000           -0.4154267             -11.3043
        75        2.0000           -0.4102146             -11.1625
        76        2.0000           -0.4035561             -10.9813
        77        2.0000           -0.3883385             -10.5672 (HOMO)
        78                         -0.2953262              -8.0362 (LUMO)
        79                         -0.2947353              -8.0202
        80                         -0.2619086              -7.1269
        81                         -0.2576485              -7.0110
        82                         -0.2555585              -6.9541
        83                         -0.2377576              -6.4697
        84                         -0.2361788              -6.4268
        85                         -0.2279895              -6.2039
        86                         -0.2037918              -5.5455
        87                         -0.1851005              -5.0368
        88                         -0.1806050              -4.9145
       ...                                ...                  ...
       147                          0.6691753              18.2092
      -------------------------------------------------------------
                  HL-Gap            0.0930123 Eh            2.5310 eV

     #   Z          covCN         q      C6AA      α(0)
     1   8 O        0.857    -0.455    22.811     6.403
     2   6 C        2.732     0.334    21.328     7.561
     3   8 O        1.710    -0.214    17.548     5.656
     4   6 C        2.883     0.140    24.946     8.188
     5   6 C        2.915    -0.046    29.131     8.851
     6   6 C        2.921    -0.022    28.543     8.761
     7   6 C        2.917    -0.032    28.786     8.798
     8   6 C        2.921    -0.023    28.568     8.765
     9   6 C        2.982    -0.024    28.593     8.771
    10   6 C        2.837     0.170    24.332     8.084
    11   8 O        1.656    -0.364    20.156     6.061
    12   6 C        2.956    -0.101    30.537     9.064
    13   6 C        3.892    -0.004    20.593     6.451
    14   6 C        2.989     0.016    27.639     8.624
    15   6 C        3.117    -0.053    29.143     8.842
    16   6 C        3.139    -0.052    29.034     8.818
    17   6 C        2.938     0.084    26.138     8.385
    18  35 Br       1.133    -0.134   188.759    22.152
    19  16 S        2.473    -0.010   141.448    20.017
    20   6 C        2.957    -0.097    30.439     9.049
    21   6 C        2.839     0.168    24.382     8.092
    22   8 O        1.657    -0.362    20.124     6.056
    23   6 C        2.981    -0.022    28.557     8.766
    24   6 C        2.921    -0.022    28.556     8.763
    25   6 C        2.917    -0.031    28.777     8.797
    26   6 C        2.921    -0.021    28.531     8.759
    27   6 C        2.915    -0.045    29.117     8.849
    28   6 C        2.882     0.141    24.917     8.183
    29   8 O        1.710    -0.214    17.548     5.656
    30   6 C        2.727     0.339    21.241     7.545
    31   8 O        0.858    -0.449    22.684     6.386
    32   1 H        0.926     0.068     2.110     2.271
    33   1 H        0.926     0.056     2.245     2.343
    34   1 H        0.926     0.054     2.273     2.358
    35   1 H        0.926     0.074     2.038     2.233
    36   1 H        0.800     0.361     0.564     1.180
    37   1 H        0.923     0.074     2.038     2.233
    38   1 H        0.926     0.047     2.362     2.403
    39   1 H        0.926     0.057     2.229     2.335
    40   1 H        0.801     0.356     0.574     1.190
    41   1 H        0.926     0.074     2.041     2.234
    42   1 H        0.926     0.054     2.270     2.356
    43   1 H        0.926     0.057     2.239     2.340
    44   1 H        0.926     0.069     2.101     2.267

molecular dipole:
                 x           y           z       tot (Debye)
 q only:       -0.180       1.774       0.385
   full:       -0.518       2.099       0.349       5.566

 projected vibrational frequencies (cm⁻¹)
eigval :       -0.00    -0.00     0.00     0.00     0.00     0.00
eigval :       21.41    25.99    31.35    41.42    56.52    72.60
eigval :       85.25   111.31   120.07   125.15   141.23   146.54
eigval :      165.82   172.50   177.54   205.35   258.96   262.26
eigval :      265.72   276.83   281.77   308.23   309.13   323.68
eigval :      373.34   388.61   406.53   413.18   418.87   432.64
eigval :      446.85   455.12   485.38   497.54   502.49   521.80
eigval :      531.27   534.69   544.25   596.41   613.38   613.54
eigval :      623.44   638.91   651.81   661.90   683.89   686.66
eigval :      708.90   713.32   718.11   734.54   758.46   780.01
eigval :      786.09   787.63   795.49   797.94   810.66   838.24
eigval :      860.08   870.86   882.53   882.98   903.43   915.84
eigval :      918.88   919.41   929.45   929.58   958.75  1054.91
eigval :     1074.46  1075.65  1077.51  1088.83  1109.88  1121.76
eigval :     1143.18  1167.55  1169.04  1180.82  1182.04  1196.89
eigval :     1198.58  1220.78  1232.96  1237.61  1245.23  1248.28
eigval :     1260.13  1269.08  1309.49  1319.16  1328.30  1347.61
eigval :     1348.67  1367.03  1367.45  1432.33  1433.01  1456.26
eigval :     1459.68  1471.96  1541.74  1555.58  1565.97  1580.41
eigval :     1590.85  1593.01  1594.65  1652.58  1661.89  2869.04
eigval :     2883.64  2963.71  3093.58  3093.60  3102.44  3102.49
eigval :     3115.59  3115.91  3116.60  3116.86  3135.10  3146.54

   temp. (K)  partition function   enthalpy   heat capacity  entropy
                                   cal/mol     cal/K/mol   cal/K/mol   J/K/mol
 298.15  VIB  0.975E+10            14088.808     89.338     85.903
         ROT  0.323E+08              888.752      2.981     37.343
         INT  0.315E+18            14977.560     92.319    123.246
         TR   0.107E+29             1481.254      4.968     44.479
         TOT                       16458.8144    97.2875   167.7254   701.7632

       T/K    H(0)-H(T)+PV         H(T)/Eh          T*S/Eh         G(T)/Eh
   ------------------------------------------------------------------------
    298.15    0.262288E-01    0.325348E+00    0.796918E-01    0.245656E+00
   ------------------------------------------------------------------------

         :::::::::::::::::::::::::::::::::::::::::::::::::::::
         ::                  THERMODYNAMIC                  ::
         :::::::::::::::::::::::::::::::::::::::::::::::::::::
         :: total free energy         -87.411404422530 Eh   ::
         ::.................................................::
         :: total energy              -87.657060793030 Eh   ::
         :: zero point energy           0.299119338887 Eh   ::
         :: G(RRHO) w/o ZPVE           -0.053462968387 Eh   ::
         :: G(RRHO) contrib.            0.245656370500 Eh   ::
         :::::::::::::::::::::::::::::::::::::::::::::::::::::

           -------------------------------------------------
          | TOTAL ENERGY              -87.657060793030 Eh   |
          | TOTAL ENTHALPY            -87.331712663863 Eh   |
          | TOTAL FREE ENERGY         -87.411404422530 Eh   |
          | GRADIENT NORM               0.000070479097 Eh/α |
          | HOMO-LUMO GAP               2.530993275499 eV   |
           -------------------------------------------------

 * finished run on 2025/07/20 at 18:43:56.137
