   * xtb version 6.7.1 (edcfbbe) compiled by 'albert@albert-system' on 2024-07-22

   ID    Z sym.   atoms
    1    6 C      1-5, 7-13, 15-18, 20-26, 28-32, 34-40, 42-46, 48-54, 56-60,
                  62, 63
    2    7 N      6, 14, 19, 27, 33, 41, 47, 55, 61
    3    1 H      64-96

          program call               : xtb data2507/toluene/TCbTrz/TCbTrz.xyz --gfn 2 --gbsa toluene --ohess vtight --parallel 40 --molden --ceasefiles --namespace data2507/toluene/TCbTrz/TCbTrz_toluene_S0_preOpt
      * Solvation model:               GBSA
        Solvent                        toluene
        Solvent mass                       9.2140E+01 g/mol
          :  Hamiltonian                  GFN2-xTB          :
 * total energy  :  -158.9411068 Eh     change       -0.2951793E-08 Eh
 * total energy  :  -158.9620726 Eh     change       -0.2096580E-01 Eh
 * total energy  :  -158.9680542 Eh     change       -0.5981617E-02 Eh
 * total energy  :  -158.9699472 Eh     change       -0.1892940E-02 Eh
 * total energy  :  -158.9711798 Eh     change       -0.1232651E-02 Eh
 * total energy  :  -158.9715569 Eh     change       -0.3770858E-03 Eh
 * total energy  :  -158.9717346 Eh     change       -0.1776910E-03 Eh
 * total energy  :  -158.9718917 Eh     change       -0.1571480E-03 Eh
 * total energy  :  -158.9720450 Eh     change       -0.1532157E-03 Eh
 * total energy  :  -158.9722161 Eh     change       -0.1711149E-03 Eh
 * total energy  :  -158.9737949 Eh     change       -0.1504217E-05 Eh
 * total energy  :  -158.9737955 Eh     change       -0.6402836E-06 Eh
 * total energy  :  -158.9737958 Eh     change       -0.2975931E-06 Eh
 * total energy  :  -158.9737960 Eh     change       -0.1882394E-06 Eh
 * total energy  :  -158.9737962 Eh     change       -0.2108014E-06 Eh
 * total energy  :  -158.9737965 Eh     change       -0.2848140E-06 Eh
 * total energy  :  -158.9737968 Eh     change       -0.2283520E-06 Eh
 * total energy  :  -158.9737969 Eh     change       -0.1523698E-06 Eh
 * total energy  :  -158.9737969 Eh     change       -0.6852417E-08 Eh
   *** GEOMETRY OPTIMIZATION CONVERGED AFTER 44 ITERATIONS ***

 final structure:
================
96
 xtb: 6.7.1 (edcfbbe)
C            7.18967737515607       -4.64649746472038       -0.16076811218926
C            7.85843885053540       -3.43280242344362       -0.21905379592461
C            7.14878989066746       -2.24814220355917       -0.18180393475275
C            5.75718275146080       -2.26978555314071       -0.08727135259976
C            5.00325072668052       -1.01908411518642       -0.04939338832386
N            5.68067661229364        0.12528888443203       -0.01868100306568
C            4.95663313954705        1.24054884799107        0.01402726541988
C            5.65997541415394        2.52076802894622        0.04641507639857
C            7.05165479602863        2.55454824509135        0.13533077462770
C            7.71434859480056        3.76628819307854        0.16527831804483
C            6.99820086215222        4.95251677977418        0.10532273734146
C            5.61438382236716        4.92577226871071        0.01645980864092
C            4.94534018537448        3.71750377749933       -0.01199992185729
N            3.62277322227570        1.25862924537150        0.01725125421234
C            3.03050289692995        0.07062670458022       -0.01304139267970
C            1.56531129517487        0.03878798984416       -0.00894366544115
C            0.84144799858329        1.19890807054019        0.24067600717340
C           -0.54540265148503        1.17794884180644        0.24626323715272
N           -1.24803154916567        2.36262901858897        0.50328591498538
C           -2.28858687033681        2.53175710930222        1.40347134957185
C           -2.72522220344571        1.68250241414264        2.40856070277784
C           -3.78863695899130        2.09884699120881        3.18705130499510
C           -4.39363429132768        3.33849720789164        2.98980810926948
C           -3.92692780407049        4.21212395157183        2.02820693533219
C           -2.85912514556547        3.81221218807881        1.23480005823280
C           -2.10802151745113        4.45521913087258        0.19317093416141
N           -2.24895026539015        5.66139952892382       -0.33637320536318
C           -1.40522585277956        5.98492786378970       -1.29973177752089
C           -0.40623190155159        5.14218109719628       -1.78499168068273
C           -0.24733825268064        3.87552967452412       -1.24563641854094
C           -1.11493978659122        3.52933843036864       -0.22212895111705
C           -1.23378946976523       -0.02300490651157       -0.01005917067650
N           -2.63234388353590       -0.05177118745425       -0.02186562478921
C           -3.45447755988690        0.74802678117719       -0.80252023911148
C           -3.11080447520138        1.66063960509107       -1.78811135958206
C           -4.13486206324353        2.31991159810183       -2.44159390746684
C           -5.47127447083384        2.06465745423081       -2.14232215842824
C           -5.82024685011439        1.12122956801112       -1.19659805309395
C           -4.80553985077275        0.45140993935228       -0.52506515940776
C           -4.79587086782607       -0.58864678968753        0.46511194129968
N           -5.80695912521399       -1.20883544433950        1.05418015586718
C           -5.49398334870456       -2.12442398320680        1.95337349236251
C           -4.19013240332836       -2.43989937659037        2.33056677638135
C           -3.12193549076533       -1.79403093298289        1.73013643311770
C           -3.43441193354352       -0.86818682225738        0.74856483673732
C           -0.49301878087620       -1.19400807935490       -0.25469471297411
N           -1.14368368471664       -2.41011312205685       -0.50396988180701
C           -0.94854326813379       -3.57860109398861        0.22118963470192
C           -0.05470934392430       -3.83672072876793        1.25031763344635
C           -0.08569435380883       -5.09191555300096        1.82952126652286
C           -0.98672877307276       -6.06818352560490        1.40779773353025
C           -1.89071486657893       -5.81135581027729        0.39664241113535
C           -1.87452891965544       -4.55714919135599       -0.20165495843870
C           -2.65785989541327       -3.95075023779353       -1.24142345919249
N           -3.64748672210988       -4.45610321636519       -1.96285142718239
C           -4.16921121848447       -3.66527518850230       -2.88315689155446
C           -3.71526926659662       -2.37638342247618       -3.15815413833129
C           -2.67764695369077       -1.83595367386985       -2.41655576770258
C           -2.16504014592554       -2.62947726305998       -1.40336032687076
C            0.89351167215374       -1.15334653745129       -0.25224605124206
N            3.67140623012375       -1.09147770931537       -0.04717075335052
C            5.09030709849778       -3.49392252924376       -0.02953671245142
C            5.80629856794736       -4.67474115649391       -0.06561077194044
H            7.74683379378066       -5.57101833093707       -0.18951734079980
H            8.93542051355269       -3.41210934037393       -0.29380400386537
H            7.65148411788624       -1.29479588020222       -0.22808153498533
H            7.59170972354469        1.62194136737171        0.18266893316677
H            8.79160307477598        3.78790051220631        0.23543896941676
H            7.51852380031907        5.89842510666067        0.12786803679949
H            5.05705793474764        5.84955290832239       -0.03001972213527
H            3.86934731285943        3.67940799496953       -0.08189726736306
H            1.36943601365099        2.11312202698096        0.45912827384163
H           -2.24438700092533        0.73364276193036        2.59115042526821
H           -4.15346520834021        1.44848485956117        3.96807063144320
H           -5.22638783375091        3.62246734133305        3.61470372811196
H           -4.36385230005166        5.18791202297395        1.88774036647186
H           -1.53646423440967        6.97547625688927       -1.71409022391742
H            0.23854846810460        5.47758294102712       -2.58210127082265
H            0.51046319715803        3.19740486463878       -1.61236015718148
H           -2.08012370510138        1.84617207091823       -2.05160132857246
H           -3.88918364872918        3.04482879122581       -3.20325448994396
H           -6.24129389687405        2.60374646755459       -2.67243911982865
H           -6.85084696140728        0.89264228479000       -0.97645010894923
H           -6.33496501383038       -2.62621155048379        2.41238125119997
H           -4.01392672720460       -3.18196883803916        3.09301089793144
H           -2.10492183361249       -2.00467354099059        2.02754145148310
H            0.63880552605781       -3.08384916164241        1.59467543997799
H            0.60337725746302       -5.31751036854294        2.62966113589456
H           -0.97703263508083       -7.03557562600437        1.88628573208570
H           -2.60137125540041       -6.55264080705568        0.06747443680786
H           -4.98534238887714       -4.09275219470523       -3.44970530191941
H           -4.16801350282227       -1.80382829822339       -3.95207364250352
H           -2.28910690996876       -0.85199005773749       -2.63274451677085
H            1.46105541027402       -2.04410362603948       -0.46802819443942
H            4.01406278167628       -3.49849452774254        0.04580297632797
H            5.28589116415726       -5.61977361866247       -0.01987244002159

          :  Hamiltonian                  GFN2-xTB          :
         :: gradient norm              0.000056766372 Eh/a0 ::
         :: HOMO-LUMO gap              1.843882433235 eV    ::
         :: SCC energy              -161.808703170384 Eh    ::
         :: -> dispersion             -0.159398569720 Eh    ::
         :: -> Gsolv                  -0.068260904217 Eh    ::
         :: repulsion energy           2.834906259907 Eh    ::

    * Orbital Energies and Occupations

         #    Occupation            Energy/Eh            Energy/eV
      -------------------------------------------------------------
         1        2.0000           -0.7120589             -19.3761
       ...           ...                  ...                  ...
       135        2.0000           -0.4197736             -11.4226
       136        2.0000           -0.4193461             -11.4110
       137        2.0000           -0.4036077             -10.9827
       138        2.0000           -0.4005972             -10.9008
       139        2.0000           -0.3987799             -10.8514
       140        2.0000           -0.3931059             -10.6970
       141        2.0000           -0.3912411             -10.6462
       142        2.0000           -0.3896656             -10.6033
       143        2.0000           -0.3872236             -10.5369
       144        2.0000           -0.3867002             -10.5226
       145        2.0000           -0.3789563             -10.3119
       146        2.0000           -0.3780866             -10.2883
       147        2.0000           -0.3772980             -10.2668 (HOMO)
       148                         -0.3095366              -8.4229 (LUMO)
       149                         -0.3028911              -8.2421
       150                         -0.2742145              -7.4618
       151                         -0.2738767              -7.4526
       152                         -0.2721718              -7.4062
       153                         -0.2675571              -7.2806
       154                         -0.2655468              -7.2259
       155                         -0.2496887              -6.7944
       156                         -0.2449609              -6.6657
       157                         -0.2425757              -6.6008
       158                         -0.2393428              -6.5129
       ...                                ...                  ...
       285                          0.7105248              19.3344
      -------------------------------------------------------------
                  HL-Gap            0.0677614 Eh            1.8439 eV

     #   Z          covCN         q      C6AA      α(0)
     1   6 C        2.920    -0.020    28.510     8.756
     2   6 C        2.918    -0.026    28.650     8.777
     3   6 C        2.923    -0.025    28.621     8.773
     4   6 C        2.983    -0.010    28.250     8.719
     5   6 C        2.979     0.214    23.477     7.948
     6   7 N        1.844    -0.312    28.940     7.973
     7   6 C        2.979     0.214    23.477     7.948
     8   6 C        2.983    -0.010    28.249     8.718
     9   6 C        2.923    -0.025    28.621     8.773
    10   6 C        2.918    -0.026    28.648     8.777
    11   6 C        2.920    -0.020    28.511     8.756
    12   6 C        2.918    -0.026    28.662     8.779
    13   6 C        2.923    -0.025    28.632     8.775
    14   7 N        1.844    -0.319    29.129     7.999
    15   6 C        2.985     0.215    23.469     7.947
    16   6 C        2.982    -0.006    28.174     8.707
    17   6 C        2.926    -0.046    29.148     8.854
    18   6 C        2.910     0.055    26.770     8.484
    19   7 N        2.798    -0.050    22.207     6.999
    20   6 C        3.078     0.048    26.849     8.495
    21   6 C        2.910    -0.051    29.256     8.869
    22   6 C        2.924    -0.030    28.740     8.792
    23   6 C        2.921    -0.036    28.906     8.817
    24   6 C        2.912    -0.027    28.670     8.780
    25   6 C        3.063    -0.023    28.519     8.757
    26   6 C        3.071     0.074    26.267     8.403
    27   7 N        1.832    -0.245    27.233     7.733
    28   6 C        2.922     0.050    26.870     8.501
    29   6 C        2.922    -0.046    29.143     8.853
    30   6 C        2.914    -0.037    28.924     8.819
    31   6 C        3.071     0.038    27.076     8.532
    32   6 C        2.912     0.045    26.981     8.518
    33   7 N        2.797    -0.051    22.214     7.000
    34   6 C        3.078     0.050    26.807     8.488
    35   6 C        2.910    -0.051    29.255     8.869
    36   6 C        2.924    -0.029    28.731     8.790
    37   6 C        2.921    -0.036    28.892     8.815
    38   6 C        2.913    -0.026    28.662     8.779
    39   6 C        3.063    -0.024    28.532     8.759
    40   6 C        3.073     0.074    26.265     8.403
    41   7 N        1.833    -0.247    27.294     7.742
    42   6 C        2.922     0.052    26.836     8.495
    43   6 C        2.922    -0.046    29.149     8.854
    44   6 C        2.915    -0.037    28.918     8.818
    45   6 C        3.070     0.043    26.956     8.513
    46   6 C        2.910     0.054    26.781     8.486
    47   7 N        2.798    -0.053    22.259     7.007
    48   6 C        3.077     0.046    26.879     8.500
    49   6 C        2.909    -0.051    29.270     8.871
    50   6 C        2.924    -0.029    28.729     8.790
    51   6 C        2.920    -0.037    28.910     8.817
    52   6 C        2.912    -0.026    28.661     8.779
    53   6 C        3.062    -0.023    28.524     8.758
    54   6 C        3.072     0.073    26.300     8.409
    55   7 N        1.832    -0.249    27.331     7.747
    56   6 C        2.922     0.051    26.847     8.497
    57   6 C        2.922    -0.047    29.163     8.856
    58   6 C        2.915    -0.037    28.931     8.820
    59   6 C        3.069     0.040    27.035     8.526
    60   6 C        2.926    -0.046    29.143     8.853
    61   7 N        1.844    -0.318    29.103     7.995
    62   6 C        2.923    -0.025    28.632     8.775
    63   6 C        2.918    -0.026    28.660     8.779
    64   1 H        0.926     0.053     2.281     2.362
    65   1 H        0.926     0.051     2.309     2.376
    66   1 H        0.926     0.053     2.282     2.362
    67   1 H        0.926     0.054     2.276     2.359
    68   1 H        0.926     0.051     2.306     2.375
    69   1 H        0.926     0.053     2.281     2.362
    70   1 H        0.926     0.049     2.328     2.386
    71   1 H        0.926     0.048     2.339     2.392
    72   1 H        0.926     0.071     2.076     2.253
    73   1 H        0.926     0.024     2.670     2.555
    74   1 H        0.926     0.041     2.440     2.443
    75   1 H        0.926     0.046     2.364     2.405
    76   1 H        0.926     0.054     2.273     2.358
    77   1 H        0.925     0.041     2.434     2.440
    78   1 H        0.926     0.046     2.375     2.410
    79   1 H        0.926     0.033     2.539     2.492
    80   1 H        0.926     0.023     2.687     2.563
    81   1 H        0.926     0.043     2.410     2.428
    82   1 H        0.926     0.048     2.341     2.393
    83   1 H        0.926     0.054     2.272     2.357
    84   1 H        0.925     0.042     2.419     2.432
    85   1 H        0.926     0.046     2.369     2.407
    86   1 H        0.926     0.029     2.601     2.522
    87   1 H        0.926     0.033     2.544     2.494
    88   1 H        0.926     0.046     2.367     2.406
    89   1 H        0.926     0.047     2.360     2.402
    90   1 H        0.926     0.052     2.299     2.371
    91   1 H        0.925     0.040     2.444     2.445
    92   1 H        0.926     0.043     2.404     2.425
    93   1 H        0.926     0.029     2.605     2.524
    94   1 H        0.926     0.073     2.051     2.239
    95   1 H        0.926     0.050     2.321     2.382
    96   1 H        0.926     0.050     2.317     2.380

molecular dipole:
                 x           y           z       tot (Debye)
 q only:        1.969      -0.004       0.233
   full:        2.821       0.038       0.093       7.176

 projected vibrational frequencies (cm⁻¹)
eigval :       -0.00    -0.00    -0.00    -0.00     0.00     0.00
eigval :        8.46    14.29    20.27    23.02    23.28    24.25
eigval :       27.82    40.61    44.08    44.81    48.93    54.07
eigval :       57.18    61.49    69.49    90.68    92.94   104.34
eigval :      107.77   109.50   122.18   124.51   126.58   143.45
eigval :      151.85   152.55   166.04   175.66   182.19   185.92
eigval :      187.56   197.48   221.87   231.90   239.46   241.69
eigval :      261.47   268.10   276.32   277.32   281.65   295.45
eigval :      330.01   345.30   357.31   364.81   366.09   376.28
eigval :      386.31   401.62   402.37   407.72   409.02   414.17
eigval :      423.41   426.36   427.26   437.72   438.69   441.61
eigval :      444.34   480.46   499.07   511.18   511.73   521.45
eigval :      522.00   523.60   536.77   542.54   543.44   549.41
eigval :      550.84   551.38   563.39   585.49   587.09   587.71
eigval :      595.75   595.97   596.36   611.91   623.58   624.03
eigval :      629.87   640.92   648.45   653.29   655.82   674.46
eigval :      681.08   682.29   683.07   684.27   691.68   700.27
eigval :      722.68   724.37   725.14   731.14   748.55   752.92
eigval :      762.66   765.41   775.10   776.16   778.39   778.70
eigval :      782.13   796.37   797.84   799.18   802.96   846.72
eigval :      860.03   865.38   873.92   875.63   878.61   879.03
eigval :      882.85   892.78   899.65   900.74   902.22   904.26
eigval :      906.03   907.48   909.03   910.30   910.49   911.41
eigval :      913.20   917.13   917.61   920.55   922.72   926.41
eigval :      926.66   929.69   930.66   932.36   934.09   934.84
eigval :      958.40   989.13   998.64  1021.02  1023.51  1024.29
eigval :     1047.80  1050.51  1065.59  1066.07  1066.87  1074.76
eigval :     1075.61  1087.89  1090.27  1091.50  1092.17  1103.35
eigval :     1108.88  1112.93  1122.05  1142.10  1143.95  1144.75
eigval :     1147.46  1150.03  1165.86  1169.75  1174.42  1175.05
eigval :     1176.46  1177.62  1178.73  1178.95  1187.43  1193.72
eigval :     1199.89  1205.92  1211.42  1216.17  1225.55  1228.88
eigval :     1232.24  1244.02  1267.70  1268.94  1284.55  1285.12
eigval :     1286.32  1292.72  1294.89  1295.75  1303.01  1313.45
eigval :     1320.26  1328.40  1328.90  1332.97  1333.33  1337.70
eigval :     1342.53  1352.38  1355.00  1356.22  1367.09  1370.99
eigval :     1376.46  1383.27  1390.79  1410.06  1416.10  1420.59
eigval :     1427.10  1428.84  1429.69  1436.60  1462.02  1464.32
eigval :     1467.74  1469.00  1472.84  1473.47  1482.41  1483.11
eigval :     1483.53  1503.09  1514.13  1543.78  1555.02  1556.55
eigval :     1558.46  1563.12  1579.89  1580.34  1580.83  1581.77
eigval :     1582.36  1586.56  1587.23  1589.18  1591.42  1592.55
eigval :     1604.22  1606.61  1607.82  3062.26  3063.86  3064.26
eigval :     3064.32  3073.64  3078.62  3079.40  3080.17  3080.36
eigval :     3080.43  3081.52  3084.71  3085.81  3087.38  3088.11
eigval :     3090.46  3094.08  3094.50  3096.15  3096.81  3097.12
eigval :     3098.28  3102.11  3102.60  3103.47  3104.82  3105.96
eigval :     3107.87  3108.05  3108.45  3109.60  3116.78  3117.94

   temp. (K)  partition function   enthalpy   heat capacity  entropy
                                   cal/mol     cal/K/mol   cal/K/mol   J/K/mol
 298.15  VIB  0.175E+23            28367.898    178.283    176.736
         ROT  0.136E+09              888.752      2.981     40.195
         INT  0.238E+31            29256.650    181.264    216.931
         TR   0.222E+29             1481.254      4.968     45.925
         TOT                       30737.9040   186.2324   262.8563  1099.7909

       T/K    H(0)-H(T)+PV         H(T)/Eh          T*S/Eh         G(T)/Eh
   ------------------------------------------------------------------------
    298.15    0.489840E-01    0.765409E+00    0.124892E+00    0.640518E+00
   ------------------------------------------------------------------------

         :::::::::::::::::::::::::::::::::::::::::::::::::::::
         ::                  THERMODYNAMIC                  ::
         :::::::::::::::::::::::::::::::::::::::::::::::::::::
         :: total free energy        -158.333279131796 Eh   ::
         ::.................................................::
         :: total energy             -158.973796907977 Eh   ::
         :: zero point energy           0.716425331786 Eh   ::
         :: G(RRHO) w/o ZPVE           -0.075907555605 Eh   ::
         :: G(RRHO) contrib.            0.640517776181 Eh   ::
         :::::::::::::::::::::::::::::::::::::::::::::::::::::

           -------------------------------------------------
          | TOTAL ENERGY             -158.973796907977 Eh   |
          | TOTAL ENTHALPY           -158.208387608216 Eh   |
          | TOTAL FREE ENERGY        -158.333279131796 Eh   |
          | GRADIENT NORM               0.000056745144 Eh/α |
          | HOMO-LUMO GAP               1.843882197390 eV   |
           -------------------------------------------------

 * finished run on 2025/09/10 at 13:43:25.998
