   * xtb version 6.7.1 (edcfbbe) compiled by 'albert@albert-system' on 2024-07-22

   ID    Z sym.   atoms
    1    6 C      1-5, 7-13, 15-18, 20-26, 28-32, 34-40, 42-46, 48-54, 56-60,
                  62, 63
    2    7 N      6, 14, 19, 27, 33, 41, 47, 55, 61
    3    1 H      64-96

          program call               : xtb data2507/toluene/TCbTrz/TCbTrz_toluene_S0_finalOpt.xtbopt.xyz --gfn 2 --uhf 2 --gbsa toluene --ohess vtight --parallel 40 --molden --ceasefiles --namespace data2507/toluene/TCbTrz/TCbTrz_toluene_T1_preOpt
      * Solvation model:               GBSA
        Solvent                        toluene
        Solvent mass                       9.2140E+01 g/mol
          :  Hamiltonian                  GFN2-xTB          :
 * total energy  :  -158.8909036 Eh     change       -0.6027756E-07 Eh
 * total energy  :  -158.8937040 Eh     change       -0.2800404E-02 Eh
 * total energy  :  -158.8954620 Eh     change       -0.1757950E-02 Eh
 * total energy  :  -158.8956314 Eh     change       -0.1693595E-03 Eh
 * total energy  :  -158.8957923 Eh     change       -0.1609580E-03 Eh
 * total energy  :  -158.8958253 Eh     change       -0.3295385E-04 Eh
 * total energy  :  -158.8958474 Eh     change       -0.2215701E-04 Eh
 * total energy  :  -158.8958622 Eh     change       -0.1475312E-04 Eh
 * total energy  :  -158.8958845 Eh     change       -0.2227840E-04 Eh
 * total energy  :  -158.8959082 Eh     change       -0.2372052E-04 Eh
 * total energy  :  -158.8963780 Eh     change       -0.6627935E-06 Eh
 * total energy  :  -158.8963785 Eh     change       -0.5531964E-06 Eh
 * total energy  :  -158.8963790 Eh     change       -0.4363369E-06 Eh
 * total energy  :  -158.8963793 Eh     change       -0.3648506E-06 Eh
 * total energy  :  -158.8963797 Eh     change       -0.3712945E-06 Eh
 * total energy  :  -158.8963802 Eh     change       -0.4600962E-06 Eh
 * total energy  :  -158.8963807 Eh     change       -0.5775976E-06 Eh
 * total energy  :  -158.8963807 Eh     change        0.5568390E-07 Eh
 * total energy  :  -158.8963807 Eh     change       -0.5602101E-07 Eh
   *** GEOMETRY OPTIMIZATION CONVERGED AFTER 69 ITERATIONS ***

 final structure:
================
96
 xtb: 6.7.1 (edcfbbe)
C            7.29501251953794       -4.69809394012300       -0.37743246368439
C            7.96606270925227       -3.48464849310018       -0.37392507411867
C            7.25910151240336       -2.30087540581511       -0.28935124583827
C            5.86652736549454       -2.32012696535058       -0.20876151833542
C            5.11722723131864       -1.07065532809840       -0.11023287689243
N            5.81216499201395        0.07709018264917        0.00522919014241
C            5.09005082402302        1.20901883534094        0.11386412571988
C            5.81168215756595        2.47448471738518        0.21506210688843
C            7.20437283813286        2.48491341798174        0.29702211504729
C            7.88602382365551        3.68317953485985        0.38455592852612
C            7.18954227417230        4.88217139921412        0.38988657456073
C            5.80449223862177        4.87926466198911        0.30841353199358
C            5.11711544015006        3.68504369209406        0.22222121376718
N            3.78207436860007        1.22548997105728        0.13055737720488
C            3.12153181820875        0.04688893758759       -0.00218444468458
C            1.70612118910780        0.02853629107823       -0.00352264195236
C            0.96251601314295        1.20020301821301        0.25473839356766
C           -0.41246696876187        1.17939865830935        0.26654066218486
N           -1.12180193265218        2.36274996170489        0.55005693479312
C           -2.13970233516265        2.50657569499498        1.47449229916730
C           -2.53724777194948        1.64095778284198        2.48354274020233
C           -3.59009400793655        2.03067434300543        3.28925219929444
C           -4.22611210686598        3.25838880732347        3.11346972518544
C           -3.80275424317602        4.14744481534503        2.14483623523754
C           -2.74603272259710        3.77441036582199        1.32402755703961
C           -2.03070618577034        4.43608814282627        0.27071356894052
N           -2.19483991264578        5.63679991407803       -0.25666857701443
C           -1.38332873033879        5.98844330599800       -1.23487346539846
C           -0.38290490326147        5.16215711625580       -1.74697789204881
C           -0.18496620138291        3.90176683362605       -1.20794624073261
C           -1.02419238278589        3.52989764518552       -0.16801818147427
C           -1.12112741789730       -0.01383573928025       -0.00309616480557
N           -2.52522598936770       -0.03202297216879       -0.01939987481971
C           -3.33589006511386        0.76586964902801       -0.80634055674808
C           -2.98054254618844        1.67331279914757       -1.79475705947369
C           -3.99507825282742        2.34382539890509       -2.45006346325845
C           -5.33569914933888        2.11092154598824       -2.14646716460082
C           -5.69863564672337        1.17967930586519       -1.19376487959907
C           -4.69334905147735        0.49563379070683       -0.52142712140877
C           -4.69451698448701       -0.53517931544811        0.47476686503276
N           -5.70086186829262       -1.14968500621286        1.07332240288832
C           -5.40416880136147       -2.06067685626775        1.97906743900633
C           -4.10062121731609       -2.38284151980354        2.35712725785614
C           -3.03028698151335       -1.75451234637267        1.74474039107132
C           -3.33129782186701       -0.82669648843528        0.75926330045042
C           -0.37792527673457       -1.18689490554355       -0.26401403081936
N           -1.05400674286845       -2.39383079211820       -0.53571033057334
C           -0.91573403052024       -3.56394776239271        0.19016163459400
C           -0.05263391943272       -3.85180111401059        1.23916502824519
C           -0.13398361015834       -5.10660509254102        1.81278614565135
C           -1.05283588670665       -6.05579492152873        1.36593267217641
C           -1.92329282711695       -5.77249601444300        0.33222379292530
C           -1.85822259254978       -4.51688399872375       -0.26001867239845
C           -2.59017062257410       -3.88604329642543       -1.32025822792412
N           -3.57478331651546       -4.34461544826901       -2.07468572122045
C           -4.04916568193080       -3.54107161900108       -3.00680070851792
C           -3.55235003642303       -2.26167815172055       -3.25375471751424
C           -2.51666559252926       -1.76249419535137       -2.48243333842743
C           -2.04690584722912       -2.57893582958857       -1.46529511194877
C            0.99598494641692       -1.16605775746433       -0.25959073259631
N            3.81033703998774       -1.11562305630992       -0.13414392148274
C            5.19750113476188       -3.54500774218571       -0.21377786663701
C            5.91018654000744       -4.72453672618289       -0.29699876899129
H            7.84986056063677       -5.62224996023298       -0.44171219279414
H            9.04412329620959       -3.46293849732435       -0.43675565698968
H            7.76592090572938       -1.34798656724152       -0.28598476882819
H            7.73131646830308        1.54305841103381        0.29252321796681
H            8.96422611538752        3.68399569230766        0.44853714002772
H            7.72451635524034        5.81776120653092        0.45674864730239
H            5.26095608415249        5.81270304524679        0.31196116279366
H            4.03978463450685        3.66698123329924        0.15655666674890
H            1.49415833301207        2.10993349149553        0.48285083413743
H           -2.03003272836312        0.70261780791260        2.64625624707856
H           -3.92229902329504        1.36999539042903        4.07602134560013
H           -5.05056766603139        3.52078802684685        3.75840321589463
H           -4.26771637111184        5.11238970256236        2.02010786073326
H           -1.53607607132147        6.98230308301861       -1.63220424482165
H            0.23996347390177        5.51348602677577       -2.55418721176082
H            0.58903681300191        3.24519024598107       -1.57857254277158
H           -1.94634762268242        1.84191315133198       -2.05559299336127
H           -3.74141271884462        3.06049739248116       -3.21687183573993
H           -6.09809544064698        2.66034218679050       -2.67704179413137
H           -6.73307334498777        0.97378368293853       -0.96877757261487
H           -6.24978819797900       -2.55510521901636        2.43654061428545
H           -3.93065428986786       -3.12271337274469        3.12277925624733
H           -2.01364463424890       -1.98008506490796        2.03136045154223
H            0.65704018257111       -3.11987914752571        1.59524982995892
H            0.52969762073277       -5.35566519991758        2.62730347646464
H           -1.08294718006084       -7.02398426292426        1.84199368416099
H           -2.64356761102763       -6.49524304588465       -0.01703824164561
H           -4.85671927283446       -3.94444137409426       -3.60177087017196
H           -3.96934287425441       -1.66941862282831       -4.05244948346054
H           -2.09015213383926       -0.79045641332546       -2.67896147478997
H            1.55337439795266       -2.06061855980140       -0.48567318687154
H            4.12000408327081       -3.54979752919142       -0.14812043361579
H            5.38633632702312       -5.66913232906716       -0.29868869258653

          :  Hamiltonian                  GFN2-xTB          :
         :: gradient norm              0.000083342483 Eh/a0 ::
         :: HOMO-LUMO gap              0.310546284327 eV    ::
         :: SCC energy              -161.727834538533 Eh    ::
         :: -> dispersion             -0.158774214473 Eh    ::
         :: -> Gsolv                  -0.067946657001 Eh    ::
         :: repulsion energy           2.831453823066 Eh    ::

    * Orbital Energies and Occupations

         #    Occupation            Energy/Eh            Energy/eV
      -------------------------------------------------------------
         1        2.0000           -0.7004656             -19.0606
       ...           ...                  ...                  ...
       136        2.0000           -0.4109923             -11.1837
       137        2.0000           -0.4049688             -11.0198
       138        2.0000           -0.4026557             -10.9568
       139        2.0000           -0.4005217             -10.8987
       140        1.9993           -0.3886436             -10.5755
       141        1.9988           -0.3880762             -10.5601
       142        1.9875           -0.3858786             -10.5003
       143        1.9800           -0.3854232             -10.4879
       144        1.9230           -0.3840852             -10.4515
       145        1.8438           -0.3833282             -10.4309
       146        1.6733           -0.3824130             -10.4060
       147        1.5944           -0.3820891             -10.3972
       148        0.9975           -0.2998805              -8.1602 (HOMO)
       149        0.0025           -0.2884686              -7.8496 (LUMO)
       150                         -0.2759990              -7.5103
       151                         -0.2755459              -7.4980
       152                         -0.2744978              -7.4695
       153                         -0.2566183              -6.9829
       154                         -0.2536963              -6.9034
       155                         -0.2509872              -6.8297
       156                         -0.2451417              -6.6706
       157                         -0.2448146              -6.6617
       158                         -0.2333504              -6.3498
       159                         -0.2329988              -6.3402
       ...                                ...                  ...
       285                          0.7099474              19.3187
      -------------------------------------------------------------
                  HL-Gap            0.0114119 Eh            0.3105 eV

     #   Z          covCN         q      C6AA      α(0)
     1   6 C        2.920    -0.026    28.641     8.776
     2   6 C        2.918    -0.028    28.700     8.785
     3   6 C        2.923    -0.028    28.691     8.784
     4   6 C        2.983    -0.007    28.199     8.711
     5   6 C        2.932     0.207    23.624     7.971
     6   7 N        1.844    -0.321    29.170     8.004
     7   6 C        2.932     0.207    23.631     7.972
     8   6 C        2.983    -0.007    28.199     8.711
     9   6 C        2.924    -0.028    28.693     8.784
    10   6 C        2.918    -0.028    28.699     8.785
    11   6 C        2.920    -0.026    28.645     8.777
    12   6 C        2.918    -0.028    28.711     8.787
    13   6 C        2.923    -0.029    28.717     8.788
    14   7 N        1.845    -0.288    28.327     7.888
    15   6 C        2.936     0.165    24.447     8.109
    16   6 C        2.976    -0.018    28.463     8.751
    17   6 C        2.923    -0.058    29.451     8.900
    18   6 C        2.907     0.047    26.937     8.510
    19   7 N        2.799    -0.039    21.998     6.966
    20   6 C        3.085     0.049    26.808     8.488
    21   6 C        2.910    -0.047    29.178     8.857
    22   6 C        2.924    -0.029    28.720     8.789
    23   6 C        2.921    -0.035    28.864     8.810
    24   6 C        2.912    -0.025    28.631     8.774
    25   6 C        3.062    -0.023    28.512     8.756
    26   6 C        3.068     0.073    26.293     8.408
    27   7 N        1.833    -0.216    26.535     7.634
    28   6 C        2.916     0.050    26.877     8.501
    29   6 C        2.921    -0.043    29.069     8.842
    30   6 C        2.914    -0.033    28.831     8.805
    31   6 C        3.075     0.042    26.975     8.516
    32   6 C        2.910     0.013    27.720     8.633
    33   7 N        2.796    -0.041    22.038     6.972
    34   6 C        3.086     0.048    26.835     8.492
    35   6 C        2.910    -0.049    29.209     8.862
    36   6 C        2.924    -0.030    28.737     8.791
    37   6 C        2.920    -0.035    28.882     8.813
    38   6 C        2.912    -0.026    28.644     8.776
    39   6 C        3.062    -0.025    28.559     8.764
    40   6 C        3.069     0.072    26.332     8.414
    41   7 N        1.833    -0.222    26.681     7.654
    42   6 C        2.916     0.051    26.864     8.499
    43   6 C        2.921    -0.045    29.110     8.848
    44   6 C        2.915    -0.035    28.867     8.810
    45   6 C        3.075     0.043    26.961     8.513
    46   6 C        2.906     0.047    26.947     8.512
    47   7 N        2.799    -0.046    22.118     6.985
    48   6 C        3.084     0.048    26.820     8.490
    49   6 C        2.909    -0.048    29.195     8.860
    50   6 C        2.924    -0.029    28.713     8.787
    51   6 C        2.920    -0.036    28.886     8.814
    52   6 C        2.911    -0.026    28.648     8.777
    53   6 C        3.062    -0.024    28.535     8.760
    54   6 C        3.068     0.071    26.344     8.416
    55   7 N        1.833    -0.224    26.732     7.662
    56   6 C        2.917     0.050    26.879     8.502
    57   6 C        2.921    -0.045    29.115     8.849
    58   6 C        2.915    -0.036    28.886     8.813
    59   6 C        3.074     0.043    26.964     8.514
    60   6 C        2.923    -0.057    29.421     8.895
    61   7 N        1.846    -0.287    28.287     7.882
    62   6 C        2.923    -0.028    28.712     8.787
    63   6 C        2.918    -0.028    28.706     8.786
    64   1 H        0.926     0.047     2.358     2.401
    65   1 H        0.926     0.045     2.382     2.414
    66   1 H        0.926     0.046     2.367     2.406
    67   1 H        0.926     0.046     2.365     2.405
    68   1 H        0.926     0.045     2.382     2.414
    69   1 H        0.926     0.047     2.359     2.402
    70   1 H        0.926     0.045     2.389     2.417
    71   1 H        0.926     0.043     2.414     2.430
    72   1 H        0.926     0.052     2.300     2.372
    73   1 H        0.926     0.031     2.570     2.507
    74   1 H        0.926     0.043     2.405     2.425
    75   1 H        0.926     0.049     2.337     2.391
    76   1 H        0.926     0.055     2.257     2.349
    77   1 H        0.926     0.050     2.321     2.382
    78   1 H        0.926     0.052     2.290     2.367
    79   1 H        0.926     0.043     2.406     2.426
    80   1 H        0.926     0.027     2.631     2.536
    81   1 H        0.926     0.043     2.407     2.426
    82   1 H        0.926     0.048     2.343     2.394
    83   1 H        0.926     0.053     2.280     2.361
    84   1 H        0.926     0.048     2.339     2.392
    85   1 H        0.926     0.051     2.312     2.378
    86   1 H        0.926     0.037     2.493     2.469
    87   1 H        0.926     0.037     2.495     2.470
    88   1 H        0.926     0.046     2.367     2.406
    89   1 H        0.926     0.047     2.355     2.400
    90   1 H        0.926     0.052     2.297     2.370
    91   1 H        0.926     0.047     2.357     2.401
    92   1 H        0.926     0.049     2.331     2.387
    93   1 H        0.926     0.038     2.478     2.461
    94   1 H        0.926     0.054     2.276     2.359
    95   1 H        0.926     0.044     2.400     2.423
    96   1 H        0.926     0.045     2.381     2.413

molecular dipole:
                 x           y           z       tot (Debye)
 q only:       -0.479       0.174       0.144
   full:        0.368       0.207       0.013       1.073

 projected vibrational frequencies (cm⁻¹)
eigval :       -0.00    -0.00    -0.00    -0.00     0.00     0.00
eigval :       11.87    13.78    18.84    22.16    22.83    25.43
eigval :       27.89    40.57    42.27    43.82    50.71    53.95
eigval :       55.26    60.35    69.18    93.00   102.04   105.45
eigval :      107.52   109.80   120.73   122.37   124.78   141.91
eigval :      149.71   151.01   165.63   173.56   181.26   181.42
eigval :      193.14   213.56   215.60   230.90   233.01   248.46
eigval :      252.49   265.20   271.08   271.63   278.59   290.69
eigval :      320.00   345.16   351.62   362.76   368.68   369.44
eigval :      373.06   386.62   397.21   400.59   404.23   412.98
eigval :      415.00   421.62   423.66   425.23   435.91   436.48
eigval :      439.08   460.72   483.91   493.47   500.66   519.08
eigval :      520.05   521.04   535.11   536.06   537.26   539.72
eigval :      542.44   547.01   554.28   559.57   568.51   573.54
eigval :      580.56   582.36   584.06   587.54   588.73   609.43
eigval :      609.86   621.89   630.11   639.00   644.47   659.01
eigval :      664.18   667.18   679.40   680.38   681.63   683.20
eigval :      692.48   703.55   719.43   720.07   720.99   742.97
eigval :      759.21   762.64   765.38   766.05   771.01   775.87
eigval :      777.63   778.26   779.29   781.38   786.15   807.15
eigval :      824.27   839.47   858.67   872.08   873.92   878.29
eigval :      879.28   880.71   892.57   893.07   893.36   894.55
eigval :      894.90   897.98   903.62   904.86   907.31   907.99
eigval :      908.27   909.58   909.97   910.54   913.69   918.76
eigval :      925.95   926.00   927.15   929.10   929.65   930.46
eigval :      932.12   937.14   975.97   984.65   991.68  1016.41
eigval :     1019.33  1019.92  1035.02  1059.72  1063.00  1063.31
eigval :     1065.48  1073.57  1075.32  1085.27  1085.95  1087.19
eigval :     1090.63  1108.38  1110.71  1114.49  1136.01  1138.51
eigval :     1138.94  1140.47  1142.70  1160.53  1168.50  1173.01
eigval :     1173.33  1174.92  1175.94  1176.71  1177.23  1183.42
eigval :     1184.54  1186.55  1203.17  1210.34  1218.37  1226.75
eigval :     1230.54  1232.12  1265.19  1266.46  1272.10  1277.81
eigval :     1284.89  1285.66  1286.59  1289.56  1291.09  1292.30
eigval :     1301.36  1317.69  1326.11  1328.18  1328.43  1328.83
eigval :     1330.78  1333.72  1336.66  1345.45  1347.61  1349.18
eigval :     1371.53  1376.82  1387.79  1392.89  1408.51  1412.06
eigval :     1416.63  1422.60  1425.35  1431.44  1435.95  1437.29
eigval :     1458.35  1460.87  1462.57  1463.57  1471.98  1474.44
eigval :     1480.75  1481.16  1481.64  1494.98  1540.64  1541.07
eigval :     1545.11  1548.29  1572.06  1573.50  1574.19  1574.37
eigval :     1576.33  1579.60  1580.52  1581.50  1585.22  1591.10
eigval :     1591.87  1592.18  1595.77  3067.89  3068.33  3068.44
eigval :     3070.78  3075.76  3076.30  3077.16  3079.10  3079.94
eigval :     3080.00  3081.21  3081.87  3083.96  3088.15  3088.17
eigval :     3089.28  3089.65  3093.43  3095.15  3095.53  3096.02
eigval :     3096.16  3098.50  3099.11  3099.54  3101.58  3104.09
eigval :     3104.70  3106.32  3106.96  3108.02  3110.26  3112.43

   temp. (K)  partition function   enthalpy   heat capacity  entropy
                                   cal/mol     cal/K/mol   cal/K/mol   J/K/mol
 298.15  VIB  0.204E+23            28755.824    181.025    178.438
         ROT  0.136E+09              888.752      2.981     40.203
         INT  0.278E+31            29644.577    184.005    218.641
         TR   0.222E+29             1481.254      4.968     45.925
         TOT                       31125.8306   188.9736   264.5656  1106.9424

       T/K    H(0)-H(T)+PV         H(T)/Eh          T*S/Eh         G(T)/Eh
   ------------------------------------------------------------------------
    298.15    0.496022E-01    0.760558E+00    0.125704E+00    0.634854E+00
   ------------------------------------------------------------------------

         :::::::::::::::::::::::::::::::::::::::::::::::::::::
         ::                  THERMODYNAMIC                  ::
         :::::::::::::::::::::::::::::::::::::::::::::::::::::
         :: total free energy        -158.261526438529 Eh   ::
         ::.................................................::
         :: total energy             -158.896380729177 Eh   ::
         :: zero point energy           0.710955769986 Eh   ::
         :: G(RRHO) w/o ZPVE           -0.076101479338 Eh   ::
         :: G(RRHO) contrib.            0.634854290648 Eh   ::
         :::::::::::::::::::::::::::::::::::::::::::::::::::::

           -------------------------------------------------
          | TOTAL ENERGY             -158.896380729177 Eh   |
          | TOTAL ENTHALPY           -158.135822790759 Eh   |
          | TOTAL FREE ENERGY        -158.261526438529 Eh   |
          | GRADIENT NORM               0.000080069354 Eh/α |
          | HOMO-LUMO GAP               0.310534116229 eV   |
           -------------------------------------------------

 * finished run on 2025/09/10 at 13:50:18.293
