   * xtb version 6.7.1 (edcfbbe) compiled by 'albert@albert-system' on 2024-07-22

   ID    Z sym.   atoms
    1    6 C      1-5, 7-13, 15-18, 20-26, 28-32, 34-40, 42-46, 48-54, 56-60,
                  62, 63
    2    7 N      6, 14, 19, 27, 33, 41, 47, 55, 61
    3    1 H      64-96

          program call               : xtb data2507/toluene/TCbTrz/TCbTrz_toluene_T1_crest.xyz --gfn 2 --uhf 2 --gbsa toluene --ohess vtight --parallel 40 --molden --ceasefiles --namespace data2507/toluene/TCbTrz/TCbTrz_toluene_T1_finalOpt
      * Solvation model:               GBSA
        Solvent                        toluene
        Solvent mass                       9.2140E+01 g/mol
          :  Hamiltonian                  GFN2-xTB          :
 * total energy  :  -158.8958938 Eh     change       -0.1009963E-07 Eh
 * total energy  :  -158.8959938 Eh     change       -0.9996461E-04 Eh
 * total energy  :  -158.8960551 Eh     change       -0.6137167E-04 Eh
 * total energy  :  -158.8960870 Eh     change       -0.3187614E-04 Eh
 * total energy  :  -158.8961172 Eh     change       -0.3017014E-04 Eh
 * total energy  :  -158.8961681 Eh     change       -0.5093330E-04 Eh
 * total energy  :  -158.8962422 Eh     change       -0.7411800E-04 Eh
 * total energy  :  -158.8962746 Eh     change       -0.3238619E-04 Eh
 * total energy  :  -158.8963131 Eh     change       -0.3849998E-04 Eh
 * total energy  :  -158.8963344 Eh     change       -0.2129881E-04 Eh
 * total energy  :  -158.8963904 Eh     change       -0.3819939E-06 Eh
 * total energy  :  -158.8963907 Eh     change       -0.2466168E-06 Eh
 * total energy  :  -158.8963909 Eh     change       -0.1814822E-06 Eh
 * total energy  :  -158.8963910 Eh     change       -0.1349097E-06 Eh
 * total energy  :  -158.8963912 Eh     change       -0.1883729E-06 Eh
 * total energy  :  -158.8963916 Eh     change       -0.3575054E-06 Eh
 * total energy  :  -158.8963920 Eh     change       -0.4767956E-06 Eh
 * total energy  :  -158.8963924 Eh     change       -0.3248171E-06 Eh
 * total energy  :  -158.8963924 Eh     change       -0.2454840E-08 Eh
   *** GEOMETRY OPTIMIZATION CONVERGED AFTER 44 ITERATIONS ***

 final structure:
================
96
 xtb: 6.7.1 (edcfbbe)
C            7.28464901583161       -4.72252691087808       -0.40077462991086
C            7.95801772797918       -3.51041957568636       -0.39014546773759
C            7.25371718308097       -2.32613174581677       -0.29158487388165
C            5.86152449620600       -2.34349775672029       -0.20391315668354
C            5.11504941757157       -1.09304385683159       -0.09604327553573
N            5.81317348026679        0.05290134820174        0.01798012571292
C            5.09409654968366        1.18672653679269        0.12657721405928
C            5.81923163815335        2.44961848008661        0.23548560620761
C            7.21171493945698        2.45536794014777        0.32123477284838
C            7.89661857816679        3.65093158154793        0.41988700662606
C            7.20355159627558        4.85183719990032        0.43286476757254
C            5.81874221891186        4.85359395419821        0.34745982450036
C            5.12813412330731        3.66207524045620        0.25003640123529
N            3.78620015931059        1.20714163985494        0.13809535730101
C            3.12212995385693        0.02969081926243        0.01188921166011
C            1.70681741177357        0.01643605248661        0.00856462048748
C            0.96773850814338        1.20043826369169        0.21956042727965
C           -0.40734918556997        1.18761449655240        0.22233625155770
N           -1.11043861401795        2.38761263742591        0.44474500708776
C           -2.13643088655290        2.58382995878202        1.35022938294597
C           -2.55209491995047        1.77076775655937        2.39503982140456
C           -3.61072240946140        2.20676208031647        3.16885242859393
C           -4.23436294640511        3.42970675666591        2.92748348635637
C           -3.79280345968387        4.26810946479277        1.92248223926329
C           -2.73050127549093        3.84775129738139        1.13239460002799
C           -1.99932900407436        4.45202259842982        0.05576320316012
N           -2.14819678808712        5.62685111510931       -0.53110413631603
C           -1.32430904006061        5.92393284142628       -1.51702306011902
C           -0.32669649277489        5.06529108716014       -1.97899114316830
C           -0.14478688684208        3.83104260482851       -1.37743690758590
C           -0.99639984678044        3.51759557908453       -0.32837819105850
C           -1.12094157915582       -0.01213867494252       -0.00077669183007
N           -2.52511974882132       -0.02434672947650       -0.02261632397111
C           -3.32851315740656        0.73930090516288       -0.84988964290277
C           -2.96454368483189        1.60009905847726       -1.87618739313812
C           -3.97314203112244        2.24329454538079       -2.56705622651261
C           -5.31630666334183        2.02791175644097       -2.26163232528194
C           -5.68769079190809        1.14184742974618       -1.26988595758053
C           -4.68845992526761        0.48651647182616       -0.56092183403818
C           -4.69881517383278       -0.49679442790301        0.48207960363619
N           -5.71065441363586       -1.07918410355307        1.10304792502009
C           -5.42221685252402       -1.94740656834316        2.05239172573573
C           -4.12194833420664       -2.25652344755091        2.45196445162314
C           -3.04594872384078       -1.66163658735332        1.81650184593638
C           -3.33826915771859       -0.77947503359677        0.78741127061048
C           -0.38245925756756       -1.19846246858135       -0.21019675397227
N           -1.06350368215157       -2.41334977662040       -0.42995432308648
C           -0.93620915330354       -3.54816340872090        0.35203476047216
C           -0.07675575729880       -3.79258540603195        1.41495344385154
C           -0.17206617833731       -5.01609394336551        2.05074046612605
C           -1.10057449129271       -5.97671915938616        1.65079864225947
C           -1.96616912104113       -5.73678599722311        0.60214524829952
C           -1.88712298704160       -4.51325672385105       -0.05223612133974
C           -2.61238223068007       -3.92836990401842       -1.14295459146644
N           -3.60053840034919       -4.41431865293484       -1.87534909711228
C           -4.06842321834966       -3.65181585026001       -2.84453018103241
C           -3.56157640745648       -2.38940326481163       -3.15118913277899
C           -2.52108117048496       -1.86315043180695       -2.40475586512834
C           -2.05777064897537       -2.63446360147063       -1.35015094123999
C            0.99153286136128       -1.18359759839289       -0.20434476230289
N            3.80796403060553       -1.13537529201556       -0.11319718308766
C            5.19020732360180       -3.56703016452024       -0.21558091958922
C            5.90022995857721       -4.74712135668044       -0.31285651340285
H            7.83729506873810       -5.64709463237961       -0.47686262048589
H            9.03573089364222       -3.49010516065764       -0.45897059037609
H            7.76234156287635       -1.37424981733924       -0.28325818401598
H            7.73592483818538        1.51203559699323        0.31123934854587
H            8.97462201403693        3.64810266665121        0.48707368075673
H            7.74096669702566        5.78531391055150        0.50907814713761
H            5.27784014441963        5.78851780956267        0.35718473198505
H            4.05090180463175        3.64768033270037        0.18177374356140
H            1.50297334783728        2.11589335955919        0.41367780294555
H           -2.05441849917761        0.83739842135375        2.60806205472433
H           -3.95765380025671        1.58665437773914        3.98182732169783
H           -5.06369004155366        3.72911195187508        3.54963801644628
H           -4.24785875745237        5.22980255112406        1.74653681576499
H           -1.46491945417805        6.89840105012317       -1.96380490540648
H            0.30653162583869        5.37158951678413       -2.79638241037672
H            0.62661603787992        3.15049427679171       -1.70833613369019
H           -1.92831125165684        1.75378526725329       -2.13819055883743
H           -3.71254073367127        2.92426672398687       -3.36351407314746
H           -6.07376197061406        2.55489462934985       -2.82125442879687
H           -6.72402079852476        0.94899670795657       -1.04201901083368
H           -6.27217504119323       -2.41654224023979        2.52815197865267
H           -3.95911589260002       -2.96037894927839        3.25232789425304
H           -2.03158827600274       -1.87744222514289        2.11844765647789
H            0.64078159773991       -3.05166701571528        1.73475180795371
H            0.48837654293166       -5.23110864472067        2.87748596079592
H           -1.14188631103772       -6.91906728847870        2.17536744851291
H           -2.69374004742391       -6.46834954713673        0.28820800495819
H           -4.87909710184141       -4.07634685228014       -3.42021727793159
H           -3.97471117508753       -1.83147076890096       -3.97611473293643
H           -2.08641930848677       -0.90513863766644       -2.64704236695037
H            1.54512506735140       -2.08912035775250       -0.39289763766624
H            4.11305828567954       -3.57038419103349       -0.14455490846206
H            5.37459951532109       -5.69068560346700       -0.32011529092125

          :  Hamiltonian                  GFN2-xTB          :
         :: gradient norm              0.000042547671 Eh/a0 ::
         :: HOMO-LUMO gap              0.312743467769 eV    ::
         :: SCC energy              -161.727838251214 Eh    ::
         :: -> dispersion             -0.158779898865 Eh    ::
         :: -> Gsolv                  -0.067862931874 Eh    ::
         :: repulsion energy           2.831445891307 Eh    ::

    * Orbital Energies and Occupations

         #    Occupation            Energy/Eh            Energy/eV
      -------------------------------------------------------------
         1        2.0000           -0.7004547             -19.0603
       ...           ...                  ...                  ...
       136        2.0000           -0.4110209             -11.1844
       137        2.0000           -0.4049591             -11.0195
       138        2.0000           -0.4026679             -10.9571
       139        2.0000           -0.4005146             -10.8986
       140        1.9993           -0.3886607             -10.5760
       141        1.9987           -0.3880304             -10.5588
       142        1.9886           -0.3859790             -10.5030
       143        1.9799           -0.3854296             -10.4881
       144        1.9230           -0.3840958             -10.4518
       145        1.8457           -0.3833530             -10.4316
       146        1.6714           -0.3824154             -10.4061
       147        1.5934           -0.3820956             -10.3974
       148        0.9976           -0.2999931              -8.1632 (HOMO)
       149        0.0024           -0.2884998              -7.8505 (LUMO)
       150                         -0.2759868              -7.5100
       151                         -0.2755546              -7.4982
       152                         -0.2745182              -7.4700
       153                         -0.2566164              -6.9829
       154                         -0.2536652              -6.9026
       155                         -0.2509827              -6.8296
       156                         -0.2451673              -6.6713
       157                         -0.2447910              -6.6611
       158                         -0.2333772              -6.3505
       159                         -0.2330314              -6.3411
       ...                                ...                  ...
       285                          0.7099571              19.3189
      -------------------------------------------------------------
                  HL-Gap            0.0114933 Eh            0.3127 eV

     #   Z          covCN         q      C6AA      α(0)
     1   6 C        2.920    -0.026    28.641     8.776
     2   6 C        2.918    -0.028    28.700     8.785
     3   6 C        2.923    -0.028    28.691     8.784
     4   6 C        2.983    -0.007    28.199     8.711
     5   6 C        2.932     0.207    23.624     7.971
     6   7 N        1.844    -0.321    29.171     8.004
     7   6 C        2.932     0.207    23.631     7.972
     8   6 C        2.983    -0.007    28.199     8.711
     9   6 C        2.924    -0.028    28.692     8.784
    10   6 C        2.918    -0.028    28.699     8.785
    11   6 C        2.920    -0.026    28.644     8.777
    12   6 C        2.918    -0.028    28.710     8.787
    13   6 C        2.923    -0.029    28.716     8.788
    14   7 N        1.845    -0.288    28.322     7.887
    15   6 C        2.936     0.165    24.448     8.109
    16   6 C        2.975    -0.018    28.464     8.751
    17   6 C        2.923    -0.058    29.452     8.900
    18   6 C        2.907     0.047    26.936     8.510
    19   7 N        2.799    -0.039    21.999     6.966
    20   6 C        3.084     0.049    26.807     8.488
    21   6 C        2.910    -0.047    29.178     8.857
    22   6 C        2.924    -0.029    28.720     8.788
    23   6 C        2.921    -0.035    28.864     8.810
    24   6 C        2.912    -0.025    28.631     8.774
    25   6 C        3.062    -0.023    28.512     8.756
    26   6 C        3.068     0.073    26.294     8.408
    27   7 N        1.833    -0.216    26.535     7.634
    28   6 C        2.916     0.050    26.877     8.501
    29   6 C        2.921    -0.043    29.070     8.842
    30   6 C        2.914    -0.033    28.832     8.805
    31   6 C        3.075     0.042    26.974     8.515
    32   6 C        2.910     0.013    27.721     8.633
    33   7 N        2.796    -0.042    22.041     6.973
    34   6 C        3.086     0.048    26.834     8.491
    35   6 C        2.910    -0.049    29.209     8.862
    36   6 C        2.924    -0.029    28.737     8.791
    37   6 C        2.920    -0.035    28.881     8.813
    38   6 C        2.912    -0.026    28.644     8.776
    39   6 C        3.062    -0.025    28.560     8.764
    40   6 C        3.069     0.072    26.332     8.414
    41   7 N        1.833    -0.222    26.681     7.654
    42   6 C        2.916     0.051    26.864     8.499
    43   6 C        2.921    -0.045    29.110     8.848
    44   6 C        2.915    -0.035    28.867     8.810
    45   6 C        3.075     0.043    26.960     8.513
    46   6 C        2.906     0.047    26.946     8.512
    47   7 N        2.799    -0.046    22.121     6.985
    48   6 C        3.084     0.049    26.820     8.490
    49   6 C        2.909    -0.048    29.195     8.860
    50   6 C        2.924    -0.029    28.713     8.787
    51   6 C        2.920    -0.036    28.886     8.814
    52   6 C        2.911    -0.026    28.648     8.777
    53   6 C        3.062    -0.024    28.534     8.760
    54   6 C        3.068     0.071    26.344     8.416
    55   7 N        1.833    -0.224    26.731     7.662
    56   6 C        2.917     0.050    26.878     8.502
    57   6 C        2.921    -0.045    29.115     8.848
    58   6 C        2.915    -0.036    28.885     8.813
    59   6 C        3.074     0.043    26.962     8.514
    60   6 C        2.923    -0.057    29.421     8.895
    61   7 N        1.845    -0.287    28.285     7.882
    62   6 C        2.923    -0.028    28.711     8.787
    63   6 C        2.918    -0.028    28.706     8.786
    64   1 H        0.926     0.047     2.358     2.401
    65   1 H        0.926     0.045     2.382     2.413
    66   1 H        0.926     0.046     2.366     2.405
    67   1 H        0.926     0.046     2.364     2.404
    68   1 H        0.926     0.045     2.382     2.413
    69   1 H        0.926     0.047     2.359     2.402
    70   1 H        0.926     0.045     2.389     2.417
    71   1 H        0.926     0.043     2.415     2.430
    72   1 H        0.926     0.052     2.299     2.371
    73   1 H        0.926     0.031     2.570     2.507
    74   1 H        0.926     0.043     2.406     2.425
    75   1 H        0.926     0.049     2.337     2.391
    76   1 H        0.926     0.055     2.257     2.349
    77   1 H        0.926     0.050     2.321     2.382
    78   1 H        0.926     0.052     2.292     2.367
    79   1 H        0.926     0.043     2.409     2.427
    80   1 H        0.926     0.027     2.632     2.537
    81   1 H        0.926     0.043     2.407     2.426
    82   1 H        0.926     0.048     2.343     2.394
    83   1 H        0.926     0.053     2.280     2.361
    84   1 H        0.926     0.048     2.339     2.392
    85   1 H        0.926     0.051     2.312     2.378
    86   1 H        0.926     0.037     2.494     2.470
    87   1 H        0.926     0.036     2.496     2.471
    88   1 H        0.926     0.046     2.368     2.406
    89   1 H        0.926     0.047     2.354     2.399
    90   1 H        0.926     0.052     2.296     2.370
    91   1 H        0.926     0.047     2.356     2.400
    92   1 H        0.926     0.049     2.330     2.387
    93   1 H        0.926     0.038     2.477     2.461
    94   1 H        0.926     0.054     2.276     2.359
    95   1 H        0.926     0.044     2.401     2.423
    96   1 H        0.926     0.045     2.382     2.413

molecular dipole:
                 x           y           z       tot (Debye)
 q only:       -0.474       0.181       0.131
   full:        0.374       0.203       0.004       1.081

 projected vibrational frequencies (cm⁻¹)
eigval :       -0.00    -0.00    -0.00    -0.00     0.00     0.00
eigval :       12.96    14.71    18.70    21.65    22.92    23.75
eigval :       29.34    40.21    41.23    43.95    51.66    55.17
eigval :       56.62    60.46    68.80    94.24   101.24   106.18
eigval :      109.20   111.63   120.15   122.13   124.75   141.00
eigval :      148.22   152.00   165.38   173.78   181.41   182.99
eigval :      192.80   214.14   215.98   231.05   232.82   248.49
eigval :      251.80   265.14   271.06   271.38   278.95   290.58
eigval :      320.30   345.53   351.83   363.10   371.47   372.21
eigval :      373.39   386.92   396.50   400.77   404.44   413.16
eigval :      414.77   421.93   424.26   425.71   435.71   436.38
eigval :      439.13   460.43   484.03   493.35   500.87   519.29
eigval :      520.25   520.97   535.31   536.24   537.13   540.02
eigval :      542.57   546.92   554.66   559.31   568.38   573.34
eigval :      580.92   582.46   584.40   587.47   588.10   609.31
eigval :      610.61   622.00   630.03   639.39   644.42   659.81
eigval :      663.86   667.72   679.37   680.37   681.62   683.42
eigval :      692.67   703.71   719.48   720.21   721.12   743.12
eigval :      759.29   762.72   765.06   766.19   774.21   775.57
eigval :      776.03   777.72   779.92   781.80   788.31   807.21
eigval :      823.06   839.95   857.49   871.60   873.40   876.12
eigval :      876.74   882.56   892.75   893.51   894.52   895.27
eigval :      895.64   898.09   903.45   905.12   905.52   907.63
eigval :      909.87   911.60   911.78   912.65   917.97   918.99
eigval :      925.47   927.51   927.78   929.14   929.46   930.66
eigval :      931.00   937.44   976.39   984.58   991.50  1016.29
eigval :     1019.42  1019.94  1035.08  1060.07  1063.00  1063.35
eigval :     1066.06  1073.49  1074.97  1085.02  1086.66  1087.23
eigval :     1090.87  1108.35  1110.51  1114.52  1135.58  1138.76
eigval :     1139.14  1140.19  1142.39  1160.41  1168.36  1173.22
eigval :     1174.07  1175.61  1175.93  1176.87  1177.49  1183.76
eigval :     1185.12  1186.08  1202.56  1210.54  1218.46  1226.85
eigval :     1230.72  1232.28  1265.13  1266.23  1272.04  1278.07
eigval :     1285.09  1286.11  1286.70  1289.44  1291.18  1291.96
eigval :     1301.39  1317.77  1326.26  1328.22  1328.44  1328.90
eigval :     1330.75  1333.52  1336.76  1345.37  1347.73  1349.26
eigval :     1371.71  1376.85  1387.74  1393.07  1408.37  1411.93
eigval :     1416.69  1422.79  1425.28  1431.71  1435.84  1437.52
eigval :     1458.55  1461.07  1462.74  1463.66  1472.16  1474.60
eigval :     1480.85  1481.12  1481.87  1496.01  1540.43  1541.23
eigval :     1545.19  1548.52  1572.18  1573.46  1574.16  1574.30
eigval :     1576.23  1579.69  1580.44  1581.56  1585.42  1591.28
eigval :     1592.05  1592.39  1595.91  3067.60  3068.36  3069.46
eigval :     3071.38  3075.72  3076.37  3076.71  3079.14  3079.92
eigval :     3081.02  3081.11  3082.74  3084.07  3087.74  3088.86
eigval :     3089.16  3089.63  3092.34  3094.91  3095.38  3096.05
eigval :     3096.35  3098.51  3098.84  3099.52  3102.86  3105.00
eigval :     3105.35  3106.72  3106.86  3107.65  3110.42  3112.42

   temp. (K)  partition function   enthalpy   heat capacity  entropy
                                   cal/mol     cal/K/mol   cal/K/mol   J/K/mol
 298.15  VIB  0.172E+23            28738.394    181.019    178.202
         ROT  0.136E+09              888.752      2.981     40.203
         INT  0.235E+31            29627.147    184.000    218.405
         TR   0.222E+29             1481.254      4.968     45.925
         TOT                       31108.4005   188.9682   264.3293  1105.9539

       T/K    H(0)-H(T)+PV         H(T)/Eh          T*S/Eh         G(T)/Eh
   ------------------------------------------------------------------------
    298.15    0.495744E-01    0.760630E+00    0.125591E+00    0.635039E+00
   ------------------------------------------------------------------------

         :::::::::::::::::::::::::::::::::::::::::::::::::::::
         ::                  THERMODYNAMIC                  ::
         :::::::::::::::::::::::::::::::::::::::::::::::::::::
         :: total free energy        -158.261353852128 Eh   ::
         ::.................................................::
         :: total energy             -158.896392358018 Eh   ::
         :: zero point energy           0.711055509695 Eh   ::
         :: G(RRHO) w/o ZPVE           -0.076017003805 Eh   ::
         :: G(RRHO) contrib.            0.635038505889 Eh   ::
         :::::::::::::::::::::::::::::::::::::::::::::::::::::

           -------------------------------------------------
          | TOTAL ENERGY             -158.896392358018 Eh   |
          | TOTAL ENTHALPY           -158.135762456586 Eh   |
          | TOTAL FREE ENERGY        -158.261353852128 Eh   |
          | GRADIENT NORM               0.000045274783 Eh/α |
          | HOMO-LUMO GAP               0.312748093929 eV   |
           -------------------------------------------------

 * finished run on 2025/09/10 at 14:03:14.014
