   * xtb version 6.7.1 (edcfbbe) compiled by 'albert@albert-system' on 2024-07-22

   ID    Z sym.   atoms
    1    6 C      1-5, 7-13, 15-18, 20-26, 28-32, 34-40, 42-46, 48-54, 56-60,
                  62, 63
    2    7 N      6, 14, 19, 27, 33, 41, 47, 55, 61
    3    1 H      64-96

          program call               : xtb data2507/toluene/TCbTrz/TCbTrz_toluene_S0_crest.xyz --gfn 2 --gbsa toluene --ohess vtight --parallel 40 --molden --ceasefiles --namespace data2507/toluene/TCbTrz/TCbTrz_toluene_S0_finalOpt
      * Solvation model:               GBSA
        Solvent                        toluene
        Solvent mass                       9.2140E+01 g/mol
          :  Hamiltonian                  GFN2-xTB          :
 * total energy  :  -158.9735262 Eh     change       -0.4006608E-08 Eh
 * total energy  :  -158.9735946 Eh     change       -0.6831544E-04 Eh
 * total energy  :  -158.9736313 Eh     change       -0.3674481E-04 Eh
 * total energy  :  -158.9736496 Eh     change       -0.1829447E-04 Eh
 * total energy  :  -158.9736717 Eh     change       -0.2212970E-04 Eh
 * total energy  :  -158.9736989 Eh     change       -0.2718258E-04 Eh
 * total energy  :  -158.9737236 Eh     change       -0.2472750E-04 Eh
 * total energy  :  -158.9737414 Eh     change       -0.1773694E-04 Eh
 * total energy  :  -158.9737533 Eh     change       -0.1188697E-04 Eh
 * total energy  :  -158.9737604 Eh     change       -0.7097579E-05 Eh
 * total energy  :  -158.9737713 Eh     change       -0.1072713E-05 Eh
 * total energy  :  -158.9737721 Eh     change       -0.7883475E-06 Eh
 * total energy  :  -158.9737728 Eh     change       -0.7120946E-06 Eh
 * total energy  :  -158.9737733 Eh     change       -0.5371140E-06 Eh
 * total energy  :  -158.9737737 Eh     change       -0.3287799E-06 Eh
 * total energy  :  -158.9737739 Eh     change       -0.2447184E-06 Eh
 * total energy  :  -158.9737742 Eh     change       -0.2483900E-06 Eh
 * total energy  :  -158.9737745 Eh     change       -0.3146420E-06 Eh
 * total energy  :  -158.9737745 Eh     change       -0.7709161E-08 Eh
   *** GEOMETRY OPTIMIZATION CONVERGED AFTER 22 ITERATIONS ***

 final structure:
================
96
 xtb: 6.7.1 (edcfbbe)
C            7.25313910021572       -4.70952520630476        0.17781162678256
C            7.93667532227397       -3.50383916069152        0.12513779160900
C            7.23832490127430       -2.31284298371505        0.07777857063140
C            5.84338635534210       -2.31972893363448        0.08250366479576
C            5.10084051055919       -1.06255502688237        0.03475676725227
N            5.78788487721014        0.07605868024559        0.00320934124738
C            5.07381954077190        1.19778936652231       -0.02765926457853
C            5.78789892262393        2.47169411110431       -0.07287077728016
C            7.18258952158815        2.49490369064963       -0.08418157491365
C            7.85482804780653        3.70090209834097       -0.12965358709104
C            7.14527120333035        4.89205905054264       -0.16438188886705
C            5.75851679187907        4.87597502909445       -0.15308347991052
C            5.08013483589385        3.67347656980757       -0.10754251534667
N            3.73998472434940        1.22764525964966       -0.02043329718189
C            3.13811532727809        0.04451904125613        0.00211849845964
C            1.67258414571130        0.02524392493698        0.00124640596274
C            0.95850744707578        1.18553533333194        0.27602494230881
C           -0.42851983934751        1.17511304402519        0.28380953557560
N           -1.12302662550518        2.35561736378083        0.57939209356613
C           -2.15743330970130        2.50044645934689        1.49096455800795
C           -2.59274102658694        1.62061329451518        2.47000072798401
C           -3.64807376237088        2.01707599441661        3.26955299891547
C           -4.24648404704071        3.26633302885725        3.11823904258577
C           -3.78113695992755        4.16859136620892        2.18278264101032
C           -2.72118944900505        3.78911319333614        1.36900640476180
C           -1.97188111729331        4.46253654747694        0.34544689686487
N           -2.10821829741731        5.68703586300434       -0.14156048026120
C           -1.26704288935558        6.03880250301971       -1.09723724115041
C           -0.27465400280812        5.20790473470794       -1.61532327422687
C           -0.12085616301806        3.92245584332617       -1.12079973096765
C           -0.98631552827518        3.54567557828098       -0.10631252517926
C           -1.12630034107451       -0.01302524461651       -0.00491202237992
N           -2.52503272854260       -0.02975883967499       -0.01853916399124
C           -3.33938181012581        0.80104417764346       -0.77456496424912
C           -2.98666486874821        1.73923816512745       -1.73254022659483
C           -4.00410065682865        2.42806248437511       -2.36557955939352
C           -5.34293874601271        2.17741826794209       -2.07338051750556
C           -5.70124037233843        1.20963672579052       -1.15617076454028
C           -4.69328817955977        0.50968242749564       -0.50551782144426
C           -4.69374659479806       -0.55999690483338        0.45269963269978
N           -5.71078823237108       -1.18819378410862        1.02273945726840
C           -5.40676780554987       -2.13421127738434        1.89309425270726
C           -4.10603904204023       -2.47318970418003        2.26061212554412
C           -3.03169459162395       -1.81903500312801        1.68044439568872
C           -3.33505508498643       -0.86108677882537        0.72726480541330
C           -0.39516742657821       -1.18333405302375       -0.27953135507140
N           -1.05636368424596       -2.38542885570210       -0.56600255214461
C           -0.87480457795239       -3.57723772953525        0.12362378868202
C            0.00941194652634       -3.87328947624323        1.15083831247642
C           -0.03483691324628       -5.14543866274264        1.69083554364320
C           -0.93998534873940       -6.10141986114744        1.23290806224956
C           -1.83472800681653       -5.80691731147510        0.22379540027495
C           -1.80476790363642       -4.53523705062661       -0.33588266063682
C           -2.57579444448620       -3.89118320697344       -1.36213244048549
N           -3.56265873491477       -4.36698858831974       -2.10708940226123
C           -4.07165882365684       -3.54410787672566       -3.00615855688821
C           -3.60773083015164       -2.25002132848683       -3.23638679420699
C           -2.57280474480418       -1.74007958681953       -2.46983759695497
C           -2.07272237609790       -2.56896783579064       -1.47894278332227
C            0.99176179696009       -1.15542185800751       -0.27030396539198
N            3.76825393968185       -1.12347444922551        0.02609197462046
C            5.16175989462853       -3.53597970604173        0.13568974226156
C            5.86632668396560       -4.72321392883125        0.18335298439307
H            7.80150541035797       -5.63900358762193        0.21468399745748
H            9.01640008940139       -3.49420466508042        0.12113251325455
H            7.75315067409820       -1.36584071398037        0.03669100339843
H            7.71784881876720        1.55880337767077       -0.05704990168709
H            8.93446797847477        3.71423919458385       -0.13828697981114
H            7.67306207723214        5.83341585465394       -0.19998227550571
H            5.20611934096005        5.80349965389827       -0.17967203915342
H            4.00173930815684        3.64365782742448       -0.09860172173770
H            1.49367289974119        2.09031541222697        0.51557480878526
H           -2.11666251896167        0.66328903355536        2.61749531232180
H           -4.01153457813172        1.34313679550272        4.03096910572762
H           -5.07284089886408        3.53448093273926        3.75843528233750
H           -4.21307176213014        5.15107614733352        2.07821082545732
H           -1.39462383854409        7.04369886608228       -1.47675945389618
H            0.36899172854071        5.56709995871646       -2.40294009722793
H            0.63177067803587        3.25359803370298       -1.51390992046878
H           -1.95415802916906        1.92212614857425       -1.99068837416851
H           -3.75137200380199        3.17303802501844       -3.10525540751801
H           -6.10759475203974        2.73986066900262       -2.58673515736292
H           -6.73405595097165        0.98489685806706       -0.94265781441768
H           -6.25260442840190       -2.64215072330550        2.33609975056507
H           -3.93675400530928       -3.23994685811247        2.99985490638335
H           -2.01686373488865       -2.04766184850247        1.97183874781289
H            0.70512442089659       -3.13601769308121        1.52338814955758
H            0.64669340423463       -5.40061511496512        2.48853591028724
H           -0.94117156810997       -7.08305830597329        1.68156177307917
H           -2.54866959451421       -6.53230918274300       -0.13257055387136
H           -4.88533362816179       -3.94840009275992       -3.59293568216025
H           -4.05051630848555       -1.64989594796416       -4.01542578537203
H           -2.17686945224606       -0.75204633351971       -2.65132786922961
H            1.55204121725023       -2.04616647465916       -0.50456386914628
H            4.08298173977172       -3.52933135331119        0.14025672240520
H            5.33412299734656       -5.66186497263626        0.22454627967765

          :  Hamiltonian                  GFN2-xTB          :
         :: gradient norm              0.000062851043 Eh/a0 ::
         :: HOMO-LUMO gap              1.852533037584 eV    ::
         :: SCC energy              -161.808739606208 Eh    ::
         :: -> dispersion             -0.159395263296 Eh    ::
         :: -> Gsolv                  -0.068271047192 Eh    ::
         :: repulsion energy           2.834965125862 Eh    ::

    * Orbital Energies and Occupations

         #    Occupation            Energy/Eh            Energy/eV
      -------------------------------------------------------------
         1        2.0000           -0.7120511             -19.3759
       ...           ...                  ...                  ...
       135        2.0000           -0.4198202             -11.4239
       136        2.0000           -0.4193591             -11.4113
       137        2.0000           -0.4035615             -10.9815
       138        2.0000           -0.4005768             -10.9002
       139        2.0000           -0.3987610             -10.8508
       140        2.0000           -0.3932019             -10.6996
       141        2.0000           -0.3911823             -10.6446
       142        2.0000           -0.3896529             -10.6030
       143        2.0000           -0.3871866             -10.5359
       144        2.0000           -0.3866526             -10.5214
       145        2.0000           -0.3789218             -10.3110
       146        2.0000           -0.3780768             -10.2880
       147        2.0000           -0.3772280             -10.2649 (HOMO)
       148                         -0.3091487              -8.4124 (LUMO)
       149                         -0.3030362              -8.2460
       150                         -0.2742241              -7.4620
       151                         -0.2738744              -7.4525
       152                         -0.2721279              -7.4050
       153                         -0.2675811              -7.2813
       154                         -0.2656552              -7.2288
       155                         -0.2496550              -6.7935
       156                         -0.2449258              -6.6648
       157                         -0.2425223              -6.5994
       158                         -0.2393744              -6.5137
       ...                                ...                  ...
       285                          0.7105019              19.3337
      -------------------------------------------------------------
                  HL-Gap            0.0680794 Eh            1.8525 eV

     #   Z          covCN         q      C6AA      α(0)
     1   6 C        2.920    -0.020    28.509     8.756
     2   6 C        2.918    -0.026    28.650     8.777
     3   6 C        2.923    -0.025    28.621     8.773
     4   6 C        2.983    -0.010    28.251     8.719
     5   6 C        2.979     0.214    23.478     7.948
     6   7 N        1.844    -0.312    28.938     7.972
     7   6 C        2.979     0.214    23.478     7.948
     8   6 C        2.983    -0.010    28.250     8.719
     9   6 C        2.923    -0.025    28.620     8.773
    10   6 C        2.918    -0.026    28.648     8.777
    11   6 C        2.920    -0.020    28.510     8.756
    12   6 C        2.918    -0.026    28.662     8.779
    13   6 C        2.923    -0.025    28.633     8.775
    14   7 N        1.844    -0.319    29.131     7.999
    15   6 C        2.986     0.215    23.464     7.946
    16   6 C        2.982    -0.006    28.166     8.706
    17   6 C        2.926    -0.046    29.144     8.853
    18   6 C        2.910     0.055    26.770     8.484
    19   7 N        2.798    -0.050    22.208     6.999
    20   6 C        3.078     0.048    26.850     8.495
    21   6 C        2.910    -0.051    29.258     8.870
    22   6 C        2.924    -0.030    28.741     8.792
    23   6 C        2.921    -0.036    28.907     8.817
    24   6 C        2.912    -0.027    28.671     8.780
    25   6 C        3.062    -0.023    28.519     8.757
    26   6 C        3.071     0.074    26.268     8.404
    27   7 N        1.832    -0.245    27.236     7.734
    28   6 C        2.922     0.050    26.870     8.501
    29   6 C        2.922    -0.046    29.142     8.853
    30   6 C        2.914    -0.037    28.924     8.819
    31   6 C        3.071     0.038    27.077     8.532
    32   6 C        2.912     0.045    26.981     8.518
    33   7 N        2.797    -0.050    22.213     7.000
    34   6 C        3.079     0.049    26.807     8.488
    35   6 C        2.910    -0.051    29.255     8.869
    36   6 C        2.924    -0.029    28.732     8.790
    37   6 C        2.921    -0.036    28.892     8.815
    38   6 C        2.913    -0.026    28.663     8.779
    39   6 C        3.063    -0.024    28.532     8.759
    40   6 C        3.073     0.074    26.265     8.403
    41   7 N        1.833    -0.247    27.296     7.742
    42   6 C        2.922     0.052    26.836     8.495
    43   6 C        2.922    -0.046    29.149     8.854
    44   6 C        2.915    -0.037    28.918     8.818
    45   6 C        3.070     0.043    26.957     8.513
    46   6 C        2.910     0.054    26.782     8.486
    47   7 N        2.798    -0.053    22.258     7.007
    48   6 C        3.077     0.046    26.880     8.500
    49   6 C        2.909    -0.051    29.271     8.871
    50   6 C        2.924    -0.029    28.729     8.790
    51   6 C        2.920    -0.037    28.911     8.817
    52   6 C        2.912    -0.026    28.661     8.779
    53   6 C        3.062    -0.023    28.525     8.758
    54   6 C        3.072     0.073    26.300     8.409
    55   7 N        1.832    -0.249    27.332     7.747
    56   6 C        2.922     0.051    26.848     8.497
    57   6 C        2.922    -0.047    29.163     8.856
    58   6 C        2.915    -0.037    28.931     8.820
    59   6 C        3.069     0.040    27.036     8.526
    60   6 C        2.926    -0.046    29.139     8.852
    61   7 N        1.844    -0.318    29.104     7.995
    62   6 C        2.923    -0.025    28.633     8.775
    63   6 C        2.918    -0.026    28.659     8.779
    64   1 H        0.926     0.053     2.280     2.361
    65   1 H        0.926     0.051     2.309     2.376
    66   1 H        0.926     0.053     2.282     2.362
    67   1 H        0.926     0.054     2.276     2.359
    68   1 H        0.926     0.051     2.306     2.375
    69   1 H        0.926     0.053     2.280     2.361
    70   1 H        0.926     0.049     2.327     2.386
    71   1 H        0.926     0.049     2.336     2.390
    72   1 H        0.926     0.070     2.086     2.258
    73   1 H        0.926     0.024     2.670     2.555
    74   1 H        0.926     0.041     2.441     2.443
    75   1 H        0.926     0.046     2.365     2.405
    76   1 H        0.926     0.054     2.273     2.358
    77   1 H        0.925     0.041     2.435     2.440
    78   1 H        0.926     0.046     2.373     2.409
    79   1 H        0.926     0.034     2.532     2.488
    80   1 H        0.926     0.023     2.685     2.562
    81   1 H        0.926     0.043     2.410     2.428
    82   1 H        0.926     0.048     2.342     2.393
    83   1 H        0.926     0.054     2.273     2.357
    84   1 H        0.925     0.042     2.420     2.432
    85   1 H        0.926     0.046     2.369     2.407
    86   1 H        0.926     0.029     2.599     2.521
    87   1 H        0.926     0.033     2.539     2.492
    88   1 H        0.926     0.046     2.365     2.405
    89   1 H        0.926     0.047     2.360     2.402
    90   1 H        0.926     0.052     2.300     2.372
    91   1 H        0.925     0.040     2.445     2.445
    92   1 H        0.926     0.043     2.404     2.425
    93   1 H        0.926     0.029     2.606     2.524
    94   1 H        0.926     0.072     2.060     2.244
    95   1 H        0.926     0.050     2.317     2.380
    96   1 H        0.926     0.050     2.316     2.380

molecular dipole:
                 x           y           z       tot (Debye)
 q only:        1.981      -0.030       0.240
   full:        2.834       0.012       0.099       7.207

 projected vibrational frequencies (cm⁻¹)
eigval :        0.00     0.00     0.00     0.00     0.00     0.00
eigval :      -27.92   -12.55     5.83    14.23    20.63    23.45
eigval :       24.95    25.75    27.89    41.69    50.30    53.16
eigval :       56.69    59.78    70.57    89.72    90.07   105.01
eigval :      107.03   108.99   122.97   125.58   127.69   143.27
eigval :      151.18   152.48   166.56   176.22   179.33   182.26
eigval :      189.67   196.78   220.84   232.42   239.64   243.82
eigval :      261.65   268.59   275.96   277.32   282.26   295.78
eigval :      330.00   345.13   357.37   362.67   363.91   374.75
eigval :      388.58   399.04   401.04   402.11   408.90   414.96
eigval :      423.18   426.01   427.04   435.09   438.70   440.61
eigval :      444.43   480.15   498.61   511.20   511.84   521.37
eigval :      522.13   523.46   536.73   542.72   543.37   549.13
eigval :      551.02   551.90   562.68   585.98   587.09   588.42
eigval :      595.77   596.00   596.38   611.76   623.53   623.99
eigval :      627.47   640.93   648.45   652.36   653.51   672.04
eigval :      680.96   682.34   682.91   684.12   691.69   700.77
eigval :      722.98   724.90   725.55   731.15   748.52   751.85
eigval :      762.70   765.30   774.53   778.28   778.55   779.80
eigval :      782.12   795.46   796.63   799.58   800.14   846.56
eigval :      860.06   865.95   872.43   874.81   878.92   880.80
eigval :      882.56   893.66   899.04   899.68   901.40   903.96
eigval :      906.80   908.79   910.13   910.16   910.44   911.07
eigval :      912.02   914.39   914.51   919.34   926.42   927.04
eigval :      927.40   929.03   930.37   932.26   933.89   934.05
eigval :      958.34   989.00   998.55  1021.03  1023.54  1024.26
eigval :     1047.71  1050.47  1065.66  1067.18  1067.50  1073.91
eigval :     1075.15  1088.05  1089.96  1091.10  1092.60  1103.11
eigval :     1107.86  1111.44  1122.47  1141.96  1142.35  1145.32
eigval :     1147.92  1149.52  1164.68  1170.46  1174.68  1175.85
eigval :     1176.24  1177.26  1179.04  1179.54  1186.81  1193.72
eigval :     1199.10  1206.24  1211.49  1216.41  1225.74  1229.33
eigval :     1232.38  1244.14  1266.96  1268.12  1284.65  1285.23
eigval :     1286.37  1292.76  1295.05  1295.81  1303.10  1313.12
eigval :     1320.33  1328.26  1328.87  1333.01  1333.30  1337.66
eigval :     1342.47  1352.32  1354.96  1356.24  1366.74  1371.01
eigval :     1376.46  1383.17  1390.74  1410.39  1416.17  1420.66
eigval :     1427.10  1429.21  1429.66  1436.75  1461.56  1464.19
eigval :     1467.78  1469.02  1472.92  1473.05  1482.31  1483.12
eigval :     1483.51  1502.67  1514.52  1543.59  1555.10  1556.41
eigval :     1558.35  1563.23  1579.62  1580.28  1580.77  1581.52
eigval :     1582.36  1586.53  1587.24  1589.18  1591.37  1592.52
eigval :     1604.31  1606.56  1607.75  3062.20  3064.20  3064.60
eigval :     3064.92  3073.87  3078.10  3079.22  3079.89  3080.06
eigval :     3080.54  3081.81  3084.74  3085.12  3086.58  3088.19
eigval :     3090.80  3094.11  3094.33  3095.83  3096.72  3097.15
eigval :     3097.80  3101.50  3102.29  3104.23  3105.18  3106.45
eigval :     3107.78  3108.29  3108.40  3108.81  3116.06  3117.50

   temp. (K)  partition function   enthalpy   heat capacity  entropy
                                   cal/mol     cal/K/mol   cal/K/mol   J/K/mol
 298.15  VIB  0.142E+23            27896.029    176.633    173.687
         ROT  0.136E+09              888.752      2.981     40.196
         INT  0.193E+31            28784.782    179.613    213.883
         TR   0.222E+29             1481.254      4.968     45.925
         TOT                       30266.0355   184.5816   259.8075  1087.0345

       T/K    H(0)-H(T)+PV         H(T)/Eh          T*S/Eh         G(T)/Eh
   ------------------------------------------------------------------------
    298.15    0.482320E-01    0.764390E+00    0.123443E+00    0.640947E+00
   ------------------------------------------------------------------------

         :::::::::::::::::::::::::::::::::::::::::::::::::::::
         ::                  THERMODYNAMIC                  ::
         :::::::::::::::::::::::::::::::::::::::::::::::::::::
         :: total free energy        -158.332827052215 Eh   ::
         ::.................................................::
         :: total energy             -158.973774478714 Eh   ::
         :: zero point energy           0.716158345553 Eh   ::
         :: G(RRHO) w/o ZPVE           -0.075210919054 Eh   ::
         :: G(RRHO) contrib.            0.640947426499 Eh   ::
         :::::::::::::::::::::::::::::::::::::::::::::::::::::

           -------------------------------------------------
          | TOTAL ENERGY             -158.973774478714 Eh   |
          | TOTAL ENTHALPY           -158.209384135449 Eh   |
          | TOTAL FREE ENERGY        -158.332827052215 Eh   |
          | GRADIENT NORM               0.000062830420 Eh/α |
          | HOMO-LUMO GAP               1.852533445090 eV   |
           -------------------------------------------------

 * finished run on 2025/09/10 at 13:49:59.331
