   * xtb version 6.7.1 (edcfbbe) compiled by 'albert@albert-system' on 2024-07-22

   ID    Z sym.   atoms
    1    7 N      1, 5, 13, 22, 30, 39, 47
    2    6 C      2-4, 6-12, 14-21, 23-29, 31-38, 40-46, 48-53
    3    1 H      54-82

          program call               : xtb data2507/gas/iTPBI-CN/iTPBI-CN_gas_T1_crest.xyz --gfn 2 --spinpol --tblite --uhf 2 --ohess vtight --parallel 40 --molden --ceasefiles --namespace data2507/gas/iTPBI-CN/iTPBI-CN_gas_T1_finalOpt
 * total energy  :  -133.7195048 Eh     change       -0.2705451E-07 Eh
 * total energy  :  -133.7195604 Eh     change       -0.5559400E-04 Eh
 * total energy  :  -133.7196067 Eh     change       -0.4633713E-04 Eh
 * total energy  :  -133.7196123 Eh     change       -0.5614120E-05 Eh
 * total energy  :  -133.7196171 Eh     change       -0.4781538E-05 Eh
 * total energy  :  -133.7196211 Eh     change       -0.4038503E-05 Eh
 * total energy  :  -133.7196266 Eh     change       -0.5511249E-05 Eh
 * total energy  :  -133.7196290 Eh     change       -0.2351270E-05 Eh
 * total energy  :  -133.7196303 Eh     change       -0.1300556E-05 Eh
 * total energy  :  -133.7196314 Eh     change       -0.1068536E-05 Eh
 * total energy  :  -133.7196323 Eh     change       -0.9171126E-06 Eh
 * total energy  :  -133.7196329 Eh     change       -0.6499179E-06 Eh
 * total energy  :  -133.7196334 Eh     change       -0.4532909E-06 Eh
 * total energy  :  -133.7196338 Eh     change       -0.3795554E-06 Eh
 * total energy  :  -133.7196342 Eh     change       -0.4275447E-06 Eh
 * total energy  :  -133.7196346 Eh     change       -0.4283748E-06 Eh
 * total energy  :  -133.7196350 Eh     change       -0.3807353E-06 Eh
 * total energy  :  -133.7196351 Eh     change       -0.7155288E-07 Eh
   *** GEOMETRY OPTIMIZATION CONVERGED AFTER 18 ITERATIONS ***

 final structure:
================
82
 xtb: 6.7.1 (edcfbbe)
N            3.33621444382561        1.12158646279922        1.64202309208758
C            2.41318563889374        0.78487005036222        1.04292498446700
C            1.25680943908472        0.37364344519630        0.36726533684161
C            0.33377105705398        1.32648462638008       -0.12953707268305
N            0.66735146851391        2.68589138695191       -0.07990461625884
C            1.84812621235432        3.27319873788616       -0.49162867763271
C            2.87654979810330        2.58505047549106       -1.25521605163936
C            2.55515751272411        1.63308989355405       -2.22147681401926
C            3.55820013554634        1.02505273294308       -2.95428068951895
C            4.88498718166427        1.35547123586861       -2.72949979065492
C            5.20775893394053        2.30965236339464       -1.77761772340306
C            4.21146093852919        2.92873681861871       -1.04886086605614
N            1.90607438498641        4.54139431907538       -0.19147362118278
C            0.73571247787352        4.84854757608619        0.43820544478195
C            0.28062058580466        6.05322124209710        0.96438611198661
C           -0.96370754517876        6.06323701069395        1.55743488712916
C           -1.74582706835663        4.90906363841195        1.63782251937603
C           -1.31351943185421        3.70214075241592        1.12323578554504
C           -0.07131762118488        3.68761702922649        0.51431127722980
C           -0.87840301401360        0.92604240556799       -0.64374135846764
C           -1.19108001462487       -0.44118044733655       -0.74139735145804
N           -2.40365523711040       -0.83325632431876       -1.28239284695742
C           -3.64872603315555       -0.22606517415979       -1.06904150675239
C           -4.03359481295825        0.53861395158452        0.04054991602607
C           -3.28231291111015        0.62394013517039        1.24573165920388
C           -3.75341657858172        1.35648321819896        2.30602016740331
C           -4.96415783938677        2.04411513813496        2.22133446329499
C           -5.72801864469105        1.95191820004455        1.05531897793288
C           -5.28845452765359        1.21148298430825       -0.00844710573005
N           -4.54965519882343       -0.62765973366137       -2.01962170243025
C           -3.95364329730466       -1.56779326319758       -2.73211849355659
C           -4.44879344337055       -2.33015462532417       -3.81332170343728
C           -3.58021574525042       -3.17918529715509       -4.45122797029972
C           -2.24169418889504       -3.29779385137848       -4.05523809132411
C           -1.72542558225859       -2.57109137790339       -2.98184414618445
C           -2.58501961566801       -1.73438714037451       -2.31198733571045
C           -0.25853011033943       -1.39441353443972       -0.31664089560700
C            0.93312288691986       -0.99729571400323        0.25414111749335
N            1.80677837338812       -1.96574446337090        0.76316810287071
C            1.47459785864035       -3.00982292269635        1.60393548389766
C            0.16452661046440       -3.16334037633585        2.21924795842954
C           -0.56348197210052       -2.06662567834586        2.67933490531468
C           -1.80628196109145       -2.25249709315198        3.25459152855825
C           -2.33349788023550       -3.52754743731633        3.38147896697560
C           -1.60203045177308       -4.62328951382413        2.95270876804772
C           -0.35783510786271       -4.44566600935188        2.37856282123658
N            2.47346253591788       -3.82336116735041        1.81076024562138
C            3.53338926627520       -3.32264565524146        1.11121197573302
C            4.83472450416615       -3.79731720504295        0.98178038759163
C            5.69641906590593       -3.08655492880578        0.17428284138853
C            5.28518790423769       -1.93625912342163       -0.50253140411704
C            3.99800686280740       -1.44835288598823       -0.39105709288307
C            3.13484676807227       -2.14217722249112        0.43829223776250
H            1.52175894280322        1.38258840021918       -2.41782515250093
H            3.30247235660624        0.28995387465269       -3.70388252742980
H            5.66359892544337        0.87156122786191       -3.30034192213581
H            6.24061731947709        2.57118148673801       -1.60454301628284
H            4.44384810795476        3.67313851593578       -0.30482453330803
H            0.89178901175808        6.93884966563077        0.90376591887291
H           -1.34713316441035        6.98266410707925        1.97392645744299
H           -2.71441190199247        4.95858439573723        2.11248203959596
H           -1.92146436368681        2.81338926148245        1.19547957605639
H           -1.57787068239839        1.66023043826160       -1.01344413835047
H           -2.36829564347681        0.05939595723959        1.34582327595235
H           -3.17935617499646        1.40193439196377        3.22097262595452
H           -5.31350742419995        2.62978815348800        3.05719863399206
H           -6.67283561005615        2.47157533045902        0.99620521770477
H           -5.86387384697818        1.12686958826715       -0.91591074604240
H           -5.48113806052944       -2.23320593369345       -4.10518354965978
H           -3.92851562005664       -3.77459664513055       -5.28184736328881
H           -1.58924971053407       -3.96618660178721       -4.59556573096944
H           -0.68524218452518       -2.66206067712253       -2.70970818680061
H           -0.49714775543030       -2.44480983149054       -0.37860954481626
H           -0.14397554733947       -1.07272690718192        2.61409499109285
H           -2.36625587113492       -1.40062863317590        3.61133440019287
H           -3.30802903367943       -3.66564026771447        3.82533541317724
H           -2.00364122251772       -5.61913854399814        3.06670484679355
H            0.22654112246814       -5.28817915626670        2.04291049567499
H            5.14314856489527       -4.68958486095355        1.50193016923014
H            6.71499942872378       -3.42485027555666        0.05627722128908
H            5.99007815108005       -1.41090912579606       -1.12884073860314
H            3.68948082707291       -0.56291675312500       -0.92393235969592

 projected vibrational frequencies (cm⁻¹)
eigval :       -0.00    -0.00    -0.00     0.00     0.00     0.00
eigval :       13.61    17.90    22.64    23.75    30.49    31.75
eigval :       36.77    46.88    52.94    55.73    59.71    63.85
eigval :       70.48    76.09    80.95    89.66    93.61    99.53
eigval :      108.72   125.90   144.48   151.68   164.57   176.38
eigval :      186.42   193.56   214.04   230.09   232.97   243.23
eigval :      259.18   262.29   267.25   283.89   285.05   294.56
eigval :      299.80   305.52   318.29   345.20   347.75   357.69
eigval :      370.56   371.57   373.52   375.55   389.31   403.68
eigval :      404.11   409.43   430.21   465.40   471.22   476.51
eigval :      495.10   511.63   524.56   527.85   533.82   535.39
eigval :      538.48   539.01   557.01   566.80   571.39   576.95
eigval :      584.64   585.65   592.68   603.67   615.51   618.18
eigval :      630.57   639.79   646.36   650.42   656.57   660.58
eigval :      667.73   669.42   671.87   675.01   689.20   696.56
eigval :      706.81   707.93   730.37   740.25   759.57   762.22
eigval :      766.31   767.81   779.93   797.48   827.85   830.88
eigval :      840.00   849.33   852.72   857.08   859.07   862.26
eigval :      862.96   863.47   869.71   874.05   875.22   876.16
eigval :      877.63   882.74   899.16   901.49   903.45   905.68
eigval :      909.24   917.18   917.80   918.77   920.96   922.63
eigval :      928.06   930.04   932.27   932.99   945.64   979.20
eigval :      982.86  1008.56  1043.42  1054.05  1056.81  1058.61
eigval :     1060.81  1077.51  1080.33  1082.32  1084.22  1107.18
eigval :     1117.56  1118.90  1119.14  1121.54  1124.96  1139.86
eigval :     1158.13  1164.55  1167.27  1170.61  1173.75  1179.66
eigval :     1180.08  1182.34  1185.69  1194.03  1195.63  1196.21
eigval :     1200.74  1230.41  1242.97  1247.24  1260.21  1268.78
eigval :     1271.32  1277.49  1278.46  1279.27  1299.00  1302.82
eigval :     1305.89  1310.75  1320.38  1321.15  1324.84  1338.55
eigval :     1340.85  1344.93  1348.44  1357.32  1363.14  1379.91
eigval :     1390.32  1393.47  1397.51  1420.81  1424.54  1428.19
eigval :     1432.02  1435.00  1443.05  1453.20  1458.56  1461.00
eigval :     1475.61  1481.38  1482.08  1490.76  1504.61  1514.29
eigval :     1518.69  1540.27  1565.39  1575.89  1576.09  1576.63
eigval :     1580.97  1583.15  1590.81  1591.89  1598.59  1601.76
eigval :     2316.40  3068.12  3071.24  3073.89  3078.35  3081.21
eigval :     3082.20  3083.49  3084.39  3086.12  3086.70  3087.18
eigval :     3089.38  3089.79  3094.29  3095.88  3096.03  3096.80
eigval :     3099.32  3100.21  3101.61  3102.55  3104.34  3105.60
eigval :     3106.57  3110.60  3112.50  3116.30  3117.74  3117.95

   temp. (K)  partition function   enthalpy   heat capacity  entropy
                                   cal/mol     cal/K/mol   cal/K/mol   J/K/mol
 298.15  VIB  0.112E+20            24731.565    154.734    154.172
         ROT  0.715E+08              888.752      2.981     38.922
         INT  0.800E+27            25620.318    157.715    193.094
         TR   0.171E+29             1481.254      4.968     45.410
         TOT                       27101.5717   162.6831   238.5040   997.9009

       T/K    H(0)-H(T)+PV         H(T)/Eh          T*S/Eh         G(T)/Eh
   ------------------------------------------------------------------------
    298.15    0.431891E-01    0.652889E+00    0.113321E+00    0.539568E+00
   ------------------------------------------------------------------------

         :::::::::::::::::::::::::::::::::::::::::::::::::::::
         ::                  THERMODYNAMIC                  ::
         :::::::::::::::::::::::::::::::::::::::::::::::::::::
         :: total free energy        -133.180066672225 Eh   ::
         ::.................................................::
         :: total energy             -133.719635035910 Eh   ::
         :: zero point energy           0.609700222342 Eh   ::
         :: G(RRHO) w/o ZPVE           -0.070131858657 Eh   ::
         :: G(RRHO) contrib.            0.539568363685 Eh   ::
         :::::::::::::::::::::::::::::::::::::::::::::::::::::

           -------------------------------------------------
          | TOTAL ENERGY             -133.719635035910 Eh   |
          | TOTAL ENTHALPY           -133.066745709965 Eh   |
          | TOTAL FREE ENERGY        -133.180066672225 Eh   |
          | GRADIENT NORM               0.000118336999 Eh/α |
           -------------------------------------------------

 * finished run on 2025/09/09 at 05:47:47.966
