   * xtb version 6.7.1 (edcfbbe) compiled by 'albert@albert-system' on 2024-07-22

   ID    Z sym.   atoms
    1    7 N      1, 5, 13, 22, 30, 39, 47
    2    6 C      2-4, 6-12, 14-21, 23-29, 31-38, 40-46, 48-53
    3    1 H      54-82

          program call               : xtb data2507/gas/iTPBI-CN/iTPBI-CN_gas_S0_finalOpt.xtbopt.xyz --gfn 2 --spinpol --tblite --uhf 2 --ohess vtight --parallel 40 --molden --ceasefiles --namespace data2507/gas/iTPBI-CN/iTPBI-CN_gas_T1_preOpt
 * total energy  :  -133.7112447 Eh     change       -0.1431624E-07 Eh
 * total energy  :  -133.7152617 Eh     change       -0.4016951E-02 Eh
 * total energy  :  -133.7168601 Eh     change       -0.1598390E-02 Eh
 * total energy  :  -133.7170547 Eh     change       -0.1946235E-03 Eh
 * total energy  :  -133.7172629 Eh     change       -0.2082036E-03 Eh
 * total energy  :  -133.7173194 Eh     change       -0.5650492E-04 Eh
 * total energy  :  -133.7173961 Eh     change       -0.7673363E-04 Eh
 * total energy  :  -133.7174217 Eh     change       -0.2560773E-04 Eh
 * total energy  :  -133.7174442 Eh     change       -0.2247237E-04 Eh
 * total energy  :  -133.7174592 Eh     change       -0.1494981E-04 Eh
 * total energy  :  -133.7175370 Eh     change       -0.3474267E-06 Eh
 * total energy  :  -133.7175374 Eh     change       -0.3523622E-06 Eh
 * total energy  :  -133.7175378 Eh     change       -0.3825368E-06 Eh
 * total energy  :  -133.7175381 Eh     change       -0.3503217E-06 Eh
 * total energy  :  -133.7175384 Eh     change       -0.2655027E-06 Eh
 * total energy  :  -133.7175386 Eh     change       -0.2050231E-06 Eh
 * total energy  :  -133.7175387 Eh     change       -0.1558292E-06 Eh
 * total energy  :  -133.7175388 Eh     change       -0.1073895E-06 Eh
 * total energy  :  -133.7175389 Eh     change       -0.7865614E-07 Eh
   *** GEOMETRY OPTIMIZATION CONVERGED AFTER 36 ITERATIONS ***

 final structure:
================
82
 xtb: 6.7.1 (edcfbbe)
N            3.27844904911701        1.14468779244231        1.69275777625086
C            2.35269912178046        0.79137263096417        1.08698926101789
C            1.25573096544757        0.38230084924529        0.36325378649673
C            0.29639744672704        1.34701450014571       -0.14065140664610
N            0.63364905373101        2.70121786027548       -0.07662132531678
C            1.82112400300298        3.28902390715779       -0.48151819140704
C            2.85868502644447        2.60481929175218       -1.23007605218619
C            2.56224564604431        1.59728350105539       -2.14865261627048
C            3.57925662197160        0.99718590748811       -2.86983676024344
C            4.89456895897306        1.38861462155475       -2.68087145930994
C            5.19257855809577        2.39637700753753       -1.77584880743778
C            4.18309465350919        3.00842959815032       -1.06072097627732
N            1.87253895029653        4.56047745857873       -0.18718675916729
C            0.69468370091746        4.86970270451616        0.42270236768044
C            0.23416655193543        6.07357993317027        0.94447005472614
C           -1.01768824132704        6.08474106215801        1.52337417449102
C           -1.80133644616425        4.92995152774709        1.59823500960876
C           -1.36461423098240        3.72384184858075        1.08790805132841
C           -0.11447581695402        3.70618218841036        0.49155328853657
C           -0.91228550774855        0.94192949547309       -0.62296232438798
C           -1.21947822411319       -0.43924573028256       -0.73578102590272
N           -2.41507807342039       -0.83116164559968       -1.31157698249051
C           -3.67930771263680       -0.30642210703675       -1.05285945506903
C           -3.99478519638830        0.57037126911654        0.05211056574454
C           -3.29647183074859        0.52169131409118        1.26249825411468
C           -3.67207468520523        1.33528072566548        2.31378983476321
C           -4.73892798514238        2.21100346228281        2.17797817259557
C           -5.44808933336672        2.25184904941558        0.98633219998353
C           -5.08892699729742        1.43413553501206       -0.06498701635235
N           -4.58835954712862       -0.79072642212605       -1.86636273817185
C           -3.96020834874375       -1.68168652304187       -2.67561313898058
C           -4.45293714440724       -2.45775037026795       -3.71949642401496
C           -3.56238356352905       -3.26426374309501       -4.39703860274402
C           -2.20453486857979       -3.30072915354930       -4.06534494221135
C           -1.69264590258669       -2.54214443348328       -3.03156730986480
C           -2.58172653409061       -1.74156750953693       -2.32911028280573
C           -0.27139536508178       -1.40112821048843       -0.32098831910307
C            0.92044133988579       -1.02043443038372        0.22687394442993
N            1.79829897859364       -1.98179305583432        0.73130836653178
C            1.45429285433169       -3.04304200600761        1.54852678575599
C            0.14022495397899       -3.20798943912842        2.15193857069251
C           -0.57080422761169       -2.12258833701289        2.66355996297568
C           -1.80764542374978       -2.31912565507967        3.24721430521391
C           -2.34941342252675       -3.59249279696455        3.32597231409690
C           -1.63668745035788       -4.67699905089419        2.84169243883288
C           -0.39550383265771       -4.48985339449280        2.26360090490060
N            2.45585210975477       -3.85211162161357        1.76347742036532
C            3.52633752015793       -3.33593053477077        1.09383066319754
C            4.82894863493520       -3.80628701246029        0.97747688843076
C            5.70868316333143       -3.07243127374468        0.20750760388824
C            5.31102765851388       -1.90345117856324       -0.44296351028835
C            4.02065815622993       -1.41960287330075       -0.34375488970301
C            3.13564204348246       -2.14023838086945        0.43989711388619
H            1.53737219241593        1.30340964627376       -2.32605745058006
H            3.34238536961999        0.22056099783935       -3.58284185547192
H            5.68389606035463        0.91096023289485       -3.24210868054126
H            6.21697502550344        2.70334380696144       -1.62896718700094
H            4.39519883897183        3.79348430122423       -0.35330433067769
H            0.84775797891029        6.95818254797467        0.89431068988135
H           -1.40559907879000        7.00519019270936        1.93332325952724
H           -2.77436359029613        4.98020867536424        2.06308478125519
H           -1.97418760357489        2.83622211024254        1.15286016523503
H           -1.62115236448245        1.66832752512467       -0.99092790329893
H           -2.48356679160591       -0.17821526662494        1.38932229156321
H           -3.12936999524417        1.28817236277310        3.24710590215966
H           -5.02119496059604        2.84974012474047        3.00132389601590
H           -6.28577820338004        2.92504383125582        0.88096103164894
H           -5.63587493466528        1.44745508342179       -0.99459353275740
H           -5.49710408503794       -2.41443838687427       -3.98313083116356
H           -3.91594139304280       -3.88062312013604       -5.21000785083647
H           -1.54184629978032       -3.93756563183762       -4.63128176951451
H           -0.64239521575220       -2.57422154762372       -2.78505598118147
H           -0.51944378784086       -2.44909415752164       -0.39574281053395
H           -0.14133760825741       -1.13116409065924        2.62980309521774
H           -2.35202465989282       -1.47787617666098        3.65035550919638
H           -3.32027782144055       -3.73777284512153        3.77537230294694
H           -2.04931385194053       -5.67198942440475        2.91686074780256
H            0.17493882364483       -5.32526135478531        1.88828653097647
H            5.12595756136257       -4.71565882195905        1.47418691957804
H            6.72961881952215       -3.40773910946565        0.10264119404171
H            6.02882344839521       -1.35711903242246       -1.03554866032567
H            3.72895748374119       -0.51045620274463       -0.84377695173992

 projected vibrational frequencies (cm⁻¹)
eigval :       -0.00    -0.00    -0.00     0.00     0.00     0.00
eigval :       12.59    18.46    22.74    23.43    29.98    30.60
eigval :       34.56    42.91    51.20    52.93    57.18    62.99
eigval :       70.25    72.40    78.06    84.75    91.10    94.20
eigval :      103.31   121.22   146.64   148.31   168.53   180.49
eigval :      183.55   192.59   202.06   226.53   228.65   241.13
eigval :      250.91   261.12   268.55   276.87   283.31   294.21
eigval :      295.96   305.95   310.26   326.51   352.69   353.58
eigval :      365.53   369.65   371.80   374.85   380.82   401.58
eigval :      404.66   407.09   408.97   460.95   464.52   473.12
eigval :      487.12   492.64   520.14   525.57   528.25   530.72
eigval :      535.68   537.71   550.11   565.65   570.22   582.89
eigval :      583.21   583.93   592.86   600.89   604.40   615.09
eigval :      626.80   641.91   642.88   644.63   655.19   662.94
eigval :      664.09   669.24   670.03   673.06   689.24   701.43
eigval :      704.51   705.10   756.28   758.31   760.75   762.45
eigval :      762.91   765.37   771.05   789.22   835.95   838.01
eigval :      845.79   853.48   856.15   857.53   859.93   863.48
eigval :      865.70   869.99   872.37   872.98   874.48   877.59
eigval :      896.38   897.28   898.11   900.33   902.11   904.74
eigval :      907.57   914.11   914.42   915.62   927.22   927.48
eigval :      928.96   930.35   931.36   935.05   971.69   976.39
eigval :      980.12  1002.29  1038.57  1055.59  1056.28  1058.16
eigval :     1068.64  1070.90  1078.13  1080.99  1082.29  1084.97
eigval :     1094.15  1116.53  1118.67  1119.29  1121.96  1125.81
eigval :     1143.03  1156.27  1161.17  1176.10  1177.91  1179.14
eigval :     1180.09  1182.50  1184.88  1190.24  1194.39  1197.66
eigval :     1212.02  1222.12  1238.16  1243.60  1250.30  1252.22
eigval :     1255.15  1260.47  1273.74  1276.50  1278.03  1280.53
eigval :     1286.62  1289.37  1296.85  1308.61  1316.91  1317.62
eigval :     1320.33  1324.32  1325.49  1331.33  1355.02  1367.95
eigval :     1381.81  1383.91  1386.44  1412.63  1418.91  1427.54
eigval :     1430.18  1431.02  1436.94  1442.90  1460.87  1472.60
eigval :     1473.62  1485.33  1489.66  1497.76  1500.22  1548.71
eigval :     1558.22  1563.30  1569.12  1570.05  1572.68  1573.41
eigval :     1577.28  1579.19  1582.08  1583.67  1587.45  1593.45
eigval :     2168.52  3071.71  3071.88  3073.86  3080.14  3081.41
eigval :     3082.45  3083.22  3084.58  3085.66  3086.66  3087.31
eigval :     3087.56  3088.12  3093.34  3094.90  3095.12  3095.85
eigval :     3096.07  3096.20  3096.36  3098.90  3104.02  3104.31
eigval :     3107.52  3110.39  3111.78  3112.60  3115.34  3117.76

   temp. (K)  partition function   enthalpy   heat capacity  entropy
                                   cal/mol     cal/K/mol   cal/K/mol   J/K/mol
 298.15  VIB  0.249E+20            24909.228    154.891    155.612
         ROT  0.711E+08              888.752      2.981     38.910
         INT  0.177E+28            25797.981    157.872    194.522
         TR   0.171E+29             1481.254      4.968     45.410
         TOT                       27279.2347   162.8404   239.9319  1003.8750

       T/K    H(0)-H(T)+PV         H(T)/Eh          T*S/Eh         G(T)/Eh
   ------------------------------------------------------------------------
    298.15    0.434722E-01    0.651466E+00    0.113999E+00    0.537466E+00
   ------------------------------------------------------------------------

         :::::::::::::::::::::::::::::::::::::::::::::::::::::
         ::                  THERMODYNAMIC                  ::
         :::::::::::::::::::::::::::::::::::::::::::::::::::::
         :: total free energy        -133.180072545434 Eh   ::
         ::.................................................::
         :: total energy             -133.717538967947 Eh   ::
         :: zero point energy           0.607993579757 Eh   ::
         :: G(RRHO) w/o ZPVE           -0.070527157243 Eh   ::
         :: G(RRHO) contrib.            0.537466422514 Eh   ::
         :::::::::::::::::::::::::::::::::::::::::::::::::::::

           -------------------------------------------------
          | TOTAL ENERGY             -133.717538967947 Eh   |
          | TOTAL ENTHALPY           -133.066073160536 Eh   |
          | TOTAL FREE ENERGY        -133.180072545434 Eh   |
          | GRADIENT NORM               0.000097056256 Eh/α |
           -------------------------------------------------

 * finished run on 2025/09/09 at 05:40:34.086
