   * xtb version 6.7.1 (edcfbbe) compiled by 'albert@albert-system' on 2024-07-22

   ID    Z sym.   atoms
    1    7 N      1, 5, 13, 22, 30, 39, 47
    2    6 C      2-4, 6-12, 14-21, 23-29, 31-38, 40-46, 48-53
    3    1 H      54-82

          program call               : xtb data2507/gas/iTPBI-CN/iTPBI-CN.xyz --gfn 2 --ohess vtight --parallel 40 --molden --ceasefiles --namespace data2507/gas/iTPBI-CN/iTPBI-CN_gas_S0_preOpt
          :  Hamiltonian                  GFN2-xTB          :
 * total energy  :  -133.7859311 Eh     change       -0.3513406E-08 Eh
 * total energy  :  -133.8012762 Eh     change       -0.1534507E-01 Eh
 * total energy  :  -133.8057179 Eh     change       -0.4441720E-02 Eh
 * total energy  :  -133.8072379 Eh     change       -0.1519932E-02 Eh
 * total energy  :  -133.8084690 Eh     change       -0.1231135E-02 Eh
 * total energy  :  -133.8092415 Eh     change       -0.7724527E-03 Eh
 * total energy  :  -133.8099165 Eh     change       -0.6750129E-03 Eh
 * total energy  :  -133.8106441 Eh     change       -0.7276565E-03 Eh
 * total energy  :  -133.8112788 Eh     change       -0.6346445E-03 Eh
 * total energy  :  -133.8117073 Eh     change       -0.4285608E-03 Eh
 * total energy  :  -133.8128229 Eh     change       -0.6347118E-06 Eh
 * total energy  :  -133.8128235 Eh     change       -0.5946690E-06 Eh
 * total energy  :  -133.8128242 Eh     change       -0.6635264E-06 Eh
 * total energy  :  -133.8128249 Eh     change       -0.6975962E-06 Eh
 * total energy  :  -133.8128255 Eh     change       -0.5836402E-06 Eh
 * total energy  :  -133.8128259 Eh     change       -0.4863471E-06 Eh
 * total energy  :  -133.8128262 Eh     change       -0.2206932E-06 Eh
 * total energy  :  -133.8128266 Eh     change       -0.4436487E-06 Eh
 * total energy  :  -133.8128267 Eh     change       -0.9800834E-07 Eh
   *** GEOMETRY OPTIMIZATION CONVERGED AFTER 46 ITERATIONS ***

 final structure:
================
82
 xtb: 6.7.1 (edcfbbe)
N            2.62613465041287        2.02985846500050        2.09641421688364
C            1.95398190933477        1.45388799067424        1.36783430424793
C            1.06711908105290        0.73011368709509        0.54107063749179
C            0.03532217678890        1.40217498650534       -0.14126016895190
N           -0.01734970412727        2.79417476929678       -0.11922225150638
C            1.01764910761417        3.68783045583420       -0.36610154419018
C            2.30537360779982        3.29252357422148       -0.91650418300126
C            2.40805963396413        2.29193147011213       -1.88129257048696
C            3.64167955425936        1.97203733152275       -2.41921037289487
C            4.77990103065776        2.64072442426261       -1.99910903342276
C            4.68061689002122        3.64320651086990       -1.04734786491387
C            3.45109131186258        3.97509012866385       -0.51292950686222
N            0.67613921542340        4.92153510800885       -0.14723632898821
C           -0.62881593437448        4.89706762981928        0.26547457419173
C           -1.47579510625921        5.93563739503770        0.63315886322418
C           -2.76223200997741        5.60942673591353        1.00970572506585
C           -3.20558490615007        4.28660631137302        1.03225142655115
C           -2.38021180459721        3.23877188123652        0.67282616396328
C           -1.09413232200517        3.56234518159210        0.27928642023460
C           -0.93267989412758        0.67868189116139       -0.81989872606064
C           -0.86648453709322       -0.71259100350837       -0.85525226306666
N           -1.82793117336516       -1.43305236036366       -1.56460462715553
C           -3.20550100296307       -1.28431105746561       -1.51221025571518
C           -3.88590689922426       -0.48896464070762       -0.50120628306700
C           -3.41990981937165       -0.43857661140748        0.81157429108947
C           -4.11100852326763        0.28869444001045        1.76352298348514
C           -5.26644368501476        0.97129940299277        1.41832921585721
C           -5.73934952021286        0.91442300732141        0.11701456317245
C           -5.05866881978845        0.18402890564656       -0.83829553851275
N           -3.82252566705740       -2.00073101917951       -2.40497850959236
C           -2.85282908986683       -2.66926421277335       -3.10211473430398
C           -2.96164377456067       -3.55669943606657       -4.16642556024395
C           -1.79514422613150       -4.07428178612536       -4.68886223358895
C           -0.54413374640496       -3.71960197434014       -4.18148265079989
C           -0.41281207076752       -2.84034013953553       -3.12427458560694
C           -1.58123362359601       -2.33210086270787       -2.58280592403836
C            0.17610422326873       -1.38263549552897       -0.22608210429151
C            1.13623535910734       -0.67102854935072        0.48253383905459
N            2.14718676717113       -1.35962839412853        1.14883222266504
C            1.99556319715770       -2.48049585937719        1.95535615648581
C            0.70004127598170       -2.98789072509009        2.38518902425439
C           -0.33909632601899       -2.13062712728265        2.74357587095159
C           -1.54842373980977       -2.64929302833414        3.16797720223688
C           -1.73625037482322       -4.02013839622136        3.23422317199440
C           -0.69994759066899       -4.87612853569335        2.89835934613457
C            0.51481607825850       -4.36547080088062        2.48260807867342
N            3.13133950042382       -2.98708529913689        2.32905532952397
C            4.10731183856098       -2.20354597032239        1.77307089767273
C            5.49105747761841       -2.30847681266439        1.84540027981181
C            6.23907769775307       -1.37653808457552        1.15697349791269
C            5.63775838300292       -0.36877297171816        0.40215998842210
C            4.26491639670989       -0.24694028190146        0.31569541747561
C            3.50971162560190       -1.16342072252631        1.02508831750159
H            1.52265602612681        1.77871469529033       -2.23183135326853
H            3.71359398352046        1.19777367472576       -3.16938131118768
H            5.74061859755298        2.38237151787060       -2.41899251175414
H            5.56588824995247        4.16877533996956       -0.72306681290723
H            3.35440397238821        4.75467690552741        0.22504701027692
H           -1.12462176163592        6.95439512387348        0.62301809929586
H           -3.44579219125438        6.39336709198520        1.29961642370004
H           -4.21894027974421        4.07218712675329        1.33693137273182
H           -2.72860815097954        2.21798202451120        0.70236597451370
H           -1.72299397722531        1.19664132921258       -1.34121214383986
H           -2.53359289854973       -0.98916718143690        1.09313274149079
H           -3.74609177979506        0.32541903563694        2.77977017492628
H           -5.79927341802942        1.53994659376941        2.16565368108265
H           -6.64380649007729        1.43898047137756       -0.15207095281608
H           -5.41941591150586        0.12023861372412       -1.85282054162977
H           -3.92970528006767       -3.81742937191434       -4.56174604910878
H           -1.84403883114307       -4.76693590910354       -5.51562032824279
H            0.34357418628680       -4.14243949815889       -4.62739118416832
H            0.55904676952547       -2.56211993232514       -2.74402261155241
H            0.22631941487873       -2.45994202654536       -0.26280574889053
H           -0.19088546541209       -1.05961108720146        2.72150926083418
H           -2.34755369904094       -1.98283758435116        3.45758138023863
H           -2.68574682314382       -4.41827337702194        3.55904606133311
H           -0.83920206575658       -5.94475429235835        2.96418327307277
H            1.33564158564468       -5.01734171031684        2.22752007824201
H            5.94812454305823       -3.09739702051007        2.42006532935727
H            7.31694049843744       -1.42729196812289        1.19506246248374
H            6.25788982967457        0.33749661382657       -0.12859197844757
H            3.81342826811585        0.53313427606003       -0.27680300075547

          :  Hamiltonian                  GFN2-xTB          :
         :: gradient norm              0.000136581702 Eh/a0 ::
         :: HOMO-LUMO gap              2.392993743388 eV    ::
         :: SCC energy              -136.279737206607 Eh    ::
         :: -> dispersion             -0.131500042464 Eh    ::
         :: repulsion energy           2.466910497792 Eh    ::

    * Orbital Energies and Occupations

         #    Occupation            Energy/Eh            Energy/eV
      -------------------------------------------------------------
         1        2.0000           -0.7121813             -19.3794
       ...           ...                  ...                  ...
       112        2.0000           -0.4236577             -11.5283
       113        2.0000           -0.4229698             -11.5096
       114        2.0000           -0.4222660             -11.4904
       115        2.0000           -0.4176232             -11.3641
       116        2.0000           -0.3984075             -10.8412
       117        2.0000           -0.3958173             -10.7707
       118        2.0000           -0.3944962             -10.7348
       119        2.0000           -0.3935270             -10.7084
       120        2.0000           -0.3914684             -10.6524
       121        2.0000           -0.3907482             -10.6328
       122        2.0000           -0.3903218             -10.6212
       123        2.0000           -0.3883478             -10.5675
       124        2.0000           -0.3876526             -10.5486 (HOMO)
       125                         -0.2997120              -8.1556 (LUMO)
       126                         -0.2804623              -7.6318
       127                         -0.2721841              -7.4065
       128                         -0.2679472              -7.2912
       129                         -0.2622842              -7.1371
       130                         -0.2423408              -6.5944
       131                         -0.2403392              -6.5400
       132                         -0.2363547              -6.4315
       133                         -0.2310006              -6.2858
       134                         -0.2272082              -6.1827
       135                         -0.2270622              -6.1787
       ...                                ...                  ...
       241                          1.1546479              31.4196
      -------------------------------------------------------------
                  HL-Gap            0.0879407 Eh            2.3930 eV

     #   Z          covCN         q      C6AA      α(0)
     1   7 N        0.911    -0.227    25.969     7.370
     2   6 C        1.909     0.118    28.192     8.575
     3   6 C        2.975    -0.015    28.374     8.737
     4   6 C        2.915     0.079    26.239     8.400
     5   7 N        2.826    -0.055    22.294     7.013
     6   6 C        3.171     0.140    24.605     8.103
     7   6 C        2.975     0.003    27.952     8.672
     8   6 C        2.923    -0.033    28.816     8.803
     9   6 C        2.919    -0.028    28.691     8.784
    10   6 C        2.920    -0.025    28.623     8.773
    11   6 C        2.919    -0.022    28.560     8.764
    12   6 C        2.926    -0.020    28.501     8.755
    13   7 N        1.886    -0.276    28.015     7.847
    14   6 C        3.191     0.070    25.969     8.312
    15   6 C        2.911    -0.039    28.966     8.825
    16   6 C        2.923    -0.036    28.908     8.817
    17   6 C        2.927    -0.034    28.859     8.810
    18   6 C        2.908    -0.052    29.296     8.875
    19   6 C        3.079     0.035    27.130     8.539
    20   6 C        2.923    -0.060    29.489     8.905
    21   6 C        2.910     0.077    26.281     8.406
    22   7 N        2.827    -0.052    22.242     7.005
    23   6 C        3.174     0.136    24.673     8.113
    24   6 C        2.975     0.003    27.965     8.674
    25   6 C        2.923    -0.033    28.813     8.803
    26   6 C        2.919    -0.026    28.645     8.777
    27   6 C        2.919    -0.025    28.623     8.773
    28   6 C        2.919    -0.024    28.612     8.772
    29   6 C        2.926    -0.025    28.624     8.774
    30   7 N        1.886    -0.280    28.121     7.861
    31   6 C        3.192     0.068    25.993     8.315
    32   6 C        2.911    -0.039    28.978     8.827
    33   6 C        2.923    -0.037    28.914     8.818
    34   6 C        2.927    -0.034    28.854     8.809
    35   6 C        2.908    -0.050    29.238     8.866
    36   6 C        3.080     0.034    27.148     8.542
    37   6 C        2.924    -0.060    29.502     8.907
    38   6 C        2.915     0.079    26.243     8.400
    39   7 N        2.826    -0.054    22.276     7.010
    40   6 C        3.172     0.137    24.673     8.114
    41   6 C        2.975     0.003    27.961     8.674
    42   6 C        2.922    -0.031    28.773     8.797
    43   6 C        2.919    -0.027    28.687     8.783
    44   6 C        2.920    -0.026    28.655     8.778
    45   6 C        2.919    -0.025    28.624     8.773
    46   6 C        2.926    -0.025    28.639     8.776
    47   7 N        1.885    -0.277    28.041     7.850
    48   6 C        3.192     0.069    25.975     8.312
    49   6 C        2.911    -0.039    28.970     8.826
    50   6 C        2.923    -0.035    28.880     8.813
    51   6 C        2.928    -0.032    28.792     8.800
    52   6 C        2.908    -0.047    29.167     8.856
    53   6 C        3.077     0.037    27.090     8.533
    54   1 H        0.925     0.019     2.748     2.592
    55   1 H        0.926     0.034     2.537     2.491
    56   1 H        0.926     0.038     2.474     2.460
    57   1 H        0.926     0.044     2.392     2.419
    58   1 H        0.926     0.061     2.193     2.316
    59   1 H        0.926     0.051     2.312     2.378
    60   1 H        0.926     0.037     2.483     2.464
    61   1 H        0.926     0.034     2.536     2.490
    62   1 H        0.926     0.025     2.661     2.551
    63   1 H        0.926     0.056     2.244     2.342
    64   1 H        0.926     0.025     2.652     2.547
    65   1 H        0.926     0.034     2.530     2.487
    66   1 H        0.926     0.039     2.467     2.456
    67   1 H        0.926     0.041     2.430     2.438
    68   1 H        0.926     0.054     2.274     2.358
    69   1 H        0.926     0.050     2.326     2.385
    70   1 H        0.926     0.038     2.482     2.464
    71   1 H        0.926     0.036     2.502     2.473
    72   1 H        0.926     0.025     2.654     2.547
    73   1 H        0.926     0.056     2.244     2.342
    74   1 H        0.925     0.022     2.703     2.571
    75   1 H        0.926     0.036     2.503     2.474
    76   1 H        0.926     0.039     2.461     2.453
    77   1 H        0.926     0.041     2.429     2.437
    78   1 H        0.926     0.053     2.279     2.361
    79   1 H        0.926     0.050     2.316     2.380
    80   1 H        0.926     0.039     2.467     2.456
    81   1 H        0.926     0.037     2.495     2.470
    82   1 H        0.926     0.024     2.666     2.554

molecular dipole:
                 x           y           z       tot (Debye)
 q only:       -0.637      -0.486      -0.499
   full:       -0.849      -0.705      -0.854       3.546

 projected vibrational frequencies (cm⁻¹)
eigval :       -0.00    -0.00    -0.00     0.00     0.00     0.00
eigval :       14.63    18.49    21.54    25.37    31.36    33.04
eigval :       37.03    44.51    55.26    58.25    62.12    63.73
eigval :       70.23    72.49    79.71    88.78    91.02    92.38
eigval :      109.51   127.77   149.78   152.43   171.60   185.55
eigval :      188.01   194.38   209.45   229.37   237.75   249.11
eigval :      258.90   264.10   286.67   287.40   289.26   297.61
eigval :      302.87   309.03   319.92   349.42   357.93   360.70
eigval :      371.28   371.64   373.43   376.41   407.03   408.92
eigval :      411.34   418.22   474.33   477.42   484.42   494.45
eigval :      518.59   533.53   538.55   540.36   542.66   544.15
eigval :      545.49   550.55   563.04   584.08   586.08   587.06
eigval :      590.47   603.37   612.57   625.39   630.53   649.91
eigval :      652.64   654.55   665.35   669.13   670.35   672.29
eigval :      674.45   675.05   680.34   685.92   706.11   708.86
eigval :      709.82   711.69   761.30   763.50   764.10   774.51
eigval :      775.30   775.96   788.24   819.72   849.17   865.00
eigval :      865.63   866.06   868.37   869.54   873.24   876.36
eigval :      878.06   879.88   883.41   887.01   890.54   891.79
eigval :      901.53   902.20   902.96   904.38   904.81   907.27
eigval :      923.19   923.71   923.88   928.63   929.31   931.31
eigval :      933.21   933.94   936.49   955.11   979.62   980.17
eigval :      994.46  1050.79  1059.80  1062.35  1064.55  1076.31
eigval :     1080.97  1082.08  1084.78  1110.85  1119.13  1119.82
eigval :     1120.68  1129.13  1130.82  1131.57  1137.45  1166.93
eigval :     1170.76  1173.59  1176.74  1179.72  1180.28  1181.60
eigval :     1191.91  1192.11  1197.08  1198.19  1202.38  1204.35
eigval :     1221.91  1249.65  1252.48  1269.93  1278.13  1278.68
eigval :     1280.82  1289.26  1290.41  1291.67  1300.35  1303.92
eigval :     1307.11  1314.69  1319.62  1320.13  1320.81  1332.29
eigval :     1345.48  1360.96  1361.59  1363.15  1406.52  1409.34
eigval :     1410.00  1428.12  1429.16  1429.46  1441.97  1445.67
eigval :     1457.78  1464.43  1464.79  1465.46  1484.49  1484.80
eigval :     1486.05  1529.35  1545.87  1547.96  1550.57  1563.00
eigval :     1579.93  1580.36  1580.87  1589.05  1590.61  1590.86
eigval :     1596.70  1597.58  1598.01  1617.30  1618.19  1619.08
eigval :     2365.56  3063.62  3067.13  3074.56  3074.92  3078.91
eigval :     3081.73  3082.72  3082.96  3084.61  3085.49  3087.21
eigval :     3087.50  3087.61  3091.98  3094.33  3096.03  3096.64
eigval :     3096.79  3097.13  3101.97  3105.92  3106.09  3106.75
eigval :     3107.57  3108.70  3112.89  3113.77  3114.31  3118.00

   temp. (K)  partition function   enthalpy   heat capacity  entropy
                                   cal/mol     cal/K/mol   cal/K/mol   J/K/mol
 298.15  VIB  0.633E+19            24322.539    152.010    151.947
         ROT  0.706E+08              888.752      2.981     38.895
         INT  0.447E+27            25211.292    154.990    190.842
         TR   0.171E+29             1481.254      4.968     45.410
         TOT                       26692.5456   159.9586   236.2522   988.4791

       T/K    H(0)-H(T)+PV         H(T)/Eh          T*S/Eh         G(T)/Eh
   ------------------------------------------------------------------------
    298.15    0.425373E-01    0.658257E+00    0.112251E+00    0.546006E+00
   ------------------------------------------------------------------------

         :::::::::::::::::::::::::::::::::::::::::::::::::::::
         ::                  THERMODYNAMIC                  ::
         :::::::::::::::::::::::::::::::::::::::::::::::::::::
         :: total free energy        -133.266820846985 Eh   ::
         ::.................................................::
         :: total energy             -133.812826708803 Eh   ::
         :: zero point energy           0.615719610339 Eh   ::
         :: G(RRHO) w/o ZPVE           -0.069713748522 Eh   ::
         :: G(RRHO) contrib.            0.546005861818 Eh   ::
         :::::::::::::::::::::::::::::::::::::::::::::::::::::

           -------------------------------------------------
          | TOTAL ENERGY             -133.812826708803 Eh   |
          | TOTAL ENTHALPY           -133.154569819513 Eh   |
          | TOTAL FREE ENERGY        -133.266820846985 Eh   |
          | GRADIENT NORM               0.000136646467 Eh/α |
          | HOMO-LUMO GAP               2.392987448114 eV   |
           -------------------------------------------------

 * finished run on 2025/09/09 at 05:36:07.176
