   * xtb version 6.7.1 (edcfbbe) compiled by 'albert@albert-system' on 2024-07-22

   ID    Z sym.   atoms
    1    7 N      1, 5, 13, 22, 30, 39, 47
    2    6 C      2-4, 6-12, 14-21, 23-29, 31-38, 40-46, 48-53
    3    1 H      54-82

          program call               : xtb data2507/gas/iTPBI-CN/iTPBI-CN_gas_S0_crest.xyz --gfn 2 --ohess vtight --parallel 40 --molden --ceasefiles --namespace data2507/gas/iTPBI-CN/iTPBI-CN_gas_S0_finalOpt
          :  Hamiltonian                  GFN2-xTB          :
 * total energy  :  -133.8128087 Eh     change       -0.2738744E-08 Eh
 * total energy  :  -133.8128096 Eh     change       -0.9689007E-06 Eh
 * total energy  :  -133.8128107 Eh     change       -0.1031804E-05 Eh
 * total energy  :  -133.8128129 Eh     change       -0.2183281E-05 Eh
 * total energy  :  -133.8128126 Eh     change        0.2545435E-06 Eh
 * total energy  :  -133.8128140 Eh     change       -0.1434630E-05 Eh
 * total energy  :  -133.8128148 Eh     change       -0.7980931E-06 Eh
 * total energy  :  -133.8128157 Eh     change       -0.8605365E-06 Eh
 * total energy  :  -133.8128166 Eh     change       -0.8544067E-06 Eh
 * total energy  :  -133.8128174 Eh     change       -0.8404929E-06 Eh
 * total energy  :  -133.8128207 Eh     change       -0.8264061E-06 Eh
 * total energy  :  -133.8128215 Eh     change       -0.7819209E-06 Eh
 * total energy  :  -133.8128221 Eh     change       -0.5928736E-06 Eh
 * total energy  :  -133.8128224 Eh     change       -0.3662609E-06 Eh
 * total energy  :  -133.8128227 Eh     change       -0.2496064E-06 Eh
 * total energy  :  -133.8128229 Eh     change       -0.2258614E-06 Eh
 * total energy  :  -133.8128232 Eh     change       -0.2634523E-06 Eh
 * total energy  :  -133.8128235 Eh     change       -0.3430848E-06 Eh
 * total energy  :  -133.8128235 Eh     change       -0.1934666E-08 Eh
   *** GEOMETRY OPTIMIZATION CONVERGED AFTER 22 ITERATIONS ***

 final structure:
================
82
 xtb: 6.7.1 (edcfbbe)
N            3.26919754145972        1.13265814370218        1.68267307763966
C            2.36916650894855        0.79298728277739        1.05902645026339
C            1.21162327636123        0.37229996205370        0.36836786702777
C            0.31020747000270        1.32592556021536       -0.14141801003319
N            0.63342733013526        2.68024228869442       -0.09336063780678
C            1.82307078041368        3.28522162077451       -0.48007900496985
C            2.86952554259461        2.59838986681036       -1.22207035045462
C            2.56730561889648        1.65711120284528       -2.20444670760413
C            3.58413357043832        1.05697531490666       -2.92521386551726
C            4.90592521146464        1.38497555597587       -2.67145752748975
C            5.21004659868233        2.32791823550193       -1.70240343918758
C            4.19984820345991        2.93877898714360       -0.98565746804232
N            1.85534042888805        4.55209719454954       -0.19619515872765
C            0.66201824884236        4.84682633373872        0.40620357305087
C            0.18126713008911        6.04958269134524        0.90964360312481
C           -1.07972423736152        6.05071131699036        1.46910718051310
C           -1.85045336288907        4.88974091001077        1.53997758996417
C           -1.39147006706369        3.68322331138139        1.04799203174409
C           -0.13401343320559        3.68054674270878        0.47149249645902
C           -0.90189753616741        0.91747450366429       -0.67542797515302
C           -1.21533527084648       -0.43869088804276       -0.73731574740261
N           -2.42414374397966       -0.84411456087734       -1.30396640582756
C           -3.69011396286139       -0.34089099758241       -1.04593375235522
C           -3.98420107972052        0.55184211216213        0.06504812337196
C           -3.34529644366510        0.40730722954843        1.29548420179387
C           -3.67621638945544        1.24037868147512        2.34871079676860
C           -4.64044999874793        2.22228236604598        2.18668447390889
C           -5.28586193011065        2.36194364404158        0.96839280029711
C           -4.96638524137775        1.52867005703644       -0.08659420082749
N           -4.59493507729181       -0.82204947361811       -1.84638428240678
C           -3.94703864413594       -1.68501924465159       -2.68830097624721
C           -4.43726777323832       -2.45584095434665       -3.73597516378867
C           -3.53706240847304       -3.23453542803896       -4.43226655577694
C           -2.17868537350491       -3.24876226760948       -4.11157057983465
C           -1.67017560245502       -2.49128230473956       -3.07440982687245
C           -2.57204180349684       -1.72203749484654       -2.35915581071060
C           -0.31151084147792       -1.39028593914733       -0.27974575507684
C            0.89470502609799       -0.99291333281115        0.28362472328992
N            1.76979820939679       -1.95604965448944        0.78058682789219
C            1.44248076159809       -3.03660078383532        1.58993034561735
C            0.13578436217292       -3.20487737369040        2.21007697158181
C           -0.57248933838901       -2.12232944029666        2.72932590360748
C           -1.80102258325541       -2.32389948598657        3.33070280924002
C           -2.33668800911692       -3.59851545248681        3.41600541591831
C           -1.62738555954849       -4.68019651823714        2.91967805675080
C           -0.39462027920660       -4.48817897811512        2.32582009875796
N            2.44251841391561       -3.84329525066347        1.77845145703464
C            3.50068983166222       -3.31793778829132        1.08578747831473
C            4.80047567316421       -3.78790664971362        0.94189410723723
C            5.66205947272537       -3.05260738232637        0.15512753873183
C            5.24975197994507       -1.88460529292364       -0.48728711419865
C            3.96282739781494       -1.40050088521441       -0.35889335465933
C            3.10154486279118       -2.12030036205072        0.44952069805518
H            1.53758198377082        1.40978712128975       -2.42521135081190
H            3.34252537932442        0.33081735642444       -3.68794253590970
H            5.69523842728725        0.90884348647909       -3.23387329219037
H            6.23920595292645        2.58849493908685       -1.50743907717593
H            4.41743297968873        3.67731485621242       -0.23137972062868
H            0.78524820461959        6.94071180899031        0.86076734663623
H           -1.48321607742263        6.96947791822844        1.86776372398900
H           -2.83136424504471        4.93113167753638        1.98918695975222
H           -1.99055884625717        2.78840649907688        1.11589107675346
H           -1.59087110681538        1.65072396125497       -1.06569448873197
H           -2.61040376230989       -0.37262527710990        1.43589260294968
H           -3.17848558083391        1.12517765421620        3.30067825351424
H           -4.89152932902026        2.87150334869257        3.01205399729974
H           -6.04295570945384        3.12125521434992        0.84243827049208
H           -5.46729771702763        1.61664221822821       -1.03781948815947
H           -5.48513079197025       -2.43145529684302       -3.98655908577994
H           -3.88476927189408       -3.84591405506786       -5.25141579429112
H           -1.50813779914667       -3.86678404547478       -4.68955388983320
H           -0.61610433293819       -2.49906785867827       -2.83908666003557
H           -0.55675273003507       -2.43966739227570       -0.33575885424687
H           -0.14834218086746       -1.12824998110967        2.69211178743207
H           -2.34161950639001       -1.48498542678785        3.74376449295596
H           -3.30004938476731       -3.74767293908027        3.87996378882634
H           -2.03596121432424       -5.67640354538275        2.99922133989012
H            0.17572268449192       -5.32030078798997        1.94367634619190
H            5.10789910612806       -4.69775870224033        1.43097717096999
H            6.68013408397954       -3.38797216355733        0.02523410331177
H            5.95211787969824       -1.34084437537383       -1.10055198670932
H            3.65580182018401       -0.49952984156074       -0.86627592774896

          :  Hamiltonian                  GFN2-xTB          :
         :: gradient norm              0.000058547600 Eh/a0 ::
         :: HOMO-LUMO gap              2.392811231753 eV    ::
         :: SCC energy              -136.279722635202 Eh    ::
         :: -> dispersion             -0.131478687574 Eh    ::
         :: repulsion energy           2.466899111233 Eh    ::

    * Orbital Energies and Occupations

         #    Occupation            Energy/Eh            Energy/eV
      -------------------------------------------------------------
         1        2.0000           -0.7121853             -19.3795
       ...           ...                  ...                  ...
       112        2.0000           -0.4236799             -11.5289
       113        2.0000           -0.4229498             -11.5090
       114        2.0000           -0.4222475             -11.4899
       115        2.0000           -0.4175577             -11.3623
       116        2.0000           -0.3984214             -10.8416
       117        2.0000           -0.3958283             -10.7710
       118        2.0000           -0.3945088             -10.7351
       119        2.0000           -0.3935294             -10.7085
       120        2.0000           -0.3914724             -10.6525
       121        2.0000           -0.3907055             -10.6316
       122        2.0000           -0.3903247             -10.6213
       123        2.0000           -0.3883161             -10.5666
       124        2.0000           -0.3876613             -10.5488 (HOMO)
       125                         -0.2997271              -8.1560 (LUMO)
       126                         -0.2804706              -7.6320
       127                         -0.2721578              -7.4058
       128                         -0.2679677              -7.2918
       129                         -0.2623029              -7.1376
       130                         -0.2423606              -6.5950
       131                         -0.2403162              -6.5393
       132                         -0.2363129              -6.4304
       133                         -0.2310297              -6.2866
       134                         -0.2271874              -6.1821
       135                         -0.2270256              -6.1777
       ...                                ...                  ...
       241                          1.1546754              31.4203
      -------------------------------------------------------------
                  HL-Gap            0.0879342 Eh            2.3928 eV

     #   Z          covCN         q      C6AA      α(0)
     1   7 N        0.911    -0.227    25.968     7.370
     2   6 C        1.909     0.118    28.192     8.575
     3   6 C        2.975    -0.015    28.373     8.737
     4   6 C        2.915     0.079    26.239     8.400
     5   7 N        2.826    -0.055    22.294     7.013
     6   6 C        3.171     0.140    24.605     8.103
     7   6 C        2.975     0.003    27.951     8.672
     8   6 C        2.923    -0.033    28.815     8.803
     9   6 C        2.919    -0.028    28.690     8.784
    10   6 C        2.920    -0.025    28.623     8.773
    11   6 C        2.919    -0.022    28.560     8.764
    12   6 C        2.926    -0.020    28.500     8.755
    13   7 N        1.886    -0.276    28.016     7.847
    14   6 C        3.191     0.070    25.970     8.312
    15   6 C        2.911    -0.039    28.966     8.825
    16   6 C        2.923    -0.036    28.908     8.817
    17   6 C        2.927    -0.035    28.859     8.810
    18   6 C        2.908    -0.052    29.296     8.875
    19   6 C        3.079     0.035    27.131     8.540
    20   6 C        2.923    -0.060    29.489     8.905
    21   6 C        2.910     0.077    26.281     8.406
    22   7 N        2.827    -0.052    22.242     7.005
    23   6 C        3.174     0.136    24.672     8.112
    24   6 C        2.975     0.003    27.965     8.674
    25   6 C        2.923    -0.033    28.811     8.802
    26   6 C        2.919    -0.026    28.644     8.777
    27   6 C        2.919    -0.025    28.623     8.773
    28   6 C        2.919    -0.024    28.611     8.772
    29   6 C        2.926    -0.025    28.624     8.774
    30   7 N        1.886    -0.280    28.121     7.861
    31   6 C        3.192     0.068    25.992     8.315
    32   6 C        2.911    -0.039    28.977     8.827
    33   6 C        2.923    -0.037    28.914     8.818
    34   6 C        2.927    -0.034    28.854     8.809
    35   6 C        2.908    -0.050    29.238     8.866
    36   6 C        3.080     0.034    27.148     8.542
    37   6 C        2.924    -0.060    29.501     8.907
    38   6 C        2.915     0.079    26.242     8.400
    39   7 N        2.826    -0.054    22.278     7.010
    40   6 C        3.172     0.137    24.674     8.114
    41   6 C        2.975     0.003    27.961     8.674
    42   6 C        2.922    -0.031    28.774     8.797
    43   6 C        2.919    -0.027    28.687     8.783
    44   6 C        2.920    -0.026    28.655     8.778
    45   6 C        2.919    -0.025    28.624     8.773
    46   6 C        2.926    -0.025    28.639     8.776
    47   7 N        1.885    -0.277    28.041     7.850
    48   6 C        3.192     0.069    25.975     8.312
    49   6 C        2.911    -0.039    28.970     8.826
    50   6 C        2.923    -0.035    28.880     8.813
    51   6 C        2.928    -0.032    28.793     8.800
    52   6 C        2.908    -0.047    29.169     8.856
    53   6 C        3.077     0.037    27.089     8.533
    54   1 H        0.925     0.019     2.748     2.592
    55   1 H        0.926     0.034     2.537     2.491
    56   1 H        0.926     0.038     2.474     2.460
    57   1 H        0.926     0.044     2.392     2.418
    58   1 H        0.926     0.061     2.193     2.316
    59   1 H        0.926     0.051     2.312     2.378
    60   1 H        0.926     0.037     2.482     2.464
    61   1 H        0.926     0.034     2.536     2.490
    62   1 H        0.926     0.025     2.660     2.551
    63   1 H        0.926     0.056     2.243     2.342
    64   1 H        0.926     0.025     2.653     2.547
    65   1 H        0.926     0.034     2.530     2.487
    66   1 H        0.926     0.039     2.467     2.456
    67   1 H        0.926     0.041     2.430     2.438
    68   1 H        0.926     0.054     2.275     2.359
    69   1 H        0.926     0.050     2.326     2.385
    70   1 H        0.926     0.038     2.482     2.464
    71   1 H        0.926     0.036     2.502     2.473
    72   1 H        0.926     0.025     2.653     2.547
    73   1 H        0.926     0.056     2.244     2.342
    74   1 H        0.925     0.022     2.703     2.571
    75   1 H        0.926     0.036     2.504     2.475
    76   1 H        0.926     0.039     2.461     2.453
    77   1 H        0.926     0.041     2.430     2.437
    78   1 H        0.926     0.053     2.278     2.360
    79   1 H        0.926     0.050     2.316     2.380
    80   1 H        0.926     0.039     2.467     2.456
    81   1 H        0.926     0.037     2.495     2.470
    82   1 H        0.926     0.024     2.667     2.554

molecular dipole:
                 x           y           z       tot (Debye)
 q only:       -0.809      -0.271      -0.401
   full:       -1.120      -0.409      -0.721       3.542

 projected vibrational frequencies (cm⁻¹)
eigval :       -0.00    -0.00    -0.00    -0.00     0.00     0.00
eigval :       14.65    18.41    21.54    25.38    31.35    33.05
eigval :       37.12    44.46    55.32    58.23    62.15    63.67
eigval :       70.28    72.51    79.75    88.45    90.93    92.43
eigval :      109.37   127.64   149.76   152.40   171.66   185.56
eigval :      187.95   194.42   209.55   229.39   237.67   249.01
eigval :      258.92   264.00   286.70   287.37   289.27   297.58
eigval :      302.82   309.06   320.08   349.31   357.92   360.71
eigval :      371.25   371.61   373.38   376.29   407.01   408.87
eigval :      411.33   418.22   474.38   477.41   484.42   494.49
eigval :      518.55   533.53   538.57   540.37   542.66   544.14
eigval :      545.49   550.54   563.05   584.08   586.08   587.08
eigval :      590.50   603.36   612.54   625.39   630.63   649.89
eigval :      652.61   654.51   665.37   669.11   670.38   672.31
eigval :      674.47   675.02   680.32   685.99   706.11   708.86
eigval :      709.82   711.67   761.33   763.50   764.04   774.47
eigval :      775.31   775.93   788.16   819.77   849.22   865.02
eigval :      865.63   866.06   868.38   869.48   873.27   876.41
eigval :      878.01   879.80   883.42   887.05   890.51   891.79
eigval :      901.51   902.21   902.97   904.37   904.80   907.22
eigval :      923.16   923.69   923.89   928.65   929.29   931.29
eigval :      933.26   933.92   936.27   955.12   979.59   980.19
eigval :      994.45  1050.95  1059.85  1062.32  1064.54  1076.26
eigval :     1080.97  1082.10  1084.69  1110.82  1119.14  1119.82
eigval :     1120.62  1129.20  1130.79  1131.63  1137.44  1166.89
eigval :     1170.74  1173.62  1176.73  1179.73  1180.27  1181.58
eigval :     1191.83  1192.13  1197.09  1198.28  1202.33  1204.22
eigval :     1221.83  1249.71  1252.44  1269.89  1278.15  1278.66
eigval :     1280.78  1289.30  1290.49  1291.68  1300.33  1303.92
eigval :     1307.05  1314.73  1319.57  1320.19  1320.87  1332.28
eigval :     1345.49  1360.95  1361.62  1363.18  1406.53  1409.34
eigval :     1410.01  1428.11  1429.22  1429.47  1441.98  1445.66
eigval :     1457.76  1464.40  1464.80  1465.34  1484.53  1484.79
eigval :     1486.03  1529.36  1545.95  1547.91  1550.45  1563.04
eigval :     1579.94  1580.41  1580.85  1589.07  1590.58  1590.90
eigval :     1596.71  1597.56  1598.02  1617.29  1618.18  1619.06
eigval :     2365.57  3063.52  3067.38  3074.33  3074.95  3078.82
eigval :     3081.71  3082.49  3083.02  3084.55  3085.46  3087.15
eigval :     3087.45  3087.48  3092.13  3094.24  3096.01  3096.52
eigval :     3096.77  3097.17  3102.22  3105.78  3106.08  3106.68
eigval :     3107.54  3108.61  3112.96  3113.79  3114.27  3118.01

   temp. (K)  partition function   enthalpy   heat capacity  entropy
                                   cal/mol     cal/K/mol   cal/K/mol   J/K/mol
 298.15  VIB  0.637E+19            24323.479    152.011    151.961
         ROT  0.706E+08              888.752      2.981     38.896
         INT  0.450E+27            25212.231    154.992    190.856
         TR   0.171E+29             1481.254      4.968     45.410
         TOT                       26693.4854   159.9605   236.2665   988.5390

       T/K    H(0)-H(T)+PV         H(T)/Eh          T*S/Eh         G(T)/Eh
   ------------------------------------------------------------------------
    298.15    0.425388E-01    0.658253E+00    0.112258E+00    0.545996E+00
   ------------------------------------------------------------------------

         :::::::::::::::::::::::::::::::::::::::::::::::::::::
         ::                  THERMODYNAMIC                  ::
         :::::::::::::::::::::::::::::::::::::::::::::::::::::
         :: total free energy        -133.266827953764 Eh   ::
         ::.................................................::
         :: total energy             -133.812823523969 Eh   ::
         :: zero point energy           0.615714629782 Eh   ::
         :: G(RRHO) w/o ZPVE           -0.069719059577 Eh   ::
         :: G(RRHO) contrib.            0.545995570205 Eh   ::
         :::::::::::::::::::::::::::::::::::::::::::::::::::::

           -------------------------------------------------
          | TOTAL ENERGY             -133.812823523969 Eh   |
          | TOTAL ENTHALPY           -133.154570117569 Eh   |
          | TOTAL FREE ENERGY        -133.266827953764 Eh   |
          | GRADIENT NORM               0.000058505112 Eh/α |
          | HOMO-LUMO GAP               2.392811008859 eV   |
           -------------------------------------------------

 * finished run on 2025/09/09 at 05:40:19.448
