   * xtb version 6.7.1 (edcfbbe) compiled by 'albert@albert-system' on 2024-07-22

   ID    Z sym.   atoms
    1    6 C      1, 3-5, 7-11, 14-16, 18, 20-26, 28-30, 32-37, 39, 41-46
    2    8 O      2, 27
    3    7 N      6, 17, 19, 31, 38, 40
    4   34 Se     12, 13
    5    1 H      47-86

          program call               : xtb data2507/toluene/IQ-Se/IQ-Se_toluene_S0_finalOpt.xtbopt.xyz --gfn 2 --uhf 2 --gbsa toluene --ohess vtight --parallel 40 --molden --ceasefiles --namespace data2507/toluene/IQ-Se/IQ-Se_toluene_T1_preOpt
      * Solvation model:               GBSA
        Solvent                        toluene
        Solvent mass                       9.2140E+01 g/mol
          :  Hamiltonian                  GFN2-xTB          :
 * total energy  :  -129.5725962 Eh     change        0.5665905E-07 Eh
 * total energy  :  -129.5831998 Eh     change       -0.1060360E-01 Eh
 * total energy  :  -129.5843745 Eh     change       -0.1174713E-02 Eh
 * total energy  :  -129.5923381 Eh     change       -0.7963602E-02 Eh
 * total energy  :  -129.5816912 Eh     change        0.1064691E-01 Eh
 * total energy  :  -129.5938900 Eh     change       -0.1219881E-01 Eh
 * total energy  :  -129.5936289 Eh     change        0.2610807E-03 Eh
 * total energy  :  -129.5951586 Eh     change       -0.1529647E-02 Eh
 * total energy  :  -129.5955538 Eh     change       -0.3952500E-03 Eh
 * total energy  :  -129.5963606 Eh     change       -0.8067856E-03 Eh
 * total energy  :  -129.6021684 Eh     change       -0.5268721E-06 Eh
 * total energy  :  -129.6021687 Eh     change       -0.3070662E-06 Eh
 * total energy  :  -129.6021685 Eh     change        0.2561358E-06 Eh
 * total energy  :  -129.6021689 Eh     change       -0.4626418E-06 Eh
 * total energy  :  -129.6021690 Eh     change       -0.1051194E-06 Eh
 * total energy  :  -129.6021692 Eh     change       -0.1714891E-06 Eh
 * total energy  :  -129.6021694 Eh     change       -0.1994574E-06 Eh
 * total energy  :  -129.6021696 Eh     change       -0.1913772E-06 Eh
 * total energy  :  -129.6021697 Eh     change       -0.9280365E-07 Eh
   *** GEOMETRY OPTIMIZATION CONVERGED AFTER 50 ITERATIONS ***

 final structure:
================
86
 xtb: 6.7.1 (edcfbbe)
C            2.95049559627903        3.92171110706925       -0.27888566371595
O            3.08774361767643        2.51624196467312       -0.19714823688667
C            2.22942469238708        1.68005536662999       -0.81681055865076
C            1.08214933020605        2.06244129523982       -1.51771705787728
C            0.69824489700863        3.39300898602689       -1.75756373475215
N            0.27233910444086        4.43174752868219       -2.01288055466216
C            0.18698842933902        1.08237824184309       -2.03563711318844
C           -1.00439449658604        1.50386575763619       -2.83608213822320
C            0.41621469650089       -0.23388105731782       -1.75667232703887
C            1.54979004403906       -0.65924613922576       -1.04443512007634
C            1.70667253586853       -2.01461210841038       -0.63531294322406
Se           0.64125101980093       -3.38188031075172       -1.31410351976400
Se          -1.01445830263306       -3.26022406691729        1.53906270948097
C           -1.90632043752727       -1.82393467508977        0.75710826460361
C           -2.93537096112423       -2.04069572060519       -0.17842433913764
C           -3.18837552947337       -3.37560046587407       -0.79125884473750
N           -3.78301110650471       -1.08224414175289       -0.48694000986238
C           -3.67569932543796        0.14679684914693        0.02308493332629
N           -4.78964296987894        0.89172527781147       -0.04097438790170
C           -5.91069624269603        0.37527209821372       -0.81103143053594
C           -6.95313833223655        1.46577980838836       -1.01067409053749
C           -7.55775290215004        1.88390801217821        0.33433754385924
C           -6.51408463163260        1.74135549113547        1.44732907927687
C           -5.10588468839618        1.95203515994756        0.89166042137224
C           -2.42931907904838        0.56700265610261        0.61023682824135
C           -1.97229359395602        1.90869663481785        0.66618399894216
O           -2.71358512915737        2.78829878767713       -0.03821710844266
C           -2.47353092201942        4.18237757128861        0.00369480048518
C           -0.79461515347074        2.20258447133587        1.35967105954831
C           -0.26319004316468        3.49403414512283        1.51002457389775
N            0.27178442816550        4.49713798397022        1.69252666301063
C           -0.02337445337084        1.16128045270248        1.95141265439827
C            1.21087243331543        1.49561382969541        2.72786735960265
C           -0.40565866804630       -0.13563124955029        1.76151214582156
C           -1.58027076335551       -0.47346556489561        1.06849332369108
C            2.70666829048767       -2.28533304696257        0.31600248365951
C            2.79855232544794       -3.58845324292905        1.03333820258495
N            3.66991449585447       -1.41849825961178        0.54584840973617
C            3.71951824218700       -0.22979314736515       -0.05595291005570
N            4.92238871557781        0.37478631164187       -0.05030435465211
C            5.99511996289664       -0.18469666268315        0.75151545757138
C            6.83273257527754        0.94160624069494        1.35426045381202
C            7.39793199787683        1.82914206478807        0.25078496381874
C            6.24571323472848        2.36628380053568       -0.59122243160935
C            5.41271258916717        1.20563823744661       -1.13034994903265
C            2.52605375943029        0.29934574447441       -0.66754051020991
H            3.77782110600299        4.32482271360524        0.30282986910280
H            3.02670623920782        4.27084295528164       -1.31111072252855
H            2.01129312582456        4.26507273067266        0.16041726388175
H           -0.70282423821694        2.14196866085233       -3.66606507874758
H           -1.70192566997797        2.07381631974437       -2.22280182860736
H           -1.52091977803138        0.63148948870717       -3.22780751443950
H           -0.29526497779352       -0.98360365539593       -2.07338038144103
H           -3.94877801061939       -3.29051919954429       -1.56138253092071
H           -2.26735813490534       -3.77566798600824       -1.21670806753257
H           -3.52348841630044       -4.07626318766165       -0.02598978033314
H           -6.35334520061361       -0.48777719175468       -0.29978664937926
H           -5.52046705989947        0.01964898767798       -1.76699764999504
H           -7.73030514465880        1.09566726319379       -1.67849164508354
H           -6.47868715560201        2.31924135193698       -1.49667507432061
H           -8.42111410365865        1.26070066861805        0.56816877987438
H           -7.90294465574978        2.91608053319983        0.27079899727115
H           -6.56618922500758        0.74746586469357        1.89536054834975
H           -6.69360177266970        2.47001942062823        2.23764977217061
H           -5.05395832633734        2.92501742688352        0.39476383614873
H           -4.37714038291033        1.93764041704076        1.70522827771603
H           -3.27679267144928        4.62483915964010       -0.58399923241370
H           -1.51593786440253        4.44395992729749       -0.45206678175782
H           -2.51326423464275        4.56470842742469        1.02594311584467
H            1.62805853044926        0.59766696997530        3.17608273951846
H            0.98660137084753        2.21510318569360        3.51477463705691
H            1.96508853712757        1.94361581285871        2.08100182127171
H            0.21151808910512       -0.93950115987738        2.13774734580656
H            3.55991705683163       -3.53372220831050        1.80526835161087
H            1.83545425411861       -3.84580234285330        1.47511120883909
H            3.05394932158921       -4.38041680662719        0.32870018580229
H            6.62736416194698       -0.82456320163569        0.12313864956644
H            5.55050726600552       -0.80227831938283        1.53089639293034
H            6.20378797847207        1.53717976337949        2.01829932270951
H            7.63659923495550        0.50352215160842        1.94626144536838
H            8.07644988715669        1.24830631101472       -0.37752512700094
H            7.96249445599899        2.65555637356294        0.68387927510589
H            5.61367404655507        3.00176016207411        0.02647219645629
H            6.61873617017495        2.95563817871721       -1.42927270338903
H            6.05353029637052        0.57723667119721       -1.76709023895813
H            4.58615129334360        1.55995485553891       -1.74244155904282

          :  Hamiltonian                  GFN2-xTB          :
         :: gradient norm              0.000068481395 Eh/a0 ::
         :: HOMO-LUMO gap              1.483429286163 eV    ::
         :: SCC energy              -131.506740167326 Eh    ::
         :: -> dispersion             -0.130140577198 Eh    ::
         :: -> Gsolv                  -0.058851833877 Eh    ::
         :: repulsion energy           1.904570480141 Eh    ::

    * Orbital Energies and Occupations

         #    Occupation            Energy/Eh            Energy/eV
      -------------------------------------------------------------
         1        2.0000           -0.7533417             -20.4995
       ...           ...                  ...                  ...
       108        2.0000           -0.4305473             -11.7158
       109        2.0000           -0.4266553             -11.6099
       110        2.0000           -0.4253888             -11.5754
       111        2.0000           -0.4093952             -11.1402
       112        2.0000           -0.4065522             -11.0628
       113        2.0000           -0.3994790             -10.8704
       114        2.0000           -0.3922309             -10.6731
       115        2.0000           -0.3906970             -10.6314
       116        2.0000           -0.3860346             -10.5045
       117        1.9925           -0.3630181              -9.8782
       118        1.8920           -0.3603889              -9.8067
       119        1.1155           -0.3564488              -9.6995
       120        1.0000           -0.3404501              -9.2641 (HOMO)
       121                         -0.2859347              -7.7807 (LUMO)
       122                         -0.2832642              -7.7080
       123                         -0.2705815              -7.3629
       124                         -0.2698106              -7.3419
       125                         -0.2274966              -6.1905
       126                         -0.2267713              -6.1708
       127                         -0.2237576              -6.0888
       128                         -0.2233631              -6.0780
       129                         -0.2046328              -5.5683
       130                         -0.2037071              -5.5432
       131                         -0.1748359              -4.7575
       ...                                ...                  ...
       234                          1.1373996              30.9502
      -------------------------------------------------------------
                  HL-Gap            0.0545154 Eh            1.4834 eV

     #   Z          covCN         q      C6AA      α(0)
     1   6 C        3.636     0.030    20.436     6.504
     2   8 O        1.705    -0.255    18.225     5.764
     3   6 C        2.851     0.148    24.786     8.160
     4   6 C        2.970    -0.042    29.048     8.840
     5   6 C        1.917     0.122    28.099     8.561
     6   7 N        0.911    -0.298    27.668     7.608
     7   6 C        2.978     0.020    27.558     8.611
     8   6 C        3.758    -0.105    22.555     6.771
     9   6 C        2.925    -0.050    29.234     8.867
    10   6 C        3.022     0.014    27.673     8.629
    11   6 C        2.962     0.032    27.284     8.568
    12  34 Se       1.153    -0.378   239.954    27.137
    13  34 Se       1.153    -0.379   239.990    27.139
    14   6 C        2.962     0.032    27.274     8.566
    15   6 C        2.974     0.115    25.468     8.278
    16   6 C        3.762    -0.105    22.546     6.769
    17   7 N        1.863    -0.282    28.162     7.866
    18   6 C        2.884     0.153    24.690     8.146
    19   7 N        2.753    -0.034    21.895     6.950
    20   6 C        3.759    -0.009    20.794     6.501
    21   6 C        3.805    -0.066    21.762     6.641
    22   6 C        3.804    -0.064    21.718     6.635
    23   6 C        3.805    -0.064    21.719     6.634
    24   6 C        3.748    -0.003    20.691     6.488
    25   6 C        2.979    -0.049    29.202     8.864
    26   6 C        2.851     0.147    24.791     8.161
    27   8 O        1.705    -0.260    18.303     5.776
    28   6 C        3.635     0.030    20.451     6.507
    29   6 C        2.970    -0.042    29.052     8.841
    30   6 C        1.916     0.122    28.103     8.561
    31   7 N        0.911    -0.298    27.678     7.609
    32   6 C        2.978     0.020    27.563     8.612
    33   6 C        3.758    -0.104    22.533     6.768
    34   6 C        2.924    -0.049    29.229     8.866
    35   6 C        3.022     0.015    27.663     8.627
    36   6 C        2.973     0.114    25.478     8.280
    37   6 C        3.762    -0.105    22.545     6.768
    38   7 N        1.862    -0.281    28.138     7.862
    39   6 C        2.877     0.156    24.617     8.134
    40   7 N        2.751    -0.039    21.992     6.965
    41   6 C        3.762    -0.013    20.860     6.511
    42   6 C        3.807    -0.064    21.729     6.636
    43   6 C        3.807    -0.062    21.688     6.630
    44   6 C        3.807    -0.066    21.753     6.639
    45   6 C        3.755     0.000    20.630     6.476
    46   6 C        2.978    -0.048    29.191     8.862
    47   1 H        0.925     0.084     1.940     2.178
    48   1 H        0.924     0.053     2.277     2.360
    49   1 H        0.924     0.060     2.205     2.322
    50   1 H        0.925     0.059     2.216     2.328
    51   1 H        0.925     0.057     2.237     2.339
    52   1 H        0.925     0.052     2.293     2.368
    53   1 H        0.926     0.050     2.325     2.384
    54   1 H        0.925     0.065     2.145     2.290
    55   1 H        0.924     0.068     2.105     2.269
    56   1 H        0.924     0.068     2.111     2.272
    57   1 H        0.924     0.066     2.135     2.285
    58   1 H        0.924     0.070     2.090     2.261
    59   1 H        0.925     0.058     2.220     2.330
    60   1 H        0.924     0.053     2.278     2.360
    61   1 H        0.925     0.049     2.328     2.386
    62   1 H        0.924     0.051     2.313     2.379
    63   1 H        0.924     0.045     2.377     2.411
    64   1 H        0.925     0.056     2.247     2.344
    65   1 H        0.924     0.075     2.027     2.226
    66   1 H        0.924     0.045     2.383     2.414
    67   1 H        0.925     0.083     1.944     2.181
    68   1 H        0.924     0.060     2.200     2.320
    69   1 H        0.924     0.054     2.267     2.354
    70   1 H        0.925     0.052     2.289     2.366
    71   1 H        0.925     0.059     2.214     2.327
    72   1 H        0.925     0.055     2.264     2.353
    73   1 H        0.926     0.049     2.326     2.385
    74   1 H        0.925     0.064     2.153     2.294
    75   1 H        0.924     0.069     2.094     2.263
    76   1 H        0.924     0.068     2.109     2.271
    77   1 H        0.924     0.055     2.258     2.350
    78   1 H        0.925     0.075     2.033     2.230
    79   1 H        0.924     0.051     2.305     2.374
    80   1 H        0.924     0.055     2.257     2.350
    81   1 H        0.924     0.046     2.368     2.407
    82   1 H        0.924     0.050     2.315     2.379
    83   1 H        0.925     0.058     2.227     2.334
    84   1 H        0.924     0.053     2.286     2.364
    85   1 H        0.923     0.053     2.283     2.363
    86   1 H        0.925     0.049     2.332     2.388

molecular dipole:
                 x           y           z       tot (Debye)
 q only:       -0.135       3.467       0.010
   full:       -0.092       3.166      -0.041       8.052

 projected vibrational frequencies (cm⁻¹)
eigval :       -0.00    -0.00     0.00     0.00     0.00     0.00
eigval :        3.74    17.87    21.30    23.95    37.27    40.38
eigval :       44.66    45.73    52.10    57.62    62.85    68.65
eigval :       71.24    72.93    77.37    82.58   101.85   109.50
eigval :      112.58   123.20   125.80   129.86   130.59   135.71
eigval :      144.08   158.57   159.63   162.35   175.81   180.44
eigval :      184.91   185.43   194.52   208.08   212.28   229.21
eigval :      233.63   234.28   235.98   241.88   243.68   249.67
eigval :      256.13   258.23   267.48   273.63   277.05   289.39
eigval :      293.24   299.30   306.97   327.66   329.36   332.09
eigval :      334.89   359.90   361.43   383.58   390.67   409.99
eigval :      420.12   428.56   430.66   448.58   454.62   469.26
eigval :      474.73   476.72   519.98   521.14   524.23   533.07
eigval :      539.74   551.29   552.97   555.83   578.87   580.10
eigval :      594.79   597.38   602.94   604.48   638.36   644.55
eigval :      657.48   660.53   668.71   669.94   707.62   708.08
eigval :      720.99   721.91   803.08   829.54   842.52   846.95
eigval :      850.14   850.98   873.64   892.99   908.27   908.80
eigval :      939.17   941.34   953.08   962.24   968.57   971.24
eigval :      972.96   989.89   991.94   995.42   999.50  1001.78
eigval :     1003.85  1008.21  1019.55  1020.17  1027.25  1028.80
eigval :     1036.84  1037.97  1075.67  1076.23  1090.95  1091.63
eigval :     1104.28  1106.39  1111.46  1118.08  1119.24  1131.00
eigval :     1142.19  1142.70  1143.55  1145.60  1149.45  1156.52
eigval :     1156.57  1167.30  1194.75  1202.34  1207.22  1223.62
eigval :     1226.19  1233.44  1235.30  1237.54  1242.61  1247.59
eigval :     1252.04  1260.84  1277.46  1281.34  1294.66  1296.80
eigval :     1312.74  1313.21  1325.10  1325.78  1331.84  1333.25
eigval :     1336.84  1343.33  1345.25  1347.64  1349.87  1350.58
eigval :     1367.23  1367.99  1380.44  1382.44  1398.41  1401.64
eigval :     1406.57  1408.01  1414.88  1417.06  1433.27  1435.75
eigval :     1441.73  1443.55  1447.16  1448.31  1452.84  1456.05
eigval :     1459.61  1463.01  1465.11  1465.31  1467.07  1468.08
eigval :     1469.67  1470.38  1471.60  1472.18  1473.16  1473.71
eigval :     1479.66  1480.94  1482.63  1484.08  1485.37  1488.88
eigval :     1491.86  1499.57  1507.25  1511.34  1576.47  1578.72
eigval :     2328.98  2331.71  2871.72  2905.05  2913.95  2944.34
eigval :     2971.91  2973.54  2975.44  2976.63  2980.98  2983.63
eigval :     2984.97  2985.12  2985.90  2986.76  2989.63  2990.55
eigval :     2995.47  3000.10  3000.16  3001.80  3001.81  3002.90
eigval :     3004.05  3005.04  3007.30  3010.14  3016.20  3019.87
eigval :     3020.12  3022.81  3024.14  3027.25  3028.58  3030.65
eigval :     3047.20  3048.55  3059.56  3060.36  3064.76  3065.81

   temp. (K)  partition function   enthalpy   heat capacity  entropy
                                   cal/mol     cal/K/mol   cal/K/mol   J/K/mol
 298.15  VIB  0.110E+23            27943.464    162.056    178.488
         ROT  0.675E+08              888.752      2.981     38.806
         INT  0.745E+30            28832.217    165.037    217.295
         TR   0.197E+29             1481.254      4.968     45.690
         TOT                       30313.4707   170.0052   262.9846  1100.3277

       T/K    H(0)-H(T)+PV         H(T)/Eh          T*S/Eh         G(T)/Eh
   ------------------------------------------------------------------------
    298.15    0.483076E-01    0.731444E+00    0.124952E+00    0.606491E+00
   ------------------------------------------------------------------------

         :::::::::::::::::::::::::::::::::::::::::::::::::::::
         ::                  THERMODYNAMIC                  ::
         :::::::::::::::::::::::::::::::::::::::::::::::::::::
         :: total free energy        -128.995678311826 Eh   ::
         ::.................................................::
         :: total energy             -129.602169688529 Eh   ::
         :: zero point energy           0.683136273342 Eh   ::
         :: G(RRHO) w/o ZPVE           -0.076644896638 Eh   ::
         :: G(RRHO) contrib.            0.606491376704 Eh   ::
         :::::::::::::::::::::::::::::::::::::::::::::::::::::

           -------------------------------------------------
          | TOTAL ENERGY             -129.602169688529 Eh   |
          | TOTAL ENTHALPY           -128.870725824665 Eh   |
          | TOTAL FREE ENERGY        -128.995678311826 Eh   |
          | GRADIENT NORM               0.000068739058 Eh/α |
          | HOMO-LUMO GAP               1.483439098407 eV   |
           -------------------------------------------------

 * finished run on 2025/08/30 at 18:18:37.998
