   * xtb version 6.7.1 (edcfbbe) compiled by 'albert@albert-system' on 2024-07-22

   ID    Z sym.   atoms
    1    6 C      1, 3-5, 7-11, 14-16, 18, 20-26, 28-30, 32-37, 39, 41-46
    2    8 O      2, 27
    3    7 N      6, 17, 19, 31, 38, 40
    4   34 Se     12, 13
    5    1 H      47-86

          program call               : xtb data2507/toluene/IQ-Se/IQ-Se_toluene_S0_crest.xyz --gfn 2 --gbsa toluene --ohess vtight --parallel 40 --molden --ceasefiles --namespace data2507/toluene/IQ-Se/IQ-Se_toluene_S0_finalOpt
      * Solvation model:               GBSA
        Solvent                        toluene
        Solvent mass                       9.2140E+01 g/mol
          :  Hamiltonian                  GFN2-xTB          :
 * total energy  :  -129.6554084 Eh     change       -0.2735447E-08 Eh
 * total energy  :  -129.6555509 Eh     change       -0.1425380E-03 Eh
 * total energy  :  -129.6555571 Eh     change       -0.6193305E-05 Eh
 * total energy  :  -129.6556705 Eh     change       -0.1133994E-03 Eh
 * total energy  :  -129.6556955 Eh     change       -0.2504276E-04 Eh
 * total energy  :  -129.6557286 Eh     change       -0.3307698E-04 Eh
 * total energy  :  -129.6557511 Eh     change       -0.2249965E-04 Eh
 * total energy  :  -129.6557352 Eh     change        0.1596896E-04 Eh
 * total energy  :  -129.6557698 Eh     change       -0.3466069E-04 Eh
 * total energy  :  -129.6557807 Eh     change       -0.1089420E-04 Eh
 * total energy  :  -129.6559363 Eh     change       -0.5855591E-06 Eh
 * total energy  :  -129.6559368 Eh     change       -0.5561459E-06 Eh
 * total energy  :  -129.6559374 Eh     change       -0.5620701E-06 Eh
 * total energy  :  -129.6559380 Eh     change       -0.5848196E-06 Eh
 * total energy  :  -129.6559383 Eh     change       -0.3561450E-06 Eh
 * total energy  :  -129.6559385 Eh     change       -0.1367327E-06 Eh
 * total energy  :  -129.6559386 Eh     change       -0.1325595E-06 Eh
 * total energy  :  -129.6559387 Eh     change       -0.1195266E-06 Eh
 * total energy  :  -129.6559388 Eh     change       -0.6397067E-07 Eh
   *** GEOMETRY OPTIMIZATION CONVERGED AFTER 67 ITERATIONS ***

 final structure:
================
86
 xtb: 6.7.1 (edcfbbe)
C            2.96705652482907        3.89273446089066       -0.30692497799706
O            3.14776221051559        2.49425620435194       -0.22257870390437
C            2.28380104355290        1.62940206455367       -0.79412929433226
C            1.11999093987733        1.97662528728148       -1.48233208814207
C            0.70342956770151        3.29251766735948       -1.74057873399173
N            0.25002605994011        4.31738904398099       -2.00667890977357
C            0.23631118526402        0.96584163412458       -1.96670302150751
C           -0.95921693991352        1.35072775292672       -2.78024013133946
C            0.47908459904538       -0.33453071899213       -1.64411688904032
C            1.61473943038571       -0.72238816058169       -0.90619237364023
C            1.78507474926117       -2.03542151718792       -0.40593401062788
Se           0.52627309649663       -3.43340254646910       -0.84089314667110
Se          -0.87505761619649       -3.31439855952811        1.00468372106447
C           -1.97716658793261       -1.81269118367827        0.49766831583880
C           -3.05008702036933       -1.99150729462598       -0.36493691277204
C           -3.32403928519988       -3.28884085771165       -1.05299283247832
N           -3.92653307425963       -1.01945670797164       -0.57422635873562
C           -3.77773610901407        0.18285359863794       -0.02681700892768
N           -4.87155367522159        0.96482223163876       -0.04021940928782
C           -6.02556553661315        0.48930675723825       -0.78948859161535
C           -7.06707450028697        1.59344074883522       -0.89513138069072
C           -7.61910060924101        1.94444531325513        0.49094795061648
C           -6.53686831815930        1.74057581452101        1.55687216002875
C           -5.14849230057170        1.97344216676389        0.96215966868484
C           -2.50862730308520        0.56540015274273        0.53882011654120
C           -2.03457594071236        1.89982078813644        0.63871487031153
O           -2.77680907535026        2.81222241407046       -0.02412051462878
C           -2.48850800818391        4.19494200452542        0.02566959263368
C           -0.84380817158320        2.15616329530557        1.32146381301891
C           -0.28224919863133        3.43014299509363        1.49549911393827
N            0.27940939555926        4.41611472176437        1.69451580618986
C           -0.08608925074845        1.08246862196629        1.87804259045429
C            1.14586383481122        1.37848432200865        2.67460799336026
C           -0.47547856952308       -0.19945856721453        1.63341270807026
C           -1.64870162296359       -0.50097597567742        0.91362211009555
C            2.82608766297756       -2.28168437575404        0.47618674786950
C            2.94688215166663       -3.55261003671004        1.25143802122102
N            3.81059169161556       -1.40535559736782        0.62658043440349
C            3.80910143669749       -0.23345758919016        0.00642949052491
N            4.98344785387186        0.43846746414098       -0.00134806849604
C            6.07642542853860       -0.06690554114119        0.81058390197063
C            6.94352945719177        1.09591832915464        1.28668485620242
C            7.48465844410781        1.87660640584923        0.09371861290001
C            6.31380958476578        2.35125251507568       -0.76043107479096
C            5.45613821787207        1.15759801028662       -1.16932608213299
C            2.59641040499661        0.25643308365972       -0.59845731728887
H            3.79819154641560        4.32268518553064        0.25002852351371
H            3.00392752264544        4.23982635401677       -1.34237647782045
H            2.02977077106844        4.21049164094663        0.15640761188465
H           -0.65995639808951        1.94804335662111       -3.64115921520650
H           -1.65209950876204        1.95221757084201       -2.19230092407459
H           -1.48148233382489        0.46333019814049       -3.12848558309957
H           -0.22627225573123       -1.09806275526163       -1.94229650756905
H           -4.20324870915661       -3.18991210101614       -1.68208102271601
H           -2.46819223066552       -3.58230616477476       -1.66363116689015
H           -3.48896908966364       -4.07549124365319       -0.31647937746848
H           -6.45339537027870       -0.39778276672182       -0.30699109047920
H           -5.67304294802903        0.18331104984041       -1.77703066007152
H           -7.87145617908973        1.26446226460698       -1.55257627566340
H           -6.60288070633166        2.46847698934115       -1.35207764885929
H           -8.47754319574731        1.31365425086791        0.72380191117212
H           -7.95978344754582        2.98033389945695        0.49351359133303
H           -6.57915385947699        0.72456550120778        1.95354918413870
H           -6.68513069743135        2.42779041950266        2.38998898984391
H           -5.10419535256087        2.97390300120243        0.52151124846228
H           -4.39226664348602        1.90794296414666        1.74817859605573
H           -3.28856413246501        4.67086077157646       -0.53993503439181
H           -1.53150466059553        4.42677300420474       -0.44838330933125
H           -2.49237631887170        4.56905801883525        1.05209295415886
H            1.56063936634350        0.46162242838874        3.08543727769430
H            0.91862801454765        2.06295761489529        3.49151653930481
H            1.90468165677146        1.85382290469800        2.05312897290553
H            0.13743086047799       -1.01839756817835        1.98443193831651
H            3.83706640977267       -3.51952817809888        1.87191271187527
H            2.06715763543814       -3.69708772927226        1.88128311800717
H            3.00801802963124       -4.40197273557752        0.57080290955383
H            6.68233969652917       -0.77315249779780        0.22715421613845
H            5.64786182523060       -0.60427769937527        1.65582484752460
H            6.33990762265561        1.75671649975180        1.91150668339910
H            7.76129848761134        0.70383564939920        1.89225212579482
H            8.13698143534516        1.23301410640912       -0.50074157824559
H            8.07154598839108        2.73026157958750        0.43520509126593
H            5.70472094388136        3.04672332036376       -0.18522334240247
H            6.66942602181444        2.85977070698944       -1.65750681461658
H            6.07113472580204        0.46688184654225       -1.76818201440068
H            4.61584117546126        1.46970318881439       -1.78644574086986

          :  Hamiltonian                  GFN2-xTB          :
         :: gradient norm              0.000084650434 Eh/a0 ::
         :: HOMO-LUMO gap              2.176622614393 eV    ::
         :: SCC energy              -131.559650833009 Eh    ::
         :: -> dispersion             -0.132690062182 Eh    ::
         :: -> Gsolv                  -0.051070061045 Eh    ::
         :: repulsion energy           1.903712056306 Eh    ::

    * Orbital Energies and Occupations

         #    Occupation            Energy/Eh            Energy/eV
      -------------------------------------------------------------
         1        2.0000           -0.7564846             -20.5850
       ...           ...                  ...                  ...
       107        2.0000           -0.4318051             -11.7500
       108        2.0000           -0.4276428             -11.6368
       109        2.0000           -0.4220345             -11.4841
       110        2.0000           -0.4200232             -11.4294
       111        2.0000           -0.4183578             -11.3841
       112        2.0000           -0.4015745             -10.9274
       113        2.0000           -0.4004652             -10.8972
       114        2.0000           -0.3875219             -10.5450
       115        2.0000           -0.3833959             -10.4327
       116        2.0000           -0.3772438             -10.2653
       117        2.0000           -0.3714964             -10.1089
       118        2.0000           -0.3686879             -10.0325
       119        2.0000           -0.3618421              -9.8462 (HOMO)
       120                         -0.2818528              -7.6696 (LUMO)
       121                         -0.2797203              -7.6116
       122                         -0.2715496              -7.3892
       123                         -0.2651914              -7.2162
       124                         -0.2510431              -6.8312
       125                         -0.2224989              -6.0545
       126                         -0.2189556              -5.9581
       127                         -0.2184717              -5.9449
       128                         -0.2107094              -5.7337
       129                         -0.2036561              -5.5418
       130                         -0.1984312              -5.3996
       ...                                ...                  ...
       234                          1.1418880              31.0724
      -------------------------------------------------------------
                  HL-Gap            0.0799893 Eh            2.1766 eV

     #   Z          covCN         q      C6AA      α(0)
     1   6 C        3.637     0.033    20.383     6.495
     2   8 O        1.705    -0.256    18.236     5.766
     3   6 C        2.852     0.148    24.786     8.160
     4   6 C        2.969    -0.046    29.150     8.856
     5   6 C        1.916     0.122    28.095     8.560
     6   7 N        0.911    -0.310    27.971     7.649
     7   6 C        2.978     0.018    27.599     8.617
     8   6 C        3.758    -0.102    22.491     6.761
     9   6 C        2.923    -0.057    29.411     8.894
    10   6 C        3.011     0.018    27.601     8.618
    11   6 C        2.960    -0.014    28.356     8.734
    12  34 Se       1.998    -0.182   241.920    27.102
    13  34 Se       1.999    -0.179   241.821    27.097
    14   6 C        2.960    -0.016    28.402     8.741
    15   6 C        2.960     0.108    25.603     8.299
    16   6 C        3.761    -0.109    22.631     6.782
    17   7 N        1.863    -0.296    28.525     7.916
    18   6 C        2.884     0.155    24.638     8.137
    19   7 N        2.753    -0.059    22.374     7.025
    20   6 C        3.760    -0.005    20.722     6.490
    21   6 C        3.805    -0.065    21.743     6.638
    22   6 C        3.804    -0.062    21.689     6.630
    23   6 C        3.805    -0.063    21.707     6.633
    24   6 C        3.748     0.002    20.611     6.475
    25   6 C        2.981    -0.050    29.234     8.869
    26   6 C        2.851     0.147    24.801     8.162
    27   8 O        1.705    -0.262    18.344     5.783
    28   6 C        3.636     0.033    20.397     6.498
    29   6 C        2.970    -0.048    29.183     8.861
    30   6 C        1.916     0.122    28.108     8.562
    31   7 N        0.911    -0.312    28.023     7.656
    32   6 C        2.977     0.017    27.615     8.620
    33   6 C        3.758    -0.101    22.474     6.759
    34   6 C        2.923    -0.058    29.431     8.897
    35   6 C        3.012     0.018    27.597     8.617
    36   6 C        2.960     0.108    25.613     8.301
    37   6 C        3.761    -0.109    22.624     6.781
    38   7 N        1.861    -0.294    28.467     7.908
    39   6 C        2.879     0.159    24.558     8.124
    40   7 N        2.749    -0.070    22.600     7.061
    41   6 C        3.763    -0.007    20.749     6.493
    42   6 C        3.807    -0.064    21.723     6.635
    43   6 C        3.807    -0.060    21.651     6.624
    44   6 C        3.807    -0.064    21.730     6.636
    45   6 C        3.757     0.006    20.522     6.459
    46   6 C        2.980    -0.049    29.206     8.865
    47   1 H        0.925     0.080     1.975     2.198
    48   1 H        0.924     0.050     2.316     2.380
    49   1 H        0.924     0.058     2.228     2.334
    50   1 H        0.925     0.055     2.261     2.351
    51   1 H        0.925     0.051     2.308     2.376
    52   1 H        0.925     0.049     2.328     2.386
    53   1 H        0.925     0.044     2.392     2.419
    54   1 H        0.925     0.066     2.125     2.279
    55   1 H        0.924     0.061     2.189     2.314
    56   1 H        0.925     0.065     2.138     2.287
    57   1 H        0.924     0.057     2.230     2.335
    58   1 H        0.924     0.063     2.162     2.300
    59   1 H        0.925     0.054     2.276     2.359
    60   1 H        0.924     0.050     2.324     2.384
    61   1 H        0.924     0.046     2.368     2.407
    62   1 H        0.924     0.046     2.364     2.405
    63   1 H        0.924     0.043     2.410     2.428
    64   1 H        0.925     0.050     2.315     2.379
    65   1 H        0.924     0.065     2.146     2.291
    66   1 H        0.924     0.039     2.465     2.455
    67   1 H        0.925     0.080     1.981     2.201
    68   1 H        0.924     0.058     2.220     2.330
    69   1 H        0.924     0.051     2.311     2.377
    70   1 H        0.925     0.049     2.332     2.388
    71   1 H        0.925     0.055     2.263     2.353
    72   1 H        0.925     0.049     2.332     2.388
    73   1 H        0.925     0.043     2.408     2.427
    74   1 H        0.925     0.066     2.129     2.282
    75   1 H        0.924     0.062     2.176     2.307
    76   1 H        0.925     0.066     2.135     2.285
    77   1 H        0.923     0.044     2.390     2.418
    78   1 H        0.925     0.068     2.107     2.270
    79   1 H        0.924     0.048     2.343     2.394
    80   1 H        0.924     0.050     2.323     2.383
    81   1 H        0.924     0.043     2.415     2.430
    82   1 H        0.924     0.046     2.375     2.410
    83   1 H        0.925     0.054     2.272     2.357
    84   1 H        0.924     0.047     2.360     2.402
    85   1 H        0.923     0.040     2.448     2.447
    86   1 H        0.925     0.042     2.420     2.433

molecular dipole:
                 x           y           z       tot (Debye)
 q only:       -0.373       1.038       0.118
   full:       -0.310       0.827       0.062       2.251

 projected vibrational frequencies (cm⁻¹)
eigval :       -0.00    -0.00    -0.00     0.00     0.00     0.00
eigval :       14.73    24.32    24.85    30.15    39.98    46.14
eigval :       50.33    54.98    58.09    60.48    67.94    71.74
eigval :       74.85    77.08    82.11   107.42   114.70   122.45
eigval :      123.83   129.88   133.18   135.47   140.61   146.01
eigval :      154.67   159.21   165.06   175.77   181.84   184.61
eigval :      189.84   196.29   210.25   211.94   219.52   224.13
eigval :      232.65   233.42   237.56   241.16   247.12   248.78
eigval :      254.99   255.52   267.05   268.90   275.28   294.49
eigval :      302.46   305.94   307.23   322.57   324.88   333.39
eigval :      335.56   364.96   368.04   381.62   390.33   404.82
eigval :      413.88   423.10   429.80   448.31   454.50   467.91
eigval :      477.05   478.73   516.83   519.67   519.93   533.54
eigval :      539.32   549.41   557.06   560.44   576.69   577.92
eigval :      593.53   597.09   603.30   604.39   636.27   645.90
eigval :      655.35   658.19   668.85   669.98   703.03   704.14
eigval :      720.42   722.45   803.74   830.61   832.58   836.35
eigval :      851.37   852.40   874.58   893.83   908.01   908.53
eigval :      937.42   938.09   954.83   961.93   969.87   971.59
eigval :      972.38   994.21   994.75   997.10  1001.36  1009.56
eigval :     1009.74  1013.66  1020.90  1021.66  1027.68  1028.37
eigval :     1038.65  1040.42  1076.08  1079.30  1092.52  1093.28
eigval :     1105.83  1110.62  1112.88  1117.93  1121.23  1133.49
eigval :     1143.75  1144.17  1146.35  1148.09  1151.43  1158.10
eigval :     1158.97  1172.00  1197.71  1204.95  1209.01  1226.25
eigval :     1228.89  1234.95  1237.04  1239.04  1244.00  1250.87
eigval :     1254.91  1260.77  1278.14  1280.99  1312.13  1314.95
eigval :     1316.27  1318.52  1329.37  1330.63  1335.50  1337.53
eigval :     1338.45  1346.76  1347.24  1350.88  1351.63  1352.45
eigval :     1377.46  1379.67  1393.04  1393.86  1400.14  1401.63
eigval :     1408.67  1409.39  1417.20  1418.51  1436.65  1438.40
eigval :     1453.68  1454.99  1456.14  1456.99  1457.34  1458.82
eigval :     1462.58  1467.72  1467.97  1468.70  1469.53  1470.38
eigval :     1471.33  1473.09  1474.58  1476.21  1476.84  1478.36
eigval :     1481.93  1483.12  1484.09  1491.16  1491.84  1499.86
eigval :     1501.89  1502.90  1515.42  1519.71  1593.72  1595.99
eigval :     2327.60  2329.85  2852.93  2890.58  2907.51  2937.75
eigval :     2966.12  2968.50  2970.71  2971.23  2975.16  2976.15
eigval :     2977.12  2977.28  2978.29  2979.33  2986.44  2987.72
eigval :     2990.10  2994.79  2998.08  2998.82  2999.27  2999.98
eigval :     3000.24  3003.20  3004.23  3006.21  3011.27  3013.69
eigval :     3019.68  3020.30  3021.20  3023.80  3025.05  3025.94
eigval :     3045.24  3046.03  3058.26  3059.11  3061.28  3062.09

   temp. (K)  partition function   enthalpy   heat capacity  entropy
                                   cal/mol     cal/K/mol   cal/K/mol   J/K/mol
 298.15  VIB  0.255E+21            27636.011    162.806    173.759
         ROT  0.670E+08              888.752      2.981     38.793
         INT  0.171E+29            28524.763    165.787    212.552
         TR   0.197E+29             1481.254      4.968     45.690
         TOT                       30006.0172   170.7551   258.2418  1080.4835

       T/K    H(0)-H(T)+PV         H(T)/Eh          T*S/Eh         G(T)/Eh
   ------------------------------------------------------------------------
    298.15    0.478176E-01    0.731956E+00    0.122699E+00    0.609257E+00
   ------------------------------------------------------------------------

         :::::::::::::::::::::::::::::::::::::::::::::::::::::
         ::                  THERMODYNAMIC                  ::
         :::::::::::::::::::::::::::::::::::::::::::::::::::::
         :: total free energy        -129.046682191772 Eh   ::
         ::.................................................::
         :: total energy             -129.655938778263 Eh   ::
         :: zero point energy           0.684137943370 Eh   ::
         :: G(RRHO) w/o ZPVE           -0.074881356880 Eh   ::
         :: G(RRHO) contrib.            0.609256586491 Eh   ::
         :::::::::::::::::::::::::::::::::::::::::::::::::::::

           -------------------------------------------------
          | TOTAL ENERGY             -129.655938778263 Eh   |
          | TOTAL ENTHALPY           -128.923983202728 Eh   |
          | TOTAL FREE ENERGY        -129.046682191772 Eh   |
          | GRADIENT NORM               0.000084948425 Eh/α |
          | HOMO-LUMO GAP               2.176618800320 eV   |
           -------------------------------------------------

 * finished run on 2025/08/30 at 18:18:27.011
