   * xtb version 6.7.1 (edcfbbe) compiled by 'albert@albert-system' on 2024-07-22

   ID    Z sym.   atoms
    1    6 C      1, 3-5, 7-11, 14-16, 18, 20-26, 28-30, 32-37, 39, 41-46
    2    8 O      2, 27
    3    7 N      6, 17, 19, 31, 38, 40
    4   34 Se     12, 13
    5    1 H      47-86

          program call               : xtb data2507/toluene/IQ-Se/IQ-Se.xyz --gfn 2 --gbsa toluene --ohess vtight --parallel 40 --molden --ceasefiles --namespace data2507/toluene/IQ-Se/IQ-Se_toluene_S0_preOpt
      * Solvation model:               GBSA
        Solvent                        toluene
        Solvent mass                       9.2140E+01 g/mol
          :  Hamiltonian                  GFN2-xTB          :
 * total energy  :  -129.4566431 Eh     change       -0.4548070E-08 Eh
 * total energy  :  -129.5262093 Eh     change       -0.6956621E-01 Eh
 * total energy  :  -129.5524133 Eh     change       -0.2620393E-01 Eh
 * total energy  :  -129.5621315 Eh     change       -0.9718187E-02 Eh
 * total energy  :  -129.5698192 Eh     change       -0.7687716E-02 Eh
 * total energy  :  -129.5763433 Eh     change       -0.6524083E-02 Eh
 * total energy  :  -129.5820922 Eh     change       -0.5748948E-02 Eh
 * total energy  :  -129.5862827 Eh     change       -0.4190486E-02 Eh
 * total energy  :  -129.5897693 Eh     change       -0.3486565E-02 Eh
 * total energy  :  -129.5923764 Eh     change       -0.2607148E-02 Eh
 * total energy  :  -129.6429213 Eh     change       -0.3983079E-06 Eh
 * total energy  :  -129.6429216 Eh     change       -0.3256374E-06 Eh
 * total energy  :  -129.6429219 Eh     change       -0.3292357E-06 Eh
 * total energy  :  -129.6429222 Eh     change       -0.2224788E-06 Eh
 * total energy  :  -129.6429222 Eh     change       -0.5014451E-07 Eh
 * total energy  :  -129.6429224 Eh     change       -0.1829682E-06 Eh
 * total energy  :  -129.6429226 Eh     change       -0.2110168E-06 Eh
 * total energy  :  -129.6429227 Eh     change       -0.1083127E-06 Eh
 * total energy  :  -129.6429228 Eh     change       -0.7833529E-07 Eh
   *** GEOMETRY OPTIMIZATION CONVERGED AFTER 258 ITERATIONS ***

 final structure:
================
86
 xtb: 6.7.1 (edcfbbe)
C            6.20868213786692        2.06557769039203        2.10418744747233
O            5.74033032470321        1.02344022964314        1.27600696393312
C            4.60018127886197        1.14889192117644        0.56360188498378
C            3.87354792620424        2.32881480240317        0.38987779415547
C            4.32945443179671        3.60087737112085        0.77996937758064
N            4.63683226510994        4.68235091716071        1.02738008572683
C            2.59987169906191        2.30363368106469       -0.25051336265862
C            1.86394582428326        3.58648928535138       -0.47535054331135
C            2.05861042498983        1.10406151136337       -0.60638334406595
C            2.76218684234774       -0.10611294890724       -0.45127802611691
C            2.16445792663513       -1.37218681502742       -0.66695162114140
Se           0.39065627777049       -1.53129423179584       -1.38892056147116
Se          -0.80980833673494       -1.72495351072585        0.64437300828597
C           -2.53644499796942       -1.18819555851900       -0.01279463626785
C           -3.33643245739624       -2.10777510047883       -0.68113674450486
C           -2.85520310137204       -3.46922348503824       -1.06503179161067
N           -4.60058618177808       -1.83271249169192       -0.96409309251171
C           -5.13474277244048       -0.64649168253208       -0.69662519470972
N           -6.47882533086906       -0.57241808602649       -0.74965725030422
C           -7.22452829211927       -1.72946759160527       -1.20154641220361
C           -7.54954505628904       -2.66731158673482       -0.02898281399833
C           -7.72214446010181       -1.84518240941823        1.25359832220393
C           -8.28847925086126       -0.47180360998471        0.90740886748869
C           -7.25891306322463        0.32034272767105        0.08350716320540
C           -4.28545910340790        0.46915335801558       -0.37050447168656
C           -4.62237218519605        1.83168369491493       -0.59152932331182
O           -5.72103525377996        2.02236696134889       -1.35254658364189
C           -6.09652736202198        3.30391441177888       -1.80804672720778
C           -3.79131715793360        2.83396329107324       -0.08562851567782
C           -4.07862282839737        4.20886581353173       -0.14834714192833
N           -4.24134107580517        5.34845492665170       -0.12301500940449
C           -2.56907575875467        2.49290344354090        0.56583830496173
C           -1.72159737249534        3.57675491374224        1.15378547138476
C           -2.17369494334244        1.18871321767232        0.60020638005590
C           -2.98437809024089        0.15022893103254        0.10122326842431
C            2.86326302298237       -2.51289849235301       -0.29432106283017
C            2.23337638283630       -3.86656826538278       -0.24158502653089
N            4.15882226276664       -2.45759330006836       -0.01747844759818
C            4.82423417573136       -1.30954489650050       -0.00694947992027
N            6.17189222499566       -1.39713717926605       -0.01302229002618
C            6.79468864764645       -2.69696661292342        0.15665674818770
C            8.09741250117606       -2.54082645428958        0.93820951185437
C            9.04012003121682       -1.58633550451417        0.21248316141487
C            8.33552931742706       -0.25008598074099        0.00101588746719
C            7.02064656316994       -0.47401209099141       -0.74044497545304
C            4.10322058630333       -0.06318462990298        0.01291258184551
H            5.41185495356619        2.47154487777139        2.73219607026402
H            6.96865931408981        1.60961440283827        2.73796361093972
H            6.65783526366753        2.87315802307351        1.52099422876229
H            2.44514601971885        4.24720559447478       -1.11878727471791
H            1.70283347122255        4.11192352414257        0.46575431521034
H            0.90270671915579        3.39554669014048       -0.94461446924979
H            1.05636752542089        1.06531738861334       -1.01031027422062
H           -2.55153436603996       -4.02471723724110       -0.17764499779891
H           -3.64678333721704       -4.00604287084325       -1.57849127894048
H           -1.98676407488895       -3.38738831612665       -1.72099862125612
H           -6.63426795356542       -2.24597510879191       -1.95682620817970
H           -8.14320143478250       -1.35489021274994       -1.65934481637868
H           -6.74289285145960       -3.38792070290505        0.10141242000581
H           -8.46380810832500       -3.21552377166535       -0.25713746343541
H           -6.75421451943989       -1.71613769870973        1.74446988338764
H           -8.38042939866059       -2.36434494949801        1.95030036793386
H           -8.51901568506864        0.09040910917820        1.81271016386678
H           -9.21538327796100       -0.59533770858267        0.34642295379848
H           -7.76898180161602        1.06320054368416       -0.53869361029890
H           -6.58019902775276        0.84588474586587        0.75933266647457
H           -6.90816512253750        3.12707287073222       -2.51288001175747
H           -5.27335273158071        3.80700130424318       -2.32139373041744
H           -6.45354732285942        3.93495096094577       -0.99049008738320
H           -1.45845861657343        4.31725824429707        0.39879767455394
H           -0.81087334615563        3.16014324690653        1.57537714361895
H           -2.26752311975578        4.09786206170761        1.94043336714673
H           -1.20746705353996        0.93084036468231        1.01123439015607
H            1.39654754196217       -3.86227148602457        0.45887650517910
H            1.84520007933443       -4.13852368336969       -1.22320137035978
H            2.96838172935958       -4.59984564500908        0.07513418753487
H            6.99727046920046       -3.14548724513803       -0.82510893575310
H            6.09448234921168       -3.34021288222440        0.68817614237205
H            7.87041843712114       -2.14615429576122        1.93015430643286
H            8.56047258966670       -3.52113065800935        1.05682469896746
H            9.31837239694124       -2.01165931657303       -0.75444672747354
H            9.95226272460341       -1.44210689568693        0.79302480333634
H            8.12599158509178        0.20923081401558        0.96580762969266
H            8.96195619661451        0.42929423433866       -0.57858808565123
H            7.23932486281807       -0.91896909037822       -1.72405744278038
H            6.49988827770761        0.46598218808764       -0.91194090436381

          :  Hamiltonian                  GFN2-xTB          :
         :: gradient norm              0.000074597295 Eh/a0 ::
         :: HOMO-LUMO gap              1.972405716546 eV    ::
         :: SCC energy              -131.545350440685 Eh    ::
         :: -> dispersion             -0.116812197690 Eh    ::
         :: -> Gsolv                  -0.058851369321 Eh    ::
         :: repulsion energy           1.902427634450 Eh    ::

    * Orbital Energies and Occupations

         #    Occupation            Energy/Eh            Energy/eV
      -------------------------------------------------------------
         1        2.0000           -0.7532787             -20.4978
       ...           ...                  ...                  ...
       107        2.0000           -0.4269862             -11.6189
       108        2.0000           -0.4255771             -11.5805
       109        2.0000           -0.4186601             -11.3923
       110        2.0000           -0.4178475             -11.3702
       111        2.0000           -0.4160400             -11.3210
       112        2.0000           -0.3996307             -10.8745
       113        2.0000           -0.3978968             -10.8273
       114        2.0000           -0.3948872             -10.7454
       115        2.0000           -0.3818169             -10.3898
       116        2.0000           -0.3758109             -10.2263
       117        2.0000           -0.3705514             -10.0832
       118        2.0000           -0.3618949              -9.8477
       119        2.0000           -0.3531504              -9.6097 (HOMO)
       120                         -0.2806659              -7.6373 (LUMO)
       121                         -0.2755290              -7.4975
       122                         -0.2711287              -7.3778
       123                         -0.2627577              -7.1500
       124                         -0.2560921              -6.9686
       125                         -0.2219813              -6.0404
       126                         -0.2156762              -5.8688
       127                         -0.2138206              -5.8184
       128                         -0.2129628              -5.7950
       129                         -0.1965334              -5.3479
       130                         -0.1946557              -5.2969
       ...                                ...                  ...
       234                          1.1474356              31.2233
      -------------------------------------------------------------
                  HL-Gap            0.0724845 Eh            1.9724 eV

     #   Z          covCN         q      C6AA      α(0)
     1   6 C        3.638     0.035    20.344     6.488
     2   8 O        1.706    -0.254    18.214     5.762
     3   6 C        2.854     0.148    24.785     8.160
     4   6 C        2.969    -0.043    29.075     8.845
     5   6 C        1.914     0.121    28.136     8.566
     6   7 N        0.911    -0.304    27.815     7.628
     7   6 C        2.976     0.023    27.485     8.600
     8   6 C        3.758    -0.105    22.562     6.772
     9   6 C        2.922    -0.056    29.384     8.889
    10   6 C        3.011     0.017    27.612     8.620
    11   6 C        2.961    -0.008    28.216     8.713
    12  34 Se       1.997    -0.216   243.093    27.168
    13  34 Se       1.996    -0.209   242.843    27.154
    14   6 C        2.960    -0.009    28.235     8.716
    15   6 C        2.964     0.107    25.630     8.304
    16   6 C        3.761    -0.109    22.625     6.781
    17   7 N        1.861    -0.290    28.363     7.894
    18   6 C        2.881     0.159    24.556     8.124
    19   7 N        2.749    -0.057    22.339     7.020
    20   6 C        3.762    -0.012    20.832     6.506
    21   6 C        3.804    -0.065    21.749     6.639
    22   6 C        3.805    -0.055    21.550     6.609
    23   6 C        3.805    -0.066    21.753     6.640
    24   6 C        3.753    -0.000    20.641     6.479
    25   6 C        2.981    -0.051    29.257     8.873
    26   6 C        2.853     0.147    24.793     8.161
    27   8 O        1.706    -0.259    18.289     5.774
    28   6 C        3.637     0.034    20.369     6.493
    29   6 C        2.969    -0.044    29.100     8.848
    30   6 C        1.914     0.120    28.148     8.568
    31   7 N        0.911    -0.306    27.886     7.637
    32   6 C        2.976     0.023    27.491     8.601
    33   6 C        3.758    -0.105    22.562     6.772
    34   6 C        2.922    -0.057    29.414     8.894
    35   6 C        3.010     0.018    27.602     8.618
    36   6 C        2.964     0.107    25.625     8.303
    37   6 C        3.761    -0.109    22.628     6.781
    38   7 N        1.860    -0.296    28.515     7.915
    39   6 C        2.878     0.159    24.563     8.125
    40   7 N        2.749    -0.065    22.500     7.045
    41   6 C        3.762    -0.008    20.772     6.497
    42   6 C        3.807    -0.064    21.719     6.634
    43   6 C        3.807    -0.060    21.652     6.624
    44   6 C        3.807    -0.065    21.735     6.637
    45   6 C        3.756     0.005    20.548     6.463
    46   6 C        2.981    -0.050    29.233     8.869
    47   1 H        0.924     0.049     2.333     2.388
    48   1 H        0.925     0.080     1.978     2.199
    49   1 H        0.924     0.055     2.253     2.347
    50   1 H        0.925     0.054     2.268     2.355
    51   1 H        0.925     0.054     2.267     2.355
    52   1 H        0.925     0.052     2.291     2.367
    53   1 H        0.925     0.051     2.312     2.378
    54   1 H        0.925     0.067     2.115     2.274
    55   1 H        0.925     0.066     2.132     2.284
    56   1 H        0.924     0.062     2.171     2.304
    57   1 H        0.925     0.070     2.087     2.259
    58   1 H        0.924     0.059     2.208     2.323
    59   1 H        0.925     0.047     2.359     2.402
    60   1 H        0.925     0.050     2.319     2.382
    61   1 H        0.924     0.030     2.584     2.514
    62   1 H        0.925     0.045     2.388     2.417
    63   1 H        0.924     0.047     2.354     2.399
    64   1 H        0.924     0.054     2.271     2.357
    65   1 H        0.924     0.058     2.218     2.329
    66   1 H        0.924     0.041     2.439     2.442
    67   1 H        0.925     0.081     1.973     2.196
    68   1 H        0.924     0.051     2.310     2.377
    69   1 H        0.924     0.055     2.257     2.349
    70   1 H        0.925     0.053     2.277     2.360
    71   1 H        0.925     0.052     2.293     2.368
    72   1 H        0.925     0.054     2.270     2.356
    73   1 H        0.926     0.050     2.317     2.381
    74   1 H        0.924     0.063     2.159     2.298
    75   1 H        0.925     0.068     2.111     2.272
    76   1 H        0.925     0.066     2.131     2.283
    77   1 H        0.923     0.045     2.384     2.414
    78   1 H        0.925     0.069     2.092     2.262
    79   1 H        0.924     0.048     2.345     2.395
    80   1 H        0.924     0.050     2.325     2.384
    81   1 H        0.924     0.042     2.419     2.432
    82   1 H        0.924     0.045     2.378     2.411
    83   1 H        0.925     0.056     2.251     2.346
    84   1 H        0.924     0.046     2.366     2.405
    85   1 H        0.923     0.041     2.431     2.438
    86   1 H        0.925     0.044     2.402     2.424

molecular dipole:
                 x           y           z       tot (Debye)
 q only:       -0.256      -2.233      -0.009
   full:       -0.242      -1.953      -0.091       5.007

 projected vibrational frequencies (cm⁻¹)
eigval :       -0.00    -0.00     0.00     0.00     0.00     0.00
eigval :       -7.43    10.56    14.43    17.68    26.40    35.39
eigval :       40.78    43.52    45.33    50.09    57.13    59.38
eigval :       66.57    67.96    73.89    85.26    87.88   111.73
eigval :      113.03   118.30   123.62   126.84   135.85   143.88
eigval :      146.23   153.14   157.74   166.58   171.89   181.17
eigval :      184.70   190.93   207.95   212.13   218.28   221.56
eigval :      223.67   228.87   238.03   241.42   247.98   254.16
eigval :      254.92   261.32   263.47   268.96   269.38   280.08
eigval :      295.98   306.44   323.53   325.55   331.14   333.85
eigval :      361.53   366.49   370.76   385.31   397.78   405.37
eigval :      415.75   429.99   433.60   452.34   456.09   472.86
eigval :      475.94   479.51   515.40   517.00   520.75   537.91
eigval :      539.78   555.03   556.76   559.54   574.45   576.14
eigval :      594.13   601.07   602.34   607.57   641.98   642.67
eigval :      660.20   662.60   666.88   670.44   703.68   704.61
eigval :      721.46   721.82   798.44   831.85   835.63   837.76
eigval :      852.84   852.95   874.80   895.04   907.91   911.06
eigval :      937.57   940.77   955.91   957.86   969.25   970.72
eigval :      973.06   973.99   994.72   994.89   996.84  1001.86
eigval :     1009.54  1012.20  1020.34  1021.37  1025.43  1027.81
eigval :     1037.38  1037.83  1077.77  1078.45  1093.55  1094.08
eigval :     1109.23  1110.30  1114.42  1120.05  1121.52  1131.89
eigval :     1133.07  1138.98  1144.60  1146.74  1148.35  1159.35
eigval :     1162.27  1170.21  1196.09  1198.25  1218.45  1223.29
eigval :     1226.04  1235.70  1237.18  1239.15  1244.15  1246.67
eigval :     1261.49  1264.35  1277.23  1279.03  1314.94  1315.26
eigval :     1316.66  1318.30  1324.12  1328.08  1329.45  1337.04
eigval :     1340.10  1346.23  1346.50  1349.34  1350.12  1351.40
eigval :     1375.72  1377.96  1390.25  1391.39  1399.61  1399.85
eigval :     1406.28  1406.54  1415.64  1417.10  1435.84  1437.48
eigval :     1441.77  1452.25  1453.19  1456.82  1459.64  1459.93
eigval :     1460.83  1461.99  1464.25  1465.56  1468.67  1470.19
eigval :     1472.29  1472.64  1474.50  1474.99  1475.50  1478.25
eigval :     1480.92  1483.80  1486.83  1490.80  1492.06  1498.73
eigval :     1500.23  1500.70  1515.52  1520.33  1588.45  1591.56
eigval :     2330.76  2332.51  2856.41  2890.06  2926.89  2960.09
eigval :     2963.93  2965.41  2965.64  2967.21  2970.36  2973.62
eigval :     2974.87  2978.52  2979.28  2987.60  2990.11  2990.73
eigval :     2994.19  2996.86  2998.72  2999.73  2999.80  2999.85
eigval :     3000.33  3000.63  3006.06  3011.17  3016.16  3016.45
eigval :     3017.14  3017.97  3020.39  3021.45  3021.67  3025.35
eigval :     3048.72  3049.97  3060.53  3061.87  3062.34  3063.11

   temp. (K)  partition function   enthalpy   heat capacity  entropy
                                   cal/mol     cal/K/mol   cal/K/mol   J/K/mol
 298.15  VIB  0.568E+23            28002.472    160.772    179.255
         ROT  0.937E+08              888.752      2.981     39.458
         INT  0.532E+31            28891.225    163.753    218.713
         TR   0.197E+29             1481.254      4.968     45.690
         TOT                       30372.4785   168.7210   264.4032  1106.2631

       T/K    H(0)-H(T)+PV         H(T)/Eh          T*S/Eh         G(T)/Eh
   ------------------------------------------------------------------------
    298.15    0.484016E-01    0.731829E+00    0.125627E+00    0.606202E+00
   ------------------------------------------------------------------------

         :::::::::::::::::::::::::::::::::::::::::::::::::::::
         ::                  THERMODYNAMIC                  ::
         :::::::::::::::::::::::::::::::::::::::::::::::::::::
         :: total free energy        -129.036720401725 Eh   ::
         ::.................................................::
         :: total energy             -129.642922811072 Eh   ::
         :: zero point energy           0.683427285027 Eh   ::
         :: G(RRHO) w/o ZPVE           -0.077224875681 Eh   ::
         :: G(RRHO) contrib.            0.606202409346 Eh   ::
         :::::::::::::::::::::::::::::::::::::::::::::::::::::

           -------------------------------------------------
          | TOTAL ENERGY             -129.642922811072 Eh   |
          | TOTAL ENTHALPY           -128.911093900627 Eh   |
          | TOTAL FREE ENERGY        -129.036720401725 Eh   |
          | GRADIENT NORM               0.000074787000 Eh/α |
          | HOMO-LUMO GAP               1.972404711400 eV   |
           -------------------------------------------------

 * finished run on 2025/08/30 at 18:05:02.932
