   * xtb version 6.7.1 (edcfbbe) compiled by 'albert@albert-system' on 2024-07-22

   ID    Z sym.   atoms
    1    6 C      1, 3-5, 7-11, 14-16, 18, 20-26, 28-30, 32-37, 39, 41-46
    2    8 O      2, 27
    3    7 N      6, 17, 19, 31, 38, 40
    4   34 Se     12, 13
    5    1 H      47-86

          program call               : xtb data2507/toluene/IQ-Se/IQ-Se_toluene_T1_crest.xyz --gfn 2 --uhf 2 --gbsa toluene --ohess vtight --parallel 40 --molden --ceasefiles --namespace data2507/toluene/IQ-Se/IQ-Se_toluene_T1_finalOpt
      * Solvation model:               GBSA
        Solvent                        toluene
        Solvent mass                       9.2140E+01 g/mol
          :  Hamiltonian                  GFN2-xTB          :
 * total energy  :  -129.6021881 Eh     change       -0.6890730E-08 Eh
 * total energy  :  -129.6023759 Eh     change       -0.1878139E-03 Eh
 * total energy  :  -129.6025414 Eh     change       -0.1654707E-03 Eh
 * total energy  :  -129.6026436 Eh     change       -0.1022564E-03 Eh
 * total energy  :  -129.6027017 Eh     change       -0.5801790E-04 Eh
 * total energy  :  -129.6027444 Eh     change       -0.4276731E-04 Eh
 * total energy  :  -129.6027964 Eh     change       -0.5195611E-04 Eh
 * total energy  :  -129.6028343 Eh     change       -0.3794480E-04 Eh
 * total energy  :  -129.6028748 Eh     change       -0.4050484E-04 Eh
 * total energy  :  -129.6028985 Eh     change       -0.2370022E-04 Eh
 * total energy  :  -129.6030522 Eh     change       -0.8996676E-06 Eh
 * total energy  :  -129.6030527 Eh     change       -0.4952059E-06 Eh
 * total energy  :  -129.6030531 Eh     change       -0.3778893E-06 Eh
 * total energy  :  -129.6030534 Eh     change       -0.3089566E-06 Eh
 * total energy  :  -129.6030537 Eh     change       -0.2562594E-06 Eh
 * total energy  :  -129.6030539 Eh     change       -0.2079584E-06 Eh
 * total energy  :  -129.6030541 Eh     change       -0.1789642E-06 Eh
 * total energy  :  -129.6030542 Eh     change       -0.1741700E-06 Eh
 * total energy  :  -129.6030543 Eh     change       -0.9433322E-07 Eh
   *** GEOMETRY OPTIMIZATION CONVERGED AFTER 38 ITERATIONS ***

 final structure:
================
86
 xtb: 6.7.1 (edcfbbe)
C            3.13177545821589        3.75662857145499       -2.52435174194002
O            3.26691164858819        2.61116640972449       -1.71012176240098
C            2.26822819488420        1.72307981112567       -1.55163893223798
C            0.97398843092238        1.85455361839051       -2.06419735760967
C            0.47238158207664        3.03455986662193       -2.64201698274899
N           -0.04710601521413        3.96434686641446       -3.07860566633953
C            0.05452036133404        0.76847595462967       -2.00505009240758
C           -1.30961015043013        0.91543579789914       -2.60210645078895
C            0.46766235234420       -0.41723852295527       -1.47090659704066
C            1.75008194138555       -0.58273542532401       -0.91850987686934
C            2.21829016869751       -1.86296595771809       -0.50755997436016
Se           1.10678048583079       -3.37127810053965       -0.44296639271735
Se          -1.78727213929197       -3.77346337475052        0.70269530628514
C           -2.51135722504304       -2.07353704824545        0.38874192393779
C           -3.62879212648396       -1.92050988542114       -0.45035122602935
C           -4.18519145193852       -3.05348214607868       -1.24590044978152
N           -4.27213254230241       -0.77350122075597       -0.53009237271069
C           -3.85011169409664        0.31773538168257        0.10915637365826
N           -4.75467529509689        1.29911671406747        0.24029010456791
C           -6.02650767070405        1.15154958561917       -0.45015061412083
C           -6.78195439097103        2.47254273573027       -0.43600131382380
C           -7.15253926237000        2.86532134989416        0.99859780509529
C           -6.09004449852546        2.35318486746168        1.97713177014850
C           -4.72310430344275        2.28724045864315        1.29710156458491
C           -2.50289885553185        0.36592036318517        0.61645718006961
C           -1.72226408211866        1.54337252130823        0.72970505957526
O           -2.27749073249841        2.64375616366976        0.17816251047473
C           -1.67353533679521        3.91572094839011        0.28027033964614
C           -0.45196356923284        1.46968001768754        1.30662145876606
C            0.45833385176191        2.53476308480435        1.36022468056804
N            1.29647056352080        3.32336310675182        1.41318111865872
C            0.03558252255215        0.23059563552951        1.81737478206409
C            1.33735227713703        0.19130905142742        2.55304958806257
C           -0.66981593202901       -0.91009781458030        1.57053002256221
C           -1.89700297172703       -0.89002123022698        0.88302712367678
C            3.58732162421606       -1.99298821644804       -0.22233085399303
C            4.22933635422311       -3.32033619413155        0.00702199139370
N            4.36810623261395       -0.93985957229485       -0.10120996362662
C            3.92243560810183        0.30538433480959       -0.27054102776203
N            4.77515020087418        1.28023498971982        0.10437941978622
C            6.18068219630220        0.97340619332793        0.28251419209631
C            6.56119065192334        0.87339487914143        1.75900656594274
C            6.19780622619906        2.17732258164105        2.46059894198444
C            4.71802812159533        2.46568270980248        2.24035798067310
C            4.37955408631998        2.51387572210197        0.74411546102487
C            2.63170932913345        0.52905287526984       -0.86924565822581
H            2.47687979001872        4.50051097529511       -2.06524461866191
H            4.13904627198710        4.16236960201123       -2.60753635924827
H            2.75758218200779        3.50320745170924       -3.51929045261633
H           -1.83481280507953        1.77016273267730       -2.17824127027828
H           -1.89762357514143        0.01806518288906       -2.42545698746826
H           -1.23539050482799        1.07939474569563       -3.67761629717418
H           -0.19251608478622       -1.27323579378846       -1.48859384181416
H           -3.40578914025745       -3.49478110293385       -1.86670676844938
H           -4.54866271083274       -3.83190315682181       -0.57485007209211
H           -5.00090669895413       -2.70017039884577       -1.86918983311638
H           -6.62452890105699        0.36357639178567        0.02269164739928
H           -5.81285311017450        0.82816483408286       -1.47125381351599
H           -7.67864314369801        2.37623210077142       -1.04738786738827
H           -6.15309630165312        3.23947554050539       -0.89011167127904
H           -8.12165366389968        2.44312253909363        1.26541958518088
H           -7.23540974731248        3.95034749399210        1.06629259413281
H           -6.34926702109279        1.35494841746907        2.33439496025925
H           -6.02154436418904        3.00789297019935        2.84582913678100
H           -4.47042306303512        3.27141793428315        0.89176314824728
H           -3.95720847775227        2.00394377319307        2.02282011041011
H           -2.39540778515034        4.61068999342289       -0.14675766593665
H           -0.74891379716918        3.97037836761795       -0.29775358388586
H           -1.47338763110447        4.18465085712463        1.32017363382021
H            1.51569360246544       -0.80481966458424        2.95026533434891
H            1.33932140878597        0.90931591031179        3.37254844990256
H            2.15860304315354        0.44930550414794        1.88350683335624
H           -0.26914111922624       -1.86684475181162        1.87431285267524
H            5.28481540687106       -3.18583281854247        0.22254049216679
H            3.74598951123821       -3.83069811586732        0.84026436027847
H            4.11060910964569       -3.94931824731244       -0.87484930045093
H            6.74585347101033        1.78826866393034       -0.18316883375344
H            6.39580731863484        0.03938302794316       -0.23478139153603
H            6.01814751068482        0.04078400343447        2.20930847422914
H            7.62935384662717        0.67255798241688        1.84194684936000
H            6.79650555514262        2.99375349610477        2.05168791548601
H            6.40828367798846        2.10502467220718        3.52857340386902
H            4.12114548672161        1.68361388521179        2.71417405638145
H            4.43504132177220        3.42035399130244        2.68400637353889
H            4.91533060977478        3.34293629792009        0.27291749888541
H            3.30879520145956        2.67845011589537        0.63858922098327

          :  Hamiltonian                  GFN2-xTB          :
         :: gradient norm              0.000052038174 Eh/a0 ::
         :: HOMO-LUMO gap              1.501878736715 eV    ::
         :: SCC energy              -131.506778243585 Eh    ::
         :: -> dispersion             -0.130608579159 Eh    ::
         :: -> Gsolv                  -0.057709758347 Eh    ::
         :: repulsion energy           1.903723921207 Eh    ::

    * Orbital Energies and Occupations

         #    Occupation            Energy/Eh            Energy/eV
      -------------------------------------------------------------
         1        2.0000           -0.7517081             -20.4550
       ...           ...                  ...                  ...
       108        2.0000           -0.4291967             -11.6790
       109        2.0000           -0.4251694             -11.5694
       110        2.0000           -0.4223394             -11.4924
       111        2.0000           -0.4059763             -11.0472
       112        2.0000           -0.4033948             -10.9769
       113        2.0000           -0.3935557             -10.7092
       114        2.0000           -0.3914533             -10.6520
       115        2.0000           -0.3876307             -10.5480
       116        2.0000           -0.3855420             -10.4911
       117        2.0000           -0.3665649              -9.9747
       118        1.9804           -0.3591994              -9.7743
       119        1.0196           -0.3517675              -9.5721
       120        1.0000           -0.3381633              -9.2019 (HOMO)
       121                         -0.2829703              -7.7000 (LUMO)
       122                         -0.2822391              -7.6801
       123                         -0.2704661              -7.3598
       124                         -0.2660339              -7.2392
       125                         -0.2256199              -6.1394
       126                         -0.2239387              -6.0937
       127                         -0.2227750              -6.0620
       128                         -0.2206081              -6.0031
       129                         -0.2025739              -5.5123
       130                         -0.2007237              -5.4620
       131                         -0.1691634              -4.6032
       ...                                ...                  ...
       234                          1.1394036              31.0048
      -------------------------------------------------------------
                  HL-Gap            0.0551930 Eh            1.5019 eV

     #   Z          covCN         q      C6AA      α(0)
     1   6 C        3.637     0.031    20.424     6.502
     2   8 O        1.706    -0.251    18.163     5.754
     3   6 C        2.852     0.149    24.767     8.157
     4   6 C        2.970    -0.042    29.042     8.840
     5   6 C        1.915     0.120    28.154     8.569
     6   7 N        0.911    -0.294    27.575     7.595
     7   6 C        2.976     0.018    27.605     8.618
     8   6 C        3.758    -0.100    22.460     6.757
     9   6 C        2.924    -0.051    29.258     8.870
    10   6 C        3.014     0.014    27.675     8.629
    11   6 C        2.961     0.020    27.554     8.610
    12  34 Se       1.283    -0.348   240.587    27.145
    13  34 Se       1.282    -0.326   239.793    27.100
    14   6 C        2.961     0.022    27.524     8.605
    15   6 C        2.973     0.108    25.602     8.300
    16   6 C        3.762    -0.111    22.672     6.787
    17   7 N        1.862    -0.280    28.125     7.861
    18   6 C        2.884     0.151    24.722     8.151
    19   7 N        2.753    -0.038    21.977     6.963
    20   6 C        3.759    -0.010    20.797     6.501
    21   6 C        3.805    -0.066    21.756     6.640
    22   6 C        3.804    -0.063    21.710     6.633
    23   6 C        3.805    -0.064    21.721     6.635
    24   6 C        3.748    -0.003    20.695     6.488
    25   6 C        2.981    -0.048    29.181     8.861
    26   6 C        2.853     0.148    24.773     8.158
    27   8 O        1.706    -0.259    18.284     5.773
    28   6 C        3.637     0.036    20.341     6.489
    29   6 C        2.970    -0.044    29.100     8.849
    30   6 C        1.916     0.120    28.137     8.566
    31   7 N        0.911    -0.311    27.987     7.651
    32   6 C        2.978     0.019    27.569     8.613
    33   6 C        3.758    -0.098    22.418     6.750
    34   6 C        2.924    -0.044    29.105     8.847
    35   6 C        3.020     0.019    27.558     8.611
    36   6 C        2.973     0.108    25.606     8.300
    37   6 C        3.763    -0.110    22.644     6.783
    38   7 N        1.861    -0.278    28.072     7.853
    39   6 C        2.874     0.154    24.658     8.140
    40   7 N        2.750    -0.043    22.066     6.977
    41   6 C        3.762    -0.014    20.862     6.511
    42   6 C        3.806    -0.064    21.717     6.634
    43   6 C        3.806    -0.062    21.684     6.629
    44   6 C        3.806    -0.062    21.677     6.628
    45   6 C        3.753    -0.010    20.806     6.504
    46   6 C        2.977    -0.048    29.186     8.862
    47   1 H        0.924     0.059     2.209     2.324
    48   1 H        0.925     0.087     1.911     2.162
    49   1 H        0.924     0.054     2.272     2.357
    50   1 H        0.925     0.056     2.247     2.344
    51   1 H        0.925     0.043     2.414     2.429
    52   1 H        0.924     0.058     2.225     2.333
    53   1 H        0.926     0.044     2.391     2.418
    54   1 H        0.925     0.062     2.179     2.308
    55   1 H        0.925     0.070     2.085     2.258
    56   1 H        0.925     0.068     2.105     2.269
    57   1 H        0.924     0.063     2.162     2.300
    58   1 H        0.924     0.069     2.099     2.266
    59   1 H        0.925     0.057     2.238     2.339
    60   1 H        0.924     0.052     2.295     2.369
    61   1 H        0.924     0.048     2.341     2.393
    62   1 H        0.924     0.049     2.332     2.388
    63   1 H        0.924     0.045     2.377     2.411
    64   1 H        0.925     0.054     2.265     2.353
    65   1 H        0.924     0.072     2.063     2.246
    66   1 H        0.924     0.045     2.384     2.415
    67   1 H        0.925     0.084     1.941     2.179
    68   1 H        0.924     0.046     2.364     2.405
    69   1 H        0.924     0.055     2.257     2.349
    70   1 H        0.925     0.051     2.310     2.377
    71   1 H        0.925     0.057     2.238     2.340
    72   1 H        0.924     0.041     2.430     2.438
    73   1 H        0.926     0.058     2.227     2.334
    74   1 H        0.925     0.068     2.109     2.271
    75   1 H        0.925     0.068     2.112     2.273
    76   1 H        0.925     0.063     2.167     2.302
    77   1 H        0.924     0.063     2.165     2.301
    78   1 H        0.925     0.071     2.074     2.252
    79   1 H        0.924     0.049     2.337     2.391
    80   1 H        0.925     0.054     2.276     2.359
    81   1 H        0.924     0.049     2.339     2.391
    82   1 H        0.924     0.048     2.347     2.396
    83   1 H        0.924     0.038     2.479     2.462
    84   1 H        0.925     0.055     2.259     2.351
    85   1 H        0.924     0.064     2.148     2.292
    86   1 H        0.925     0.065     2.136     2.286

molecular dipole:
                 x           y           z       tot (Debye)
 q only:       -0.194       4.442       0.879
   full:       -0.118       4.007       0.850      10.416

 projected vibrational frequencies (cm⁻¹)
eigval :       -0.00    -0.00    -0.00     0.00     0.00     0.00
eigval :       16.77    18.24    20.31    28.91    33.81    36.18
eigval :       40.23    47.07    49.95    55.10    57.45    60.88
eigval :       68.16    71.98    82.42    87.36    93.43    98.11
eigval :      115.94   120.16   121.24   126.88   134.63   145.04
eigval :      147.31   156.82   163.64   164.61   173.58   179.34
eigval :      182.23   192.53   196.40   203.18   208.77   221.85
eigval :      225.66   228.94   229.62   234.69   242.17   248.44
eigval :      252.54   254.01   259.14   262.35   291.81   295.26
eigval :      299.25   306.18   312.47   326.19   326.94   332.64
eigval :      333.15   360.39   366.19   385.80   395.49   414.88
eigval :      425.71   427.15   438.40   449.55   461.72   467.75
eigval :      472.87   475.47   520.49   520.95   531.13   537.60
eigval :      547.50   548.80   558.60   561.45   569.81   577.56
eigval :      598.50   598.92   603.26   607.58   621.21   638.05
eigval :      652.82   655.85   667.50   669.45   707.64   710.13
eigval :      720.57   721.03   804.42   830.78   845.85   848.79
eigval :      850.74   855.08   880.53   892.62   907.75   908.49
eigval :      938.72   940.22   957.24   962.99   965.28   972.47
eigval :      974.14   990.74   992.36   996.59   999.17  1006.44
eigval :     1007.29  1010.55  1019.51  1020.93  1029.97  1032.45
eigval :     1036.46  1038.24  1068.60  1075.96  1092.81  1093.89
eigval :     1105.40  1105.45  1111.69  1112.68  1119.16  1127.01
eigval :     1142.09  1142.59  1144.65  1146.42  1150.51  1157.39
eigval :     1165.63  1168.84  1199.24  1200.58  1206.82  1224.93
eigval :     1225.52  1228.16  1232.68  1238.68  1249.39  1252.27
eigval :     1253.77  1264.35  1276.88  1282.53  1296.63  1298.47
eigval :     1312.29  1315.01  1323.15  1325.31  1329.22  1334.36
eigval :     1336.92  1338.26  1345.87  1349.94  1350.76  1352.08
eigval :     1367.55  1371.54  1382.30  1383.00  1397.24  1401.16
eigval :     1407.08  1409.51  1416.09  1417.86  1428.72  1436.31
eigval :     1438.00  1448.07  1449.36  1450.54  1452.67  1455.18
eigval :     1456.10  1457.39  1464.43  1466.53  1468.40  1470.60
eigval :     1471.36  1472.41  1473.48  1474.31  1475.00  1476.07
eigval :     1481.15  1481.80  1485.19  1486.20  1486.46  1489.55
eigval :     1490.75  1500.35  1505.28  1513.68  1578.68  1580.65
eigval :     2327.45  2331.94  2913.36  2929.05  2940.13  2948.84
eigval :     2966.63  2969.56  2970.50  2974.86  2977.64  2980.60
eigval :     2982.37  2985.64  2986.81  2988.28  2992.12  2992.77
eigval :     2993.39  2995.39  2996.20  2998.26  3000.55  3002.18
eigval :     3002.93  3005.00  3008.25  3008.60  3009.44  3014.40
eigval :     3014.79  3016.89  3023.34  3024.37  3024.70  3026.70
eigval :     3043.56  3045.64  3060.19  3060.40  3063.62  3066.15

   temp. (K)  partition function   enthalpy   heat capacity  entropy
                                   cal/mol     cal/K/mol   cal/K/mol   J/K/mol
 298.15  VIB  0.408E+22            27968.652    161.558    177.409
         ROT  0.690E+08              888.752      2.981     38.852
         INT  0.282E+30            28857.404    164.539    216.260
         TR   0.197E+29             1481.254      4.968     45.690
         TOT                       30338.6581   169.5071   261.9500  1095.9989

       T/K    H(0)-H(T)+PV         H(T)/Eh          T*S/Eh         G(T)/Eh
   ------------------------------------------------------------------------
    298.15    0.483477E-01    0.731668E+00    0.124461E+00    0.607207E+00
   ------------------------------------------------------------------------

         :::::::::::::::::::::::::::::::::::::::::::::::::::::
         ::                  THERMODYNAMIC                  ::
         :::::::::::::::::::::::::::::::::::::::::::::::::::::
         :: total free energy        -128.995847304186 Eh   ::
         ::.................................................::
         :: total energy             -129.603054319459 Eh   ::
         :: zero point energy           0.683320196676 Eh   ::
         :: G(RRHO) w/o ZPVE           -0.076113181403 Eh   ::
         :: G(RRHO) contrib.            0.607207015274 Eh   ::
         :::::::::::::::::::::::::::::::::::::::::::::::::::::

           -------------------------------------------------
          | TOTAL ENERGY             -129.603054319459 Eh   |
          | TOTAL ENTHALPY           -128.871386393665 Eh   |
          | TOTAL FREE ENERGY        -128.995847304186 Eh   |
          | GRADIENT NORM               0.000051979706 Eh/α |
          | HOMO-LUMO GAP               1.501877601504 eV   |
           -------------------------------------------------

 * finished run on 2025/08/30 at 18:29:40.988
