   * xtb version 6.7.1 (edcfbbe) compiled by 'albert@albert-system' on 2024-07-22

   ID    Z sym.   atoms
    1    6 C      1-6, 8-13, 15-26, 28-33, 35-42
    2    7 N      7, 27
    3    8 O      14, 34
    4    1 H      43-66

          program call               : xtb data2507/gas/DPE-DPXZ/DPE-DPXZ_gas_S0_finalOpt.xtbopt.xyz --gfn 2 --spinpol --tblite --uhf 2 --ohess vtight --parallel 40 --molden --ceasefiles --namespace data2507/gas/DPE-DPXZ/DPE-DPXZ_gas_T1_preOpt
 * total energy  :  -107.4904623 Eh     change       -0.2396092E-09 Eh
 * total energy  :  -107.4958750 Eh     change       -0.5412628E-02 Eh
 * total energy  :  -107.4975228 Eh     change       -0.1647795E-02 Eh
 * total energy  :  -107.4976500 Eh     change       -0.1272778E-03 Eh
 * total energy  :  -107.4976953 Eh     change       -0.4531174E-04 Eh
 * total energy  :  -107.4977217 Eh     change       -0.2635438E-04 Eh
 * total energy  :  -107.4977419 Eh     change       -0.2020376E-04 Eh
 * total energy  :  -107.4977683 Eh     change       -0.2643733E-04 Eh
 * total energy  :  -107.4977875 Eh     change       -0.1914271E-04 Eh
 * total energy  :  -107.4978019 Eh     change       -0.1439097E-04 Eh
 * total energy  :  -107.4978332 Eh     change       -0.4327866E-05 Eh
 * total energy  :  -107.4978363 Eh     change       -0.3026187E-05 Eh
 * total energy  :  -107.4978387 Eh     change       -0.2417259E-05 Eh
 * total energy  :  -107.4978407 Eh     change       -0.2004421E-05 Eh
 * total energy  :  -107.4978422 Eh     change       -0.1567185E-05 Eh
 * total energy  :  -107.4978433 Eh     change       -0.1078806E-05 Eh
 * total energy  :  -107.4978440 Eh     change       -0.7157706E-06 Eh
 * total energy  :  -107.4978445 Eh     change       -0.5065320E-06 Eh
 * total energy  :  -107.4978445 Eh     change       -0.4672444E-08 Eh
   *** GEOMETRY OPTIMIZATION CONVERGED AFTER 22 ITERATIONS ***

 final structure:
================
66
 xtb: 6.7.1 (edcfbbe)
C            0.61769661483708        0.00283766414295       -0.00831871657299
C           -0.61798817425209        0.00307131273316       -0.00812868580460
C           -1.98362495939673        0.00278764671577       -0.00685399946290
C           -2.72157272714662       -0.62228047687498        1.04492373343030
C           -4.08436621329423       -0.62867648865819        1.03544820358990
C           -4.79733437061559        0.00171687474103       -0.00307329175551
N           -6.20501857368547        0.00122024116073       -0.00119182099434
C           -6.91417284484683       -1.19492400237772       -0.03043615569551
C           -6.27921853247994       -2.43166476922884       -0.12708238948383
C           -7.01354652955856       -3.60407061485844       -0.14917968051491
C           -8.39491565536038       -3.56843479181350       -0.08958543709002
C           -9.04607895386938       -2.34640334800641       -0.03357207091160
C           -8.31812444495380       -1.16963694909982       -0.01253459596515
O           -9.02819673203692        0.00045329496454        0.00169676395661
C           -8.31874845716746        1.17092428458807        0.01537886325477
C           -9.04726651273522        2.34729531051806        0.03884968385082
C           -8.39661243543827        3.56961406196375        0.09453974508559
C           -7.01513912997799        3.60592426208945        0.15131975019998
C           -6.28025417023519        2.43392176749015        0.12669852125286
C           -6.91478334162905        1.19693794181993        0.03038611463791
C           -4.08759369089989        0.63271853024057       -1.04343895669710
C           -2.72480075049049        0.62735221529620       -1.05661475296418
C            1.98328720379563        0.00192050430172       -0.00719906796359
C            2.72472228246574        0.61936624941595       -1.06105012297084
C            4.08748325179220        0.62346935651877       -1.04848436953714
C            4.79721095295560       -0.00038834580642       -0.00367351990787
N            6.20475753609973       -0.00142003529057       -0.00184924339967
C            6.91513871270014        1.19430390393471        0.01626421884222
C            6.28137268419776        2.43271292437353        0.09887920497129
C            7.01684923684605        3.60454430004576        0.10934344004194
C            8.39826841745010        3.56692597022827        0.05203792577984
C            9.04824068003252        2.34369627119807        0.01051116701312
C            8.31909751293520        1.16749996910302        0.00118233872065
O            9.02805193203124       -0.00330422440446        0.00133749780032
C            8.31752284225060       -1.17315658524394        0.00070124317368
C            9.04513576899280       -2.35031685602868       -0.00611468817098
C            8.39365748687022       -3.57272505306414       -0.04820035426475
C            7.01232613222493       -3.60856387661303       -0.10863048339382
C            6.27836949791804       -2.43575694926427       -0.10075357274441
C            6.91356167133807       -1.19811500524923       -0.01757398475522
C            4.08388977514563       -0.62307766985653        1.03938317835157
C            2.72113789803610       -0.61675722650339        1.04849148850243
H           -2.17429817002853       -1.08167240514097        1.85456782564972
H           -4.63740141792088       -1.09085914935128        1.84147033390805
H           -5.20400454822126       -2.46932102089965       -0.19592161068274
H           -6.49664720273707       -4.54859620126957       -0.21977657966496
H           -8.96870142736902       -4.48148181651360       -0.10238114836444
H          -10.12215734584067       -2.28161036769281       -0.01294152875903
H          -10.12335152080975        2.28196992602093        0.02035141072691
H           -8.97084181151073        4.48235238790476        0.10930398258209
H           -6.49859150620875        4.55065815152585        0.22169592154185
H           -5.20491245506038        2.47203872704193        0.19330460638175
H           -4.64315936955216        1.09460526426851       -1.84789274132000
H           -2.18009773500507        1.08724998795311       -1.86770625195117
H            2.18016060030501        1.07400671495283       -1.87519967988791
H            4.64306228530288        1.07873535181172       -1.85670151658358
H            5.20612735330905        2.47230538707538        0.16597153769762
H            6.50078168827891        4.55028040963671        0.16896635806473
H            8.97295225665177        4.47948858895131        0.05560462916911
H           10.12428105844629        2.27755643472108       -0.00762360500263
H           10.12121791037548       -2.28557273250751        0.01440641713678
H            8.96714569940591       -4.48604498571956       -0.04973594546049
H            6.49514754725627       -4.55366670714637       -0.16866758692550
H            5.20323478389873       -2.47401556557968       -0.17030514863136
H            4.63668276557702       -1.07912427067383        1.84906592908595
H            2.17374692392382       -1.07043629147121        1.86127771497544

 projected vibrational frequencies (cm⁻¹)
eigval :       -0.00    -0.00    -0.00     0.00     0.00     0.00
eigval :        8.97    12.34    13.59    24.99    29.92    39.92
eigval :       58.89    64.36    65.20    71.76    85.13    92.37
eigval :      103.17   119.29   123.18   124.58   185.81   195.34
eigval :      197.62   201.89   241.98   249.01   256.67   273.46
eigval :      274.64   277.54   298.67   331.84   361.01   370.87
eigval :      372.84   374.51   381.15   383.71   395.12   419.98
eigval :      420.79   422.50   434.52   435.74   443.32   452.33
eigval :      453.31   459.97   465.19   476.24   504.38   504.50
eigval :      527.06   527.16   530.27   537.84   538.79   582.20
eigval :      582.79   596.04   605.54   608.34   619.42   637.87
eigval :      640.39   657.79   664.12   666.26   667.57   667.58
eigval :      680.41   715.22   776.15   776.44   778.47   778.55
eigval :      787.27   788.29   793.37   801.12   819.67   822.00
eigval :      835.51   855.38   855.54   865.15   865.20   865.70
eigval :      865.81   896.82   897.06   897.10   897.25   897.58
eigval :      902.32   905.78   905.96   912.28   912.39   913.43
eigval :      913.49   918.55   918.71   920.26   920.51   979.94
eigval :      983.22  1086.89  1086.93  1087.51  1088.27  1111.31
eigval :     1111.38  1118.66  1120.18  1124.48  1127.98  1153.29
eigval :     1158.68  1170.50  1174.39  1174.42  1175.72  1184.07
eigval :     1191.27  1203.00  1207.19  1207.24  1221.62  1232.25
eigval :     1235.13  1236.51  1243.16  1247.87  1256.16  1256.19
eigval :     1301.68  1302.60  1305.15  1311.56  1315.19  1315.66
eigval :     1326.51  1328.09  1344.20  1347.68  1376.14  1378.99
eigval :     1384.00  1417.45  1417.54  1422.54  1441.59  1442.28
eigval :     1456.20  1456.42  1473.54  1473.91  1483.61  1484.02
eigval :     1497.04  1534.15  1553.77  1553.91  1561.84  1562.01
eigval :     1576.30  1579.06  1583.76  1589.23  1599.67  2136.64
eigval :     3065.40  3065.50  3067.06  3067.24  3086.54  3087.41
eigval :     3088.17  3088.91  3092.52  3092.54  3092.61  3092.64
eigval :     3102.11  3102.15  3102.26  3102.43  3112.53  3112.59
eigval :     3113.06  3113.14  3114.30  3114.39  3114.46  3115.16

   temp. (K)  partition function   enthalpy   heat capacity  entropy
                                   cal/mol     cal/K/mol   cal/K/mol   J/K/mol
 298.15  VIB  0.961E+15            19212.259    123.250    119.057
         ROT  0.458E+08              888.752      2.981     38.038
         INT  0.441E+23            20101.012    126.231    157.094
         TR   0.122E+29             1481.254      4.968     44.728
         TOT                       21582.2655   131.1995   201.8223   844.4243

       T/K    H(0)-H(T)+PV         H(T)/Eh          T*S/Eh         G(T)/Eh
   ------------------------------------------------------------------------
    298.15    0.343935E-01    0.526843E+00    0.958923E-01    0.430951E+00
   ------------------------------------------------------------------------

         :::::::::::::::::::::::::::::::::::::::::::::::::::::
         ::                  THERMODYNAMIC                  ::
         :::::::::::::::::::::::::::::::::::::::::::::::::::::
         :: total free energy        -107.066893764339 Eh   ::
         ::.................................................::
         :: total energy             -107.497844547193 Eh   ::
         :: zero point energy           0.492449522583 Eh   ::
         :: G(RRHO) w/o ZPVE           -0.061498739729 Eh   ::
         :: G(RRHO) contrib.            0.430950782854 Eh   ::
         :::::::::::::::::::::::::::::::::::::::::::::::::::::

           -------------------------------------------------
          | TOTAL ENERGY             -107.497844547193 Eh   |
          | TOTAL ENTHALPY           -106.971001495230 Eh   |
          | TOTAL FREE ENERGY        -107.066893764339 Eh   |
          | GRADIENT NORM               0.000045988314 Eh/α |
           -------------------------------------------------

 * finished run on 2025/09/09 at 21:37:21.868
