   * xtb version 6.7.1 (edcfbbe) compiled by 'albert@albert-system' on 2024-07-22

   ID    Z sym.   atoms
    1    6 C      1-6, 8-13, 15-26, 28-33, 35-42
    2    7 N      7, 27
    3    8 O      14, 34
    4    1 H      43-66

          program call               : xtb data2507/gas/DPE-DPXZ/DPE-DPXZ_gas_S0_crest.xyz --gfn 2 --ohess vtight --parallel 40 --molden --ceasefiles --namespace data2507/gas/DPE-DPXZ/DPE-DPXZ_gas_S0_finalOpt
          :  Hamiltonian                  GFN2-xTB          :
 * total energy  :  -107.5759850 Eh     change       -0.5589300E-08 Eh
 * total energy  :  -107.5759861 Eh     change       -0.1111794E-05 Eh
 * total energy  :  -107.5759872 Eh     change       -0.1098982E-05 Eh
 * total energy  :  -107.5759889 Eh     change       -0.1675849E-05 Eh
 * total energy  :  -107.5759895 Eh     change       -0.5697248E-06 Eh
 * total energy  :  -107.5759895 Eh     change       -0.7511244E-07 Eh
 * total energy  :  -107.5759902 Eh     change       -0.6284473E-06 Eh
 * total energy  :  -107.5759902 Eh     change       -0.1410319E-07 Eh
 * total energy  :  -107.5759908 Eh     change       -0.5952285E-06 Eh
 * total energy  :  -107.5759911 Eh     change       -0.3323126E-06 Eh
 * total energy  :  -107.5759913 Eh     change       -0.1431986E-06 Eh
 * total energy  :  -107.5759914 Eh     change       -0.1279898E-06 Eh
 * total energy  :  -107.5759914 Eh     change       -0.6524940E-07 Eh
   *** GEOMETRY OPTIMIZATION CONVERGED AFTER 13 ITERATIONS ***

 final structure:
================
66
 xtb: 6.7.1 (edcfbbe)
C            0.60406001798741        0.00458203992771       -0.01046270804832
C           -0.60424457470144        0.00439187315216       -0.00963288512059
C           -2.01335036713574        0.00357381056289       -0.00851435567511
C           -2.71760515991678       -0.55758003789400        1.06017666416513
C           -4.09622837384628       -0.55528495383389        1.06151038662776
C           -4.79761767816151        0.00179316978081       -0.00532053655229
N           -6.20910523444432        0.00106590820739       -0.00329946723402
C           -6.91766984663835       -1.20140605097223       -0.03988615040677
C           -6.28371791418767       -2.43374446596717       -0.13477952424535
C           -7.01824062083163       -3.60955471153516       -0.17102646731676
C           -8.39661463857155       -3.57302708015107       -0.12366578083338
C           -9.04593137701390       -2.34859745633134       -0.05869444287042
C           -8.31882203320222       -1.17384981644428       -0.02437646095098
O           -9.03229880101438       -0.00106077832907        0.00889779380605
C           -8.32029035361727        1.17278730285472        0.03556914658356
C           -9.04891067312652        2.34641441714025        0.07585862191681
C           -8.40101346984615        3.57189211644497        0.13474731895801
C           -7.02233808901091        3.61060338346489        0.16996641712462
C           -6.28631043628995        2.43593556728061        0.12780609205530
C           -6.91909048979830        1.20254313032220        0.03902933469941
C           -4.09941393501732        0.55958361811295       -1.07384593206414
C           -2.72074534091990        0.56367855010174       -1.07563964464546
C            2.01315842250687        0.00404044148375       -0.00948086210749
C            2.72047510973049        0.55306513084841       -1.08238327291797
C            4.09915835060430        0.54854850954321       -1.08094306447836
C            4.79751201091344        0.00176165658762       -0.00683153152684
N            6.20892925397855       -0.00012071364238       -0.00516592825655
C            6.92038930030237        1.20097066012278        0.02223330081361
C            6.28923209578404        2.43631762727016        0.09381668272731
C            7.02680119448001        3.61046333159195        0.12125233531970
C            8.40546320253886        3.56948966578521        0.08831546491693
C            9.05174307875844        2.34246399983449        0.04666864126118
C            8.32157043016711        1.16938555892809        0.02110117876184
O            9.03216626168079       -0.00557509844952        0.01133923999122
C            8.31731372621269       -1.17778934491214       -0.00827783656548
C            9.04305886657010       -2.35375424532306       -0.02665938438876
C            8.39238896065325       -3.57812214251861       -0.07736778952668
C            7.01405320045060       -3.61356798851794       -0.12679073224703
C            6.28092734355573       -2.43651614401491       -0.10655684369596
C            6.91617118879092       -1.20382447981763       -0.02570646219055
C            4.09613014597463       -0.54379974633035        1.06600068263557
C            2.71753974168424       -0.54604575580279        1.06488169766695
H           -2.17226732529955       -0.98640106547445        1.88786839580735
H           -4.64288085094462       -0.98168635639534        1.88989785395178
H           -5.20706162820229       -2.47611960021055       -0.18857711195053
H           -6.49854192610400       -4.55288184556967       -0.24023961030092
H           -8.97265407299947       -4.48455796519649       -0.14725771226903
H          -10.12208563623668       -2.28354235222077       -0.03889203182112
H          -10.12508981145739        2.27964298452985        0.06563482748096
H           -8.97825684733752        4.48251944397735        0.16312471830205
H           -6.50353256046291        4.55477589592348        0.23417484340775
H           -5.20931063101896        2.48010371343565        0.17227527912018
H           -4.64847750776433        0.98507334730184       -1.90110322889172
H           -2.17786027557634        0.99317169708610       -1.90459556154343
H            2.17755101803200        0.97399728461905       -1.91569697606720
H            4.64804483698894        0.96499071206401       -1.91290320488015
H            5.21225623835027        2.48263828267765        0.13649798207022
H            6.50916317469949        4.55608412911308        0.17218851252976
H            8.98390811828297        4.47964255754062        0.10523301416259
H           10.12784431244959        2.27406932155760        0.03884218752358
H           10.11924911554910       -2.28972528736068       -0.00582315248763
H            8.96735092005122       -4.49056664353286       -0.08838391426383
H            6.49330551689658       -4.55704905419832       -0.18516546350992
H            5.20433209976320       -2.47833771632566       -0.16187750424645
H            4.64284894344020       -0.96149143590579        1.89877032385418
H            2.17227979606780       -0.96609297409729        1.89711103945588

          :  Hamiltonian                  GFN2-xTB          :
         :: gradient norm              0.000042776508 Eh/a0 ::
         :: HOMO-LUMO gap              1.813649715415 eV    ::
         :: SCC energy              -109.539306358354 Eh    ::
         :: -> dispersion             -0.086885419239 Eh    ::
         :: repulsion energy           1.963314910678 Eh    ::

    * Orbital Energies and Occupations

         #    Occupation            Energy/Eh            Energy/eV
      -------------------------------------------------------------
         1        2.0000           -0.7251277             -19.7317
       ...           ...                  ...                  ...
        87        2.0000           -0.4220194             -11.4837
        88        2.0000           -0.4184042             -11.3854
        89        2.0000           -0.4182654             -11.3816
        90        2.0000           -0.4133987             -11.2492
        91        2.0000           -0.4133686             -11.2483
        92        2.0000           -0.4104787             -11.1697
        93        2.0000           -0.4102199             -11.1627
        94        2.0000           -0.4101713             -11.1613
        95        2.0000           -0.3908063             -10.6344
        96        2.0000           -0.3879950             -10.5579
        97        2.0000           -0.3840951             -10.4518
        98        2.0000           -0.3410875              -9.2815
        99        2.0000           -0.3396126              -9.2413 (HOMO)
       100                         -0.2729622              -7.4277 (LUMO)
       101                         -0.2378978              -6.4735
       102                         -0.2378879              -6.4733
       103                         -0.2356212              -6.4116
       104                         -0.2355918              -6.4108
       105                         -0.2293812              -6.2418
       106                         -0.2271563              -6.1812
       107                         -0.2271279              -6.1805
       108                         -0.2126407              -5.7862
       109                         -0.2105922              -5.7305
       110                         -0.1939824              -5.2785
       ...                                ...                  ...
       192                          1.4252780              38.7838
      -------------------------------------------------------------
                  HL-Gap            0.0666504 Eh            1.8136 eV

     #   Z          covCN         q      C6AA      α(0)
     1   6 C        1.982    -0.040    32.137     9.155
     2   6 C        1.982    -0.040    32.137     9.155
     3   6 C        2.971     0.036    27.190     8.553
     4   6 C        2.927    -0.029    28.729     8.790
     5   6 C        2.920    -0.040    28.986     8.829
     6   6 C        2.921     0.065    26.539     8.448
     7   7 N        2.751    -0.073    22.653     7.069
     8   6 C        2.922     0.043    27.041     8.528
     9   6 C        2.924    -0.060    29.502     8.907
    10   6 C        2.919    -0.039    28.971     8.827
    11   6 C        2.919    -0.041    29.014     8.833
    12   6 C        2.920    -0.057    29.405     8.892
    13   6 C        2.884     0.124    25.274     8.242
    14   8 O        1.709    -0.257    18.250     5.768
    15   6 C        2.884     0.124    25.274     8.242
    16   6 C        2.920    -0.057    29.405     8.892
    17   6 C        2.919    -0.041    29.014     8.833
    18   6 C        2.919    -0.039    28.971     8.827
    19   6 C        2.924    -0.060    29.503     8.907
    20   6 C        2.922     0.043    27.041     8.528
    21   6 C        2.920    -0.040    28.986     8.829
    22   6 C        2.927    -0.029    28.730     8.790
    23   6 C        2.971     0.036    27.191     8.553
    24   6 C        2.927    -0.029    28.730     8.790
    25   6 C        2.920    -0.040    28.987     8.829
    26   6 C        2.921     0.065    26.539     8.448
    27   7 N        2.751    -0.073    22.652     7.069
    28   6 C        2.922     0.043    27.041     8.528
    29   6 C        2.924    -0.060    29.503     8.907
    30   6 C        2.919    -0.039    28.971     8.827
    31   6 C        2.919    -0.041    29.013     8.833
    32   6 C        2.920    -0.057    29.405     8.892
    33   6 C        2.884     0.124    25.274     8.242
    34   8 O        1.709    -0.257    18.250     5.768
    35   6 C        2.884     0.124    25.273     8.242
    36   6 C        2.920    -0.057    29.405     8.892
    37   6 C        2.919    -0.041    29.013     8.833
    38   6 C        2.919    -0.039    28.971     8.827
    39   6 C        2.924    -0.060    29.502     8.907
    40   6 C        2.922     0.043    27.041     8.528
    41   6 C        2.920    -0.040    28.987     8.829
    42   6 C        2.927    -0.029    28.730     8.790
    43   1 H        0.926     0.039     2.465     2.455
    44   1 H        0.926     0.040     2.450     2.448
    45   1 H        0.926     0.033     2.539     2.492
    46   1 H        0.926     0.035     2.521     2.483
    47   1 H        0.926     0.037     2.491     2.468
    48   1 H        0.926     0.049     2.327     2.386
    49   1 H        0.926     0.049     2.327     2.386
    50   1 H        0.926     0.037     2.491     2.468
    51   1 H        0.926     0.035     2.521     2.483
    52   1 H        0.926     0.033     2.538     2.491
    53   1 H        0.926     0.040     2.450     2.448
    54   1 H        0.926     0.039     2.465     2.455
    55   1 H        0.926     0.039     2.465     2.455
    56   1 H        0.926     0.040     2.449     2.447
    57   1 H        0.926     0.033     2.537     2.491
    58   1 H        0.926     0.035     2.521     2.483
    59   1 H        0.926     0.037     2.490     2.468
    60   1 H        0.926     0.049     2.327     2.386
    61   1 H        0.926     0.049     2.327     2.386
    62   1 H        0.926     0.037     2.490     2.468
    63   1 H        0.926     0.035     2.521     2.483
    64   1 H        0.926     0.033     2.538     2.491
    65   1 H        0.926     0.040     2.451     2.448
    66   1 H        0.926     0.039     2.466     2.456

molecular dipole:
                 x           y           z       tot (Debye)
 q only:        0.003       0.001      -0.005
   full:        0.003       0.001      -0.004       0.013

 projected vibrational frequencies (cm⁻¹)
eigval :       -0.00    -0.00    -0.00     0.00     0.00     0.00
eigval :        4.60     9.10    13.26    25.76    27.18    37.19
eigval :       48.72    53.32    54.93    55.91    71.29    92.92
eigval :      105.44   115.34   116.84   122.04   189.93   193.95
eigval :      195.50   208.95   245.02   250.34   255.28   268.88
eigval :      271.24   272.96   300.26   360.78   366.15   373.26
eigval :      374.96   377.01   391.47   395.48   403.23   420.16
eigval :      429.25   430.42   431.01   432.33   442.16   442.34
eigval :      458.10   468.13   495.74   504.37   510.34   510.48
eigval :      522.19   522.29   538.75   548.79   552.90   587.21
eigval :      588.06   597.09   613.18   615.67   624.10   658.35
eigval :      660.04   661.18   661.20   663.74   682.06   683.03
eigval :      687.61   726.18   778.27   778.39   778.48   778.65
eigval :      794.12   804.00   811.60   816.59   853.63   854.63
eigval :      854.67   862.14   862.15   864.25   864.33   870.71
eigval :      870.97   895.86   895.89   897.04   897.07   912.49
eigval :      912.65   914.24   914.26   916.00   916.16   917.82
eigval :      922.28   922.46   929.21   929.65   934.73  1012.92
eigval :     1022.71  1090.21  1090.24  1091.49  1091.54  1108.10
eigval :     1108.12  1120.90  1121.02  1127.65  1130.14  1159.60
eigval :     1171.46  1171.50  1175.87  1175.88  1181.42  1183.52
eigval :     1189.66  1195.08  1201.02  1201.07  1221.80  1227.36
eigval :     1243.20  1243.25  1260.30  1262.06  1262.12  1263.15
eigval :     1297.41  1306.11  1309.13  1310.94  1311.33  1315.22
eigval :     1340.89  1341.08  1347.68  1357.07  1367.56  1401.18
eigval :     1404.70  1424.31  1424.51  1442.97  1443.45  1469.86
eigval :     1489.76  1490.22  1497.38  1506.75  1508.53  1545.27
eigval :     1548.62  1567.15  1567.19  1581.10  1581.12  1581.40
eigval :     1589.45  1590.71  1593.67  1604.20  1604.22  2316.82
eigval :     3081.75  3082.00  3083.20  3083.61  3087.87  3087.89
eigval :     3087.96  3088.00  3093.40  3093.95  3094.11  3095.05
eigval :     3097.93  3097.97  3098.03  3098.08  3104.62  3104.69
eigval :     3105.28  3105.32  3112.33  3112.34  3112.88  3112.93

   temp. (K)  partition function   enthalpy   heat capacity  entropy
                                   cal/mol     cal/K/mol   cal/K/mol   J/K/mol
 298.15  VIB  0.589E+16            19130.184    121.123    119.983
         ROT  0.459E+08              888.752      2.981     38.041
         INT  0.270E+24            20018.936    124.104    158.024
         TR   0.122E+29             1481.254      4.968     44.728
         TOT                       21500.1899   129.0718   202.7516   848.3126

       T/K    H(0)-H(T)+PV         H(T)/Eh          T*S/Eh         G(T)/Eh
   ------------------------------------------------------------------------
    298.15    0.342627E-01    0.529871E+00    0.963338E-01    0.433537E+00
   ------------------------------------------------------------------------

         :::::::::::::::::::::::::::::::::::::::::::::::::::::
         ::                  THERMODYNAMIC                  ::
         :::::::::::::::::::::::::::::::::::::::::::::::::::::
         :: total free energy        -107.142454485126 Eh   ::
         ::.................................................::
         :: total energy             -107.575991447657 Eh   ::
         :: zero point energy           0.495608045736 Eh   ::
         :: G(RRHO) w/o ZPVE           -0.062071083204 Eh   ::
         :: G(RRHO) contrib.            0.433536962532 Eh   ::
         :::::::::::::::::::::::::::::::::::::::::::::::::::::

           -------------------------------------------------
          | TOTAL ENERGY             -107.575991447657 Eh   |
          | TOTAL ENTHALPY           -107.046120668346 Eh   |
          | TOTAL FREE ENERGY        -107.142454485126 Eh   |
          | GRADIENT NORM               0.000042773378 Eh/α |
          | HOMO-LUMO GAP               1.813649446322 eV   |
           -------------------------------------------------

 * finished run on 2025/09/09 at 21:37:16.209
