   * xtb version 6.7.1 (edcfbbe) compiled by 'albert@albert-system' on 2024-07-22

   ID    Z sym.   atoms
    1    6 C      1-6, 8-13, 15-26, 28-33, 35-42
    2    7 N      7, 27
    3    8 O      14, 34
    4    1 H      43-66

          program call               : xtb data2507/gas/DPE-DPXZ/DPE-DPXZ_gas_T1_crest.xyz --gfn 2 --spinpol --tblite --uhf 2 --ohess vtight --parallel 40 --molden --ceasefiles --namespace data2507/gas/DPE-DPXZ/DPE-DPXZ_gas_T1_finalOpt
 * total energy  :  -107.4978215 Eh     change       -0.1659915E-07 Eh
 * total energy  :  -107.4978289 Eh     change       -0.7323042E-05 Eh
 * total energy  :  -107.4978306 Eh     change       -0.1699710E-05 Eh
 * total energy  :  -107.4978311 Eh     change       -0.5712183E-06 Eh
 * total energy  :  -107.4978317 Eh     change       -0.5974617E-06 Eh
 * total energy  :  -107.4978326 Eh     change       -0.9072861E-06 Eh
 * total energy  :  -107.4978337 Eh     change       -0.1071480E-05 Eh
 * total energy  :  -107.4978344 Eh     change       -0.7006205E-06 Eh
 * total energy  :  -107.4978352 Eh     change       -0.7976771E-06 Eh
 * total energy  :  -107.4978356 Eh     change       -0.4331659E-06 Eh
 * total energy  :  -107.4978375 Eh     change       -0.2560147E-06 Eh
 * total energy  :  -107.4978377 Eh     change       -0.2061215E-06 Eh
 * total energy  :  -107.4978379 Eh     change       -0.2367644E-06 Eh
 * total energy  :  -107.4978381 Eh     change       -0.1910864E-06 Eh
 * total energy  :  -107.4978384 Eh     change       -0.2336639E-06 Eh
 * total energy  :  -107.4978386 Eh     change       -0.2435670E-06 Eh
 * total energy  :  -107.4978388 Eh     change       -0.2154573E-06 Eh
 * total energy  :  -107.4978388 Eh     change       -0.9014855E-08 Eh
 * total energy  :  -107.4978388 Eh     change       -0.6876419E-08 Eh
   *** GEOMETRY OPTIMIZATION CONVERGED AFTER 23 ITERATIONS ***

 final structure:
================
66
 xtb: 6.7.1 (edcfbbe)
C            0.61782291432857        0.05861483386973        0.02397316627310
C           -0.61789583029080        0.05912311795142        0.02515855552672
C           -1.98352984573933        0.05235086935179        0.02350505790886
C           -2.72073328623355       -0.59156383566355        1.06440335501668
C           -4.08331639429163       -0.61122071864701        1.04771967543409
C           -4.79745916133420        0.02315744617220        0.01230353410546
N           -6.20481780275146        0.00278663240759        0.00320781863933
C           -6.89648772164714       -1.20331943211840       -0.04148300676758
C           -6.24331245508567       -2.43035105858645       -0.14102892747892
C           -6.96058466450830       -3.61293293932450       -0.17682404791809
C           -8.34275788430057       -3.59745968555299       -0.12862461116198
C           -9.01167334440577       -2.38515135473141       -0.07118429621020
C           -8.30076737521427       -1.19829773783925       -0.03662863684692
O           -9.02780108859885       -0.03871721350515       -0.02292234194390
C           -8.33552565311778        1.14171639369816        0.00373665971445
C           -9.08132940406959        2.30725773591174        0.02411385383795
C           -8.44925881826982        3.53859163558309        0.09330716868233
C           -7.06925906998849        3.59451025590398        0.16753750888591
C           -6.31716735086553        2.43342462655137        0.14580902781033
C           -6.93232237861583        1.18787520517694        0.03468925431860
C           -4.08847259584444        0.67597892156078       -1.01518101044203
C           -2.72566419877522        0.68538482287452       -1.02049590433849
C            1.98343693077035        0.05070924475716        0.02084992389410
C            2.72521652258462        0.68139344534979       -1.02483617464781
C            4.08803966503407        0.67156188043731       -1.02027130149321
C            4.79742759869078        0.02096303230375        0.00834848484593
N            6.20475906369099        0.00121277224400       -0.00015958000095
C            6.93208641321997        1.18651371395080        0.02953841692428
C            6.31665632825739        2.43252668955652        0.13376168609739
C            7.06871528862713        3.59367296911190        0.15365370728793
C            8.44896116294589        3.53745818921594        0.08456815529593
C            9.08118720775468        2.30583900415387        0.02246748479777
C            8.33540330584763        1.14024250078647        0.00386982021770
O            9.02786445502720       -0.04022361997198       -0.01542474307167
C            8.30097311744515       -1.19987902658939       -0.02862179869490
C            9.01201793047842       -2.38681984078970       -0.05661961327623
C            8.34333732714662       -3.59929183559538       -0.11336043383911
C            6.96137968711672       -3.61489853759351       -0.16767416857800
C            6.24397546018404       -2.43223676282490       -0.13825875494800
C            6.89673002771969       -1.20492045496583       -0.03914479388517
C            4.08356794617219       -0.61189231092634        1.04496404157283
C            2.72103423848031       -0.59215967285109        1.06213397272919
H           -2.17319261062915       -1.05550242457439        1.87127239268918
H           -4.63569182361422       -1.08829273610727        1.84547847034743
H           -5.16718169944958       -2.45257631054101       -0.20131729665225
H           -6.42959760824570       -4.54948746626327       -0.24905056728037
H           -8.90327946194021       -4.51850736728518       -0.15168552364879
H          -10.08870310521025       -2.33567339781501       -0.05992443452229
H          -10.15604970844250        2.22634698603143       -0.00751410078608
H           -9.03680409716035        4.44285602931763        0.10510466751309
H           -6.56741585050281        4.54623446773759        0.24919658818260
H           -5.24341970143995        2.48680355171327        0.22613432033750
H           -4.64415936180817        1.14238576178383       -1.81693014513106
H           -2.18151870292199        1.16214862484452       -1.82216660930355
H            2.18080639732238        1.15665744844175       -1.82722061394502
H            4.64335635300996        1.13595211485124       -1.82344584320822
H            5.24266373439135        2.48636510914962        0.21024732958045
H            6.56659919064510        4.54570775441189        0.22983509240364
H            9.03649888917912        4.44174380541317        0.09497922401532
H           10.15601202898204        2.22472551664951       -0.00479793471354
H           10.08898850046795       -2.33730309056071       -0.04080318758023
H            8.90393514375215       -4.52040869978564       -0.13119055975991
H            6.43071536816908       -4.55165487353181       -0.23964791654126
H            5.16810851505960       -2.45459030616672       -0.20313800403332
H            4.63621563927106       -1.08777248456705        1.84324364236135
H            2.17377885924054       -1.05488268045194        1.86989064720267

 projected vibrational frequencies (cm⁻¹)
eigval :       -0.00    -0.00     0.00     0.00     0.00     0.00
eigval :        9.05    12.39    13.74    25.03    30.02    40.02
eigval :       59.16    64.46    65.11    71.92    85.32    92.50
eigval :      103.30   119.54   123.29   124.96   186.08   195.27
eigval :      197.83   202.15   241.80   249.10   256.89   273.49
eigval :      274.64   277.78   298.59   331.85   361.05   370.76
eigval :      372.76   374.59   381.23   383.79   395.34   420.03
eigval :      420.84   422.37   434.61   436.41   443.45   452.47
eigval :      453.31   459.91   465.22   476.25   504.38   504.47
eigval :      527.06   527.15   530.12   537.83   538.77   582.14
eigval :      582.73   595.99   605.48   608.26   619.45   637.84
eigval :      640.36   657.81   664.16   666.28   667.56   667.57
eigval :      680.32   714.70   775.98   776.28   778.24   778.39
eigval :      787.22   788.24   793.37   801.48   819.61   821.96
eigval :      836.20   855.43   855.47   864.93   865.06   865.55
eigval :      865.72   896.77   896.90   896.95   897.05   897.39
eigval :      902.29   905.87   905.97   912.19   912.38   913.36
eigval :      913.40   918.63   918.64   920.46   920.55   979.84
eigval :      983.52  1086.90  1086.93  1087.50  1088.21  1111.27
eigval :     1111.34  1118.69  1120.33  1124.39  1127.89  1152.40
eigval :     1158.38  1170.29  1174.25  1174.27  1175.55  1183.98
eigval :     1191.20  1202.52  1207.19  1207.22  1221.33  1233.02
eigval :     1235.04  1236.41  1243.12  1247.83  1256.03  1256.37
eigval :     1301.50  1302.39  1304.98  1312.06  1315.15  1315.61
eigval :     1326.44  1328.01  1344.26  1346.84  1376.13  1379.05
eigval :     1383.88  1417.36  1417.37  1422.80  1441.46  1442.16
eigval :     1456.18  1456.39  1473.51  1473.82  1482.54  1484.14
eigval :     1497.33  1533.77  1553.71  1553.74  1561.75  1561.81
eigval :     1576.33  1578.18  1583.16  1589.16  1599.74  2136.27
eigval :     3065.32  3065.39  3066.89  3067.12  3086.32  3087.25
eigval :     3087.54  3088.65  3092.42  3092.44  3092.50  3092.55
eigval :     3102.03  3102.05  3102.14  3102.33  3112.36  3112.45
eigval :     3112.84  3112.99  3114.31  3114.34  3114.41  3114.96

   temp. (K)  partition function   enthalpy   heat capacity  entropy
                                   cal/mol     cal/K/mol   cal/K/mol   J/K/mol
 298.15  VIB  0.917E+15            19208.622    123.264    118.998
         ROT  0.917E+08              888.752      2.981     39.415
         INT  0.841E+23            20097.375    126.245    158.413
         TR   0.122E+29             1481.254      4.968     44.728
         TOT                       21578.6285   131.2128   203.1409   849.9416

       T/K    H(0)-H(T)+PV         H(T)/Eh          T*S/Eh         G(T)/Eh
   ------------------------------------------------------------------------
    298.15    0.343877E-01    0.526818E+00    0.965188E-01    0.430299E+00
   ------------------------------------------------------------------------

         :::::::::::::::::::::::::::::::::::::::::::::::::::::
         ::                  THERMODYNAMIC                  ::
         :::::::::::::::::::::::::::::::::::::::::::::::::::::
         :: total free energy        -107.067539965386 Eh   ::
         ::.................................................::
         :: total energy             -107.497838890392 Eh   ::
         :: zero point energy           0.492429993834 Eh   ::
         :: G(RRHO) w/o ZPVE           -0.062131068828 Eh   ::
         :: G(RRHO) contrib.            0.430298925007 Eh   ::
         :::::::::::::::::::::::::::::::::::::::::::::::::::::

           -------------------------------------------------
          | TOTAL ENERGY             -107.497838890392 Eh   |
          | TOTAL ENTHALPY           -106.971021163232 Eh   |
          | TOTAL FREE ENERGY        -107.067539965386 Eh   |
          | GRADIENT NORM               0.000064013510 Eh/α |
           -------------------------------------------------

 * finished run on 2025/09/09 at 21:41:30.491
