   * xtb version 6.7.1 (edcfbbe) compiled by 'albert@albert-system' on 2024-07-22

   ID    Z sym.   atoms
    1    6 C      1-9, 11-21, 23-39, 41, 43-50
    2    7 N      10, 22, 40, 42
    3    1 H      51-88

          program call               : xtb data2507/gas/AcHPM/AcHPM_gas_S0_finalOpt.xtbopt.xyz --gfn 2 --spinpol --tblite --uhf 2 --ohess vtight --parallel 40 --molden --ceasefiles --namespace data2507/gas/AcHPM/AcHPM_gas_T1_preOpt
 * total energy  :  -129.5671667 Eh     change        0.5249828E-07 Eh
 * total energy  :  -129.5712157 Eh     change       -0.4049042E-02 Eh
 * total energy  :  -129.5721614 Eh     change       -0.9456127E-03 Eh
 * total energy  :  -129.5722312 Eh     change       -0.6982891E-04 Eh
 * total energy  :  -129.5722939 Eh     change       -0.6267471E-04 Eh
 * total energy  :  -129.5723400 Eh     change       -0.4611425E-04 Eh
 * total energy  :  -129.5723939 Eh     change       -0.5393620E-04 Eh
 * total energy  :  -129.5724527 Eh     change       -0.5878636E-04 Eh
 * total energy  :  -129.5725279 Eh     change       -0.7524401E-04 Eh
 * total energy  :  -129.5725733 Eh     change       -0.4531511E-04 Eh
 * total energy  :  -129.5742886 Eh     change       -0.7159850E-06 Eh
 * total energy  :  -129.5742893 Eh     change       -0.6886369E-06 Eh
 * total energy  :  -129.5742900 Eh     change       -0.6980901E-06 Eh
 * total energy  :  -129.5742907 Eh     change       -0.6760956E-06 Eh
 * total energy  :  -129.5742914 Eh     change       -0.6868216E-06 Eh
 * total energy  :  -129.5742920 Eh     change       -0.6703181E-06 Eh
 * total energy  :  -129.5742927 Eh     change       -0.6861468E-06 Eh
 * total energy  :  -129.5742927 Eh     change        0.7472684E-07 Eh
 * total energy  :  -129.5742927 Eh     change       -0.7836474E-07 Eh
   *** GEOMETRY OPTIMIZATION CONVERGED AFTER 621 ITERATIONS ***

 final structure:
================
88
 xtb: 6.7.1 (edcfbbe)
C          -10.36462378586328       -0.57294889506805       -0.71634133571864
C           -9.10561368917638       -1.32144437292534       -0.24005722525609
C           -9.47149745767372       -2.75045731567146        0.20298509594262
C           -8.51875647393760       -0.58416419380567        0.94654618552684
C           -9.28117872468597       -0.41506313960940        2.09386897271077
C           -8.78900291028245        0.23177047870565        3.21239819543065
C           -7.49242894746857        0.71858223347447        3.20019790870747
C           -6.71302039845973        0.56640749256454        2.07514808719913
C           -7.21425013457996       -0.07152968156260        0.93318915854539
N           -6.41234554516319       -0.19653846246180       -0.18388125918925
C           -5.09757222916013        0.35083773453392       -0.15581980480078
C           -4.90095312554895        1.72116368090917       -0.32400584814197
C           -3.63167504496122        2.24353908540344       -0.28892273988832
C           -2.50526153514637        1.41932803956257       -0.09599595138990
C           -1.20070639526716        2.02268443739438       -0.07063771434867
C           -0.00000305985657        1.31976618163620       -0.01688782635589
C            1.20136605128052        2.02289199746316        0.01579263009388
C            2.50539335886663        1.41942581075724        0.05842514902713
C            3.63266965554595        2.24807151898998        0.22567688700145
C            4.90158198352261        1.72596375584837        0.27475565644777
C            5.09702600179627        0.35111031903092        0.14683548629775
N            6.41145120200076       -0.19609030927377        0.18862083086950
C            6.84751321370486       -0.80533141819457        1.34830387023568
C            6.00328684566957       -0.84776140138849        2.46529899044159
C            6.40249374923158       -1.46238945401180        3.63117148863959
C            7.65688723782050       -2.04420999275273        3.70984701977682
C            8.50088084801504       -1.98692576158859        2.61616377971574
C            8.12655270081864       -1.37289179828208        1.42912516015709
C            9.10412350552207       -1.32088056681669        0.27259192672687
C           10.36361567768115       -0.56136866237828        0.72977168608053
C            9.46914085989380       -2.76076410721332       -0.13450716189223
C            8.51743115866547       -0.61338007206739       -0.93208379442332
C            9.27981845667307       -0.47369954389566       -2.08339432175868
C            8.78769801296089        0.14452904070168       -3.21800080434331
C            7.49112100070709        0.63144131494381       -3.21818723983794
C            6.71178565087337        0.50816204441153       -2.08953337128642
C            7.21312854482957       -0.10013580080649       -0.93158119827813
C            3.99665632655279       -0.48525918770462       -0.02762529734969
C            2.72442411212831        0.03646892114968       -0.06806442002958
N            1.15465043864631        3.39730760091227        0.00777859152927
C            0.00122442947950        4.00259660337303       -0.05700367281576
N           -1.15279714327742        3.39668316229712       -0.10362160287549
C           -2.72552652529190        0.04094567864783        0.07151124352245
C           -3.99812514443430       -0.48080838630797        0.04494363579786
C           -6.84837351723979       -0.83477864729533       -1.32780181565548
C           -6.00353469391113       -0.90660927447640       -2.44285122146270
C           -6.40285026456447       -1.55009171659878       -3.59298966172057
C           -7.65792330037429       -2.13220756892120       -3.65760530994688
C           -8.50232442799296       -2.04652488822990       -2.56608947393803
C           -8.12789593818467       -1.40312211640204       -1.39475037953615
H          -10.09958661966886        0.43553104514822       -1.02824752117377
H          -10.82320465391479       -1.08299568065019       -1.55880259142703
H          -11.09942749919201       -0.50371255323673        0.08077856592016
H           -8.57827659212917       -3.27385358353567        0.53890244562160
H           -9.90932284426557       -3.31092191653439       -0.61820474229218
H          -10.18575752068498       -2.73142498855321        1.02130913397359
H          -10.28984794169288       -0.79855139582327        2.12267561269325
H           -9.41028321401517        0.34853461225372        4.08712893006689
H           -7.08687103416667        1.21623020816005        4.06809108877014
H           -5.70136742548297        0.94034135930789        2.07091298804012
H           -5.75724001142350        2.36193934499225       -0.47827084478855
H           -3.46835988859798        3.30265599654775       -0.41514254594440
H           -0.00048216941662        0.24269460493380       -0.00086685724996
H            3.47031607879039        3.31059008787795        0.32061512997779
H            5.75851809120704        2.37037798264004        0.40894511043139
H            5.02908757291944       -0.38823221661979        2.40916304493155
H            5.73471797860249       -1.48564209511662        4.47910035235707
H            7.97895440910783       -2.53228021860758        4.61694803696906
H            9.47981948369762       -2.43464827048886        2.69691762377584
H           10.09917817008894        0.45475488154001        1.01635565375133
H           10.82205575213479       -1.05039741915754        1.58467850744183
H           11.09832516577674       -0.51253039600836       -0.06894094655861
H            8.57557825018511       -3.29192522346660       -0.45706571616111
H            9.90679469462823       -3.30069900688183        0.70041057883359
H           10.18327660180536       -2.76266112252506       -0.95315656151927
H           10.28839759793342       -0.85802493779896       -2.10249193281350
H            9.40895894617789        0.23893131443745       -4.09543590290494
H            7.08544809449079        1.10662246594572       -4.09852756176867
H            5.70009342145912        0.88194674936196       -2.09500943736367
H            4.15564395227486       -1.54928296516165       -0.13167568909273
H            1.89376632048187       -0.63605230821759       -0.21397176995268
H            0.00170477773451        5.08513800208263       -0.07321694845452
H           -1.89557250237320       -0.62754771713422        0.23846450518709
H           -4.15811027420782       -1.54115053562051        0.18033149706006
H           -5.02875902574755       -0.44708418196283       -2.39769160569167
H           -5.73464167142367       -1.59565626803836       -4.43967160706212
H           -7.98012535579528       -2.64261867111616       -4.55228120651893
H           -9.48166077400638       -2.49521052888589       -2.63596138500285

 projected vibrational frequencies (cm⁻¹)
eigval :       -0.00    -0.00     0.00     0.00     0.00     0.00
eigval :        5.52     6.06    12.53    20.18    20.90    25.60
eigval :       31.91    42.46    43.49    53.14    67.44    82.32
eigval :       95.84    96.82    97.11    99.46   101.20   110.63
eigval :      129.24   129.38   139.87   165.57   175.81   177.78
eigval :      191.63   191.72   200.73   217.75   218.12   222.83
eigval :      232.38   235.87   289.65   300.15   301.94   322.41
eigval :      324.82   328.55   328.77   328.97   338.72   342.55
eigval :      353.43   373.47   373.94   379.22   379.44   381.73
eigval :      387.66   407.06   409.50   412.79   424.11   430.22
eigval :      451.54   451.59   460.66   461.83   487.11   505.82
eigval :      506.84   509.95   509.97   544.23   545.06   545.12
eigval :      549.93   554.88   576.95   582.11   589.81   592.79
eigval :      601.62   608.26   609.08   618.07   639.40   659.28
eigval :      660.96   681.55   682.07   685.61   685.64   697.91
eigval :      697.92   704.55   725.16   752.73   775.34   775.43
eigval :      776.95   777.00   796.54   797.08   807.98   818.10
eigval :      825.62   825.70   847.62   849.04   868.29   868.34
eigval :      868.85   868.93   893.15   898.62   899.80   907.00
eigval :      913.02   913.39   913.56   913.97   914.63   914.80
eigval :      915.06   915.35   915.43   921.78   921.87   922.01
eigval :      922.07   937.85   937.97   955.77   957.44   957.49
eigval :      998.84  1004.00  1013.69  1013.70  1041.16  1054.10
eigval :     1076.53  1076.54  1086.10  1086.30  1108.21  1109.74
eigval :     1115.93  1115.98  1120.49  1130.77  1139.35  1139.38
eigval :     1155.46  1155.47  1161.95  1170.23  1172.56  1185.22
eigval :     1185.38  1185.41  1185.45  1186.21  1192.33  1204.43
eigval :     1207.95  1240.90  1241.57  1245.45  1245.50  1255.33
eigval :     1257.16  1259.79  1262.62  1264.55  1290.94  1294.95
eigval :     1295.06  1307.46  1311.06  1317.72  1321.94  1322.37
eigval :     1327.01  1331.79  1333.99  1334.38  1335.21  1335.54
eigval :     1336.15  1394.83  1401.87  1401.90  1411.62  1416.67
eigval :     1418.08  1419.70  1421.88  1432.00  1432.15  1434.29
eigval :     1434.38  1447.29  1463.10  1463.60  1463.76  1481.84
eigval :     1484.60  1488.38  1488.70  1489.52  1489.54  1489.88
eigval :     1499.28  1499.32  1502.83  1502.98  1511.58  1513.29
eigval :     1562.89  1562.95  1573.59  1577.34  1577.50  1584.23
eigval :     1584.28  1587.19  1595.42  1595.57  3028.14  3028.15
eigval :     3030.10  3030.13  3041.32  3041.34  3042.12  3043.81
eigval :     3043.83  3050.33  3050.34  3053.66  3053.89  3074.20
eigval :     3074.24  3077.33  3077.47  3081.27  3081.31  3081.50
eigval :     3081.56  3086.52  3086.54  3086.90  3086.94  3093.52
eigval :     3095.83  3096.96  3097.07  3097.16  3097.62  3098.88
eigval :     3099.63  3107.43  3107.52  3108.18  3108.27  3108.78

   temp. (K)  partition function   enthalpy   heat capacity  entropy
                                   cal/mol     cal/K/mol   cal/K/mol   J/K/mol
 298.15  VIB  0.192E+21            25118.089    157.472    157.205
         ROT  0.725E+08              888.752      2.981     38.950
         INT  0.139E+29            26006.841    160.453    196.154
         TR   0.159E+29             1481.254      4.968     45.262
         TOT                       27488.0954   165.4210   241.4167  1010.0876

       T/K    H(0)-H(T)+PV         H(T)/Eh          T*S/Eh         G(T)/Eh
   ------------------------------------------------------------------------
    298.15    0.438051E-01    0.740656E+00    0.114705E+00    0.625951E+00
   ------------------------------------------------------------------------

         :::::::::::::::::::::::::::::::::::::::::::::::::::::
         ::                  THERMODYNAMIC                  ::
         :::::::::::::::::::::::::::::::::::::::::::::::::::::
         :: total free energy        -128.948341945728 Eh   ::
         ::.................................................::
         :: total energy             -129.574292753083 Eh   ::
         :: zero point energy           0.696850617128 Eh   ::
         :: G(RRHO) w/o ZPVE           -0.070899809773 Eh   ::
         :: G(RRHO) contrib.            0.625950807355 Eh   ::
         :::::::::::::::::::::::::::::::::::::::::::::::::::::

           -------------------------------------------------
          | TOTAL ENERGY             -129.574292753083 Eh   |
          | TOTAL ENTHALPY           -128.833637067656 Eh   |
          | TOTAL FREE ENERGY        -128.948341945728 Eh   |
          | GRADIENT NORM               0.000097769351 Eh/α |
           -------------------------------------------------

 * finished run on 2025/08/29 at 11:57:38.660
