   * xtb version 6.7.1 (edcfbbe) compiled by 'albert@albert-system' on 2024-07-22

   ID    Z sym.   atoms
    1    6 C      1-9, 11-21, 23-39, 41, 43-50
    2    7 N      10, 22, 40, 42
    3    1 H      51-88

          program call               : xtb data2507/gas/AcHPM/AcHPM_gas_T1_crest.xyz --gfn 2 --spinpol --tblite --uhf 2 --ohess vtight --parallel 40 --molden --ceasefiles --namespace data2507/gas/AcHPM/AcHPM_gas_T1_finalOpt
 * total energy  :  -129.5746058 Eh     change       -0.1669306E-07 Eh
 * total energy  :  -129.5746382 Eh     change       -0.3238224E-04 Eh
 * total energy  :  -129.5746489 Eh     change       -0.1071344E-04 Eh
 * total energy  :  -129.5746504 Eh     change       -0.1479936E-05 Eh
 * total energy  :  -129.5746522 Eh     change       -0.1801882E-05 Eh
 * total energy  :  -129.5746542 Eh     change       -0.2042715E-05 Eh
 * total energy  :  -129.5746573 Eh     change       -0.3150302E-05 Eh
 * total energy  :  -129.5746599 Eh     change       -0.2560693E-05 Eh
 * total energy  :  -129.5746620 Eh     change       -0.2120271E-05 Eh
 * total energy  :  -129.5746628 Eh     change       -0.7960285E-06 Eh
 * total energy  :  -129.5746648 Eh     change       -0.2477734E-07 Eh
 * total energy  :  -129.5746652 Eh     change       -0.3776130E-06 Eh
 * total energy  :  -129.5746657 Eh     change       -0.4915361E-06 Eh
 * total energy  :  -129.5746660 Eh     change       -0.3169145E-06 Eh
 * total energy  :  -129.5746661 Eh     change       -0.5415592E-07 Eh
 * total energy  :  -129.5746663 Eh     change       -0.2506950E-06 Eh
 * total energy  :  -129.5746666 Eh     change       -0.2815291E-06 Eh
 * total energy  :  -129.5746668 Eh     change       -0.2007901E-06 Eh
 * total energy  :  -129.5746669 Eh     change       -0.9732375E-07 Eh
   *** GEOMETRY OPTIMIZATION CONVERGED AFTER 21 ITERATIONS ***

 final structure:
================
88
 xtb: 6.7.1 (edcfbbe)
C          -10.41760619559791       -0.08504092742132        0.45629465579919
C           -9.12587507567709       -0.00848298850699        1.29160035522528
C           -9.46626769706236        0.07160641877001        2.79154338186707
C           -8.36716618397409        1.24318371721848        0.89876551775995
C           -8.96301165761607        2.48640369817411        1.05811803169562
C           -8.31416316607836        3.65908455356237        0.71759736775383
C           -7.02979223275872        3.60119215365776        0.20229700051921
C           -6.41325194498364        2.38152737613011        0.03302149742960
C           -7.06825549714539        1.19155919705305        0.37467263551793
N           -6.42275198372376       -0.01422825480648        0.19243128259392
C           -5.10416490768324       -0.01740916331514       -0.34951329960120
C           -4.91162121321890       -0.05226772779449       -1.72990075066207
C           -3.63945986947745       -0.05485903292830       -2.24631265868197
C           -2.50748083807672       -0.02427262128612       -1.40749827926166
C           -1.20165301481055       -0.02945140015751       -2.00876060675422
C            0.00040094871708       -0.01788678346228       -1.30605562135392
C            1.20253940483985       -0.02256449288993       -2.00877058524723
C            2.50827351569715       -0.01289564873710       -1.40743589290870
C            3.64039757281074        0.00084592970080       -2.24651903156284
C            4.91246290715356        0.01181268938625       -1.72996008568095
C            5.10474318332125        0.00774413222223       -0.34909465803277
N            6.42296089388186        0.01895626055409        0.19360107507816
C            7.01277231262941        1.22985197545137        0.49299967626109
C            6.30811319895184        2.41652477732740        0.25413073361756
C            6.86684509571404        3.64098958393606        0.54542344232066
C            8.14239067395492        3.70707492349930        1.08124831092643
C            8.84251567556398        2.53771559145181        1.31482454249594
C            8.30574099595707        1.28984458845739        1.03070972302973
C            9.12163573274598        0.04222068315820        1.30338250286141
C           10.41789594816130        0.11042126000044        0.47440722385136
C            9.45358100373802       -0.01205551620741        2.80639249003440
C            8.36998882183266       -1.21873675571729        0.92702735254715
C            8.97040568020009       -2.45671614493156        1.10851107224506
C            8.32771661309528       -3.63744427351702        0.78452807465824
C            7.04486518082394       -3.59327917786300        0.26411085588809
C            6.42378234200617       -2.37911854626783        0.07326202696036
C            7.07275228171030       -1.18102767065553        0.39762392674430
C            4.00018894505195       -0.00763821908461        0.49888976581493
C            2.72527717541563       -0.01740269384030       -0.01845542894475
N            1.15528440556310       -0.03702006377088       -3.38325513413816
C            0.00051280264653       -0.04925122359363       -3.98900059101976
N           -1.15437853657690       -0.04715199479934       -3.38324598105154
C           -2.72472879309738        0.01096848602457       -0.01899572075510
C           -3.99976116917183        0.01462768455260        0.49819423774027
C           -7.01811978106054       -1.21759434574068        0.51058431304665
C           -6.31659737686041       -2.41071468368420        0.29584375160420
C           -6.88102433071961       -3.62793012575043        0.60594357346108
C           -8.15927733947669       -3.68016313759897        1.13681829857824
C           -8.85612510074878       -2.50442404068755        1.34701744578451
C           -8.31347239001318       -1.26358406235307        1.04392298340049
H          -10.17094618345155       -0.14140098194935       -0.60225593975321
H          -10.99837178222002       -0.96430813556574        0.72045791009289
H          -11.03637757480516        0.79309748687218        0.61809355495592
H          -10.02498128006746       -0.80416511900838        3.10942980495702
H          -10.06343849481503        0.95321551597584        3.00681632239227
H           -8.55010031103915        0.12586139225592        3.37660857915281
H           -9.96315602869113        2.54885655890726        1.45956881424496
H           -8.80734589699552        4.60929931359666        0.85424114509393
H           -6.50775234712182        4.50660852699824       -0.06806380108422
H           -5.41277000445593        2.33675388982722       -0.36787490045211
H           -5.77259616913690       -0.07659400076121       -2.38227660838922
H           -3.47771026642544       -0.08143039265669       -3.31285733677270
H            0.00038330806319       -0.00514609475951       -0.22902677270225
H            3.47882907359427        0.00366945403764       -3.31342366506581
H            5.77353251773630        0.02320561845308       -2.38256862002257
H            5.31543543231177        2.36540645762364       -0.16499254008539
H            6.30683453585318        4.54378955320077        0.35372480165683
H            8.58997118676733        4.66109758891597        1.31431305895718
H            9.83630178122237        2.60657238956640        1.73074108380635
H           10.17715808132084        0.14971199378557       -0.58626433567493
H           10.99422243119486        0.99558167862534        0.72837083215890
H           11.03870405688014       -0.76294382130146        0.65319710460190
H           10.05221593253359       -0.88810589917534        3.03955852815322
H            8.53422478754351       -0.05960962630369        3.38702346631926
H           10.00767459128843        0.87067551572021        3.11293468638483
H            9.96928776415382       -2.50850355354396        1.51459559073709
H            8.82436830397270       -4.58324804468398        0.93814526617210
H            6.52742434602428       -4.50513812755264        0.00689244249815
H            5.42432315288713       -2.34506724624185       -0.33121088798843
H            4.15751014157112       -0.01165097602203        1.56817463163449
H            1.89059692892585       -0.03068930441496        0.66459714674352
H            0.00055019890481       -0.06192122596079       -5.07160641726679
H           -1.89014278768335        0.03760036800991        0.66378556688595
H           -4.15723979480035        0.04227132321056        1.56710429960069
H           -5.32178271724905       -2.37040444247921       -0.11937967674263
H           -6.32332216966737       -4.53588993546655        0.43277991091851
H           -8.61141331002236       -4.62839052831818        1.38429440683549
H           -9.85205871167714       -2.56252832913515        1.75943971679042

 projected vibrational frequencies (cm⁻¹)
eigval :       -0.00    -0.00     0.00     0.00     0.00     0.00
eigval :        3.66     5.22    13.49    20.07    20.74    20.96
eigval :       31.71    33.15    39.52    52.48    67.89    81.28
eigval :       94.11    95.83    95.98    99.48   100.64   109.81
eigval :      129.71   129.85   142.66   164.98   171.94   176.64
eigval :      192.03   192.14   199.45   218.37   218.40   220.38
eigval :      231.23   235.04   290.22   299.72   301.58   324.19
eigval :      325.39   328.22   328.24   329.80   336.97   342.07
eigval :      352.74   372.77   373.09   378.32   378.48   382.60
eigval :      387.50   407.83   409.21   412.64   423.80   430.07
eigval :      450.88   450.95   460.12   462.36   486.55   505.01
eigval :      505.71   510.01   510.02   543.84   545.05   545.07
eigval :      549.97   555.04   576.69   582.10   589.98   592.94
eigval :      602.35   608.18   609.15   618.47   639.37   660.15
eigval :      661.33   682.52   682.89   685.50   685.55   697.83
eigval :      697.83   705.93   725.12   752.55   775.14   775.27
eigval :      776.82   776.85   795.39   796.27   807.47   816.17
eigval :      825.37   825.46   846.57   848.56   867.96   867.97
eigval :      868.49   868.50   892.90   897.04   898.80   907.51
eigval :      912.58   912.83   913.90   913.96   914.03   914.71
eigval :      914.72   915.21   915.24   921.78   921.79   921.93
eigval :      921.94   937.95   938.06   954.70   957.43   957.45
eigval :      998.50  1003.37  1013.69  1013.70  1040.58  1055.71
eigval :     1076.57  1076.58  1086.26  1086.42  1106.84  1108.65
eigval :     1115.11  1115.12  1119.94  1130.14  1138.99  1139.02
eigval :     1155.51  1155.54  1161.53  1169.67  1171.18  1184.95
eigval :     1185.02  1185.11  1185.36  1186.12  1192.35  1204.22
eigval :     1208.09  1241.17  1241.64  1244.89  1244.92  1255.36
eigval :     1258.26  1260.10  1262.38  1264.02  1289.50  1294.81
eigval :     1294.83  1308.17  1312.22  1319.01  1323.40  1323.44
eigval :     1326.10  1332.63  1334.81  1335.38  1335.48  1335.63
eigval :     1335.77  1394.87  1401.72  1401.75  1411.33  1417.10
eigval :     1419.59  1420.07  1420.22  1432.33  1432.44  1433.94
eigval :     1434.38  1448.30  1463.88  1463.91  1464.13  1481.83
eigval :     1484.25  1488.60  1488.61  1489.49  1489.50  1490.34
eigval :     1499.25  1499.26  1503.03  1503.03  1512.28  1513.91
eigval :     1563.00  1563.03  1574.51  1577.54  1578.07  1584.28
eigval :     1584.30  1587.94  1595.17  1595.48  3028.21  3028.25
eigval :     3030.25  3030.34  3041.22  3041.28  3041.92  3043.75
eigval :     3043.82  3050.39  3050.44  3053.66  3053.96  3074.48
eigval :     3074.50  3077.87  3077.98  3081.28  3081.31  3081.47
eigval :     3081.51  3086.67  3086.70  3086.81  3086.89  3094.15
eigval :     3096.32  3096.98  3097.01  3097.05  3097.49  3099.16
eigval :     3099.49  3106.05  3106.59  3106.65  3106.68  3109.80

   temp. (K)  partition function   enthalpy   heat capacity  entropy
                                   cal/mol     cal/K/mol   cal/K/mol   J/K/mol
 298.15  VIB  0.564E+21            25163.812    157.195    158.050
         ROT  0.728E+08              888.752      2.981     38.956
         INT  0.410E+29            26052.565    160.176    197.005
         TR   0.159E+29             1481.254      4.968     45.262
         TOT                       27533.8187   165.1442   242.2674  1013.6467

       T/K    H(0)-H(T)+PV         H(T)/Eh          T*S/Eh         G(T)/Eh
   ------------------------------------------------------------------------
    298.15    0.438779E-01    0.740621E+00    0.115109E+00    0.625512E+00
   ------------------------------------------------------------------------

         :::::::::::::::::::::::::::::::::::::::::::::::::::::
         ::                  THERMODYNAMIC                  ::
         :::::::::::::::::::::::::::::::::::::::::::::::::::::
         :: total free energy        -128.949155048193 Eh   ::
         ::.................................................::
         :: total energy             -129.574666901063 Eh   ::
         :: zero point energy           0.696742971424 Eh   ::
         :: G(RRHO) w/o ZPVE           -0.071231118553 Eh   ::
         :: G(RRHO) contrib.            0.625511852870 Eh   ::
         :::::::::::::::::::::::::::::::::::::::::::::::::::::

           -------------------------------------------------
          | TOTAL ENERGY             -129.574666901063 Eh   |
          | TOTAL ENTHALPY           -128.834045996651 Eh   |
          | TOTAL FREE ENERGY        -128.949155048193 Eh   |
          | GRADIENT NORM               0.000122701314 Eh/α |
           -------------------------------------------------

 * finished run on 2025/08/29 at 12:05:17.920
