   * xtb version 6.7.1 (edcfbbe) compiled by 'albert@albert-system' on 2024-07-22

   ID    Z sym.   atoms
    1    6 C      1-9, 11-21, 23-39, 41, 43-50
    2    7 N      10, 22, 40, 42
    3    1 H      51-88

          program call               : xtb data2507/gas/AcHPM/AcHPM_gas_S0_crest.xyz --gfn 2 --ohess vtight --parallel 40 --molden --ceasefiles --namespace data2507/gas/AcHPM/AcHPM_gas_S0_finalOpt
          :  Hamiltonian                  GFN2-xTB          :
 * total energy  :  -129.6414135 Eh     change       -0.7481731E-09 Eh
 * total energy  :  -129.6414151 Eh     change       -0.1607206E-05 Eh
 * total energy  :  -129.6414162 Eh     change       -0.1055397E-05 Eh
 * total energy  :  -129.6414179 Eh     change       -0.1764496E-05 Eh
 * total energy  :  -129.6414205 Eh     change       -0.2513692E-05 Eh
 * total energy  :  -129.6414246 Eh     change       -0.4115982E-05 Eh
 * total energy  :  -129.6414295 Eh     change       -0.4974344E-05 Eh
 * total energy  :  -129.6414322 Eh     change       -0.2682091E-05 Eh
 * total energy  :  -129.6414334 Eh     change       -0.1216047E-05 Eh
 * total energy  :  -129.6414346 Eh     change       -0.1123425E-05 Eh
 * total energy  :  -129.6414387 Eh     change       -0.8784408E-06 Eh
 * total energy  :  -129.6414394 Eh     change       -0.7410008E-06 Eh
 * total energy  :  -129.6414398 Eh     change       -0.4376330E-06 Eh
 * total energy  :  -129.6414402 Eh     change       -0.3990631E-06 Eh
 * total energy  :  -129.6414406 Eh     change       -0.4048620E-06 Eh
 * total energy  :  -129.6414410 Eh     change       -0.4056064E-06 Eh
 * total energy  :  -129.6414414 Eh     change       -0.3954201E-06 Eh
 * total energy  :  -129.6414419 Eh     change       -0.4551836E-06 Eh
 * total energy  :  -129.6414419 Eh     change       -0.8261452E-08 Eh
   *** GEOMETRY OPTIMIZATION CONVERGED AFTER 22 ITERATIONS ***

 final structure:
================
88
 xtb: 6.7.1 (edcfbbe)
C          -10.18963860091716       -0.86112791447273       -0.98872418204511
C           -9.01490225324626       -1.38142046357844       -0.14029341740732
C           -9.44832188514837       -2.61642844381888        0.67049759903557
C           -8.59177681043118       -0.29276607428811        0.82725174234771
C           -9.50486079489959        0.18476392977292        1.75764625290058
C           -9.17096864566154        1.15526117768568        2.68358103332320
C           -7.88311372748618        1.65915768764830        2.69878897591247
C           -6.95667227764582        1.20426096627911        1.78449839129855
C           -7.29955853604273        0.24217394858773        0.82985701875613
N           -6.34816326901335       -0.19018753325133       -0.08307157345924
C           -5.05673997415170        0.39526448282780       -0.06198651644607
C           -4.86476119333284        1.68668812427388       -0.54378792232847
C           -3.60719657503429        2.25198195534354       -0.52090097306487
C           -2.51426945055326        1.53782422965759       -0.02838921400167
C           -1.19322430274619        2.17498179337423       -0.03174891879130
C           -0.00071870570562        1.45262382729455       -0.01328794242239
C            1.19310371965237        2.17307849004570       -0.02054107814755
C            2.51313403509476        1.53415928002447       -0.00477705431989
C            3.60892863283756        2.26418237038038        0.45725489965876
C            4.86615936079312        1.69898968507523        0.49431647241124
C            5.05530750258418        0.39127230832208        0.05715596154425
N            6.34674595617924       -0.19305104253201        0.09021649445410
C            6.62906441115216       -1.15206343208962        1.05194727548111
C            5.65334624988897       -1.50134029580052        1.99049117590548
C            5.90166397343518       -2.45817981051191        2.95172906486561
C            7.13562594965802       -3.08051961856205        3.00165611336143
C            8.11131102260604       -2.71723940326157        2.09232294628499
C            7.88874160130473       -1.75690496052760        1.11488775777845
C            9.01397455824358       -1.38259084436567        0.16947130888692
C           10.19165210626728       -0.84086721680992        1.00021733119206
C            9.44438011485397       -2.63818506533707       -0.61076553277718
C            8.58775910165002       -0.31899480090359       -0.82415171264030
C            9.49806839244953        0.13410167226466       -1.76940033374482
C            9.16175744457470        1.08087343466780       -2.71867990092621
C            7.87393625329481        1.58444846882897       -2.74284351319505
C            6.95008945994774        1.15305265685631       -1.81465101092031
C            7.29561464205361        0.21599913786447       -0.83630962942026
C            3.97061864950253       -0.33762741659101       -0.41955156427181
C            2.71113401945770        0.22723525334426       -0.44758410811645
N            1.17900736467492        3.50991407739435       -0.02771834179442
C            0.00155895540455        4.09684473661427       -0.05884045732050
N           -1.17692766611855        3.51121283565370       -0.07045742373287
C           -2.71545765250880        0.24790312708247        0.46034317086972
C           -3.97526656052104       -0.31685346557389        0.44617146592682
C           -6.62750689301446       -1.17282230095524       -1.02130730815067
C           -5.64871881464030       -1.54524830448356       -1.94764800971992
C           -5.89371529158547       -2.52639771120049       -2.88492228523677
C           -7.12703019435302       -3.15093181450950       -2.92213731381465
C           -8.10560080838210       -2.76533221369108       -2.02513875802512
C           -7.88665652178474       -1.77985916353818       -1.07223781729885
H           -9.87564425034190        0.01082344647280       -1.55959784063511
H          -10.53257780181708       -1.62113274269762       -1.68530798074630
H          -11.02687330920277       -0.57480835867015       -0.35825618240779
H           -8.61316956522060       -2.97865934574904        1.26726155707084
H           -9.77333794693794       -3.41815749800961        0.01321453448313
H          -10.26797587577301       -2.37322985105891        1.34082045796123
H          -10.50931901164610       -0.21078913378953        1.76603081416902
H           -9.90688454897155        1.50608960805052        3.39086620168653
H           -7.59457821905066        2.40538120326281        3.42394277531989
H           -5.95111114487460        1.59487496869026        1.81222339849480
H           -5.70945637465304        2.23775450865927       -0.92984806536037
H           -3.44381171429051        3.25289860209208       -0.88803013006132
H           -0.00169607014558        0.37586630627906        0.00544824204205
H            3.44805740926296        3.27771590285146        0.78917256898566
H            5.71298340570090        2.26287237078045        0.85648547434119
H            4.69235920307251       -1.01074383704382        1.96918720270797
H            5.13007938785870       -2.71258905112554        3.66316139249896
H            7.34172131844829       -3.83361533491499        3.74681535992967
H            9.07567705240681       -3.19866254595944        2.15256595707881
H            9.87933474294331        0.04483658848470        1.55046650516091
H           10.53784992440321       -1.58313866822807        1.71408253770268
H           11.02623741652793       -0.56981846163635        0.35957135240783
H            8.60724353536690       -3.01509709912131       -1.19553869910587
H            9.77088657818579       -3.42300326003493        0.06590432331858
H           10.26216307011500       -2.41280063192530       -1.28953871326712
H           10.50223278992949       -0.26226084410447       -1.77094744560013
H            9.89556866735308        1.41339518586844       -3.43690209807645
H            7.58333686882794        2.31204270877610       -3.48587726356871
H            5.94444019105296        1.54270269008500       -1.85016798664706
H            4.12572704154748       -1.34823497195453       -0.76785430770988
H            1.88707279443490       -0.34633408790181       -0.84438191762067
H            0.00248358779924        5.18012830061364       -0.07731987500159
H           -1.89363701714936       -0.31144772212696        0.88137187938774
H           -4.13303955115297       -1.31435122211971        0.82930723743631
H           -4.68803896330704       -1.05368702448003       -1.93571944185320
H           -5.11999981965365       -2.79817971207902       -3.58756065134310
H           -7.33040845327891       -3.92323175673569       -3.64814078370051
H           -9.06929189600629       -3.24923523690787       -2.07559027733352

          :  Hamiltonian                  GFN2-xTB          :
         :: gradient norm              0.000053934700 Eh/a0 ::
         :: HOMO-LUMO gap              1.536730850515 eV    ::
         :: SCC energy              -131.975277515462 Eh    ::
         :: -> dispersion             -0.120494950370 Eh    ::
         :: repulsion energy           2.333835607879 Eh    ::

    * Orbital Energies and Occupations

         #    Occupation            Energy/Eh            Energy/eV
      -------------------------------------------------------------
         1        2.0000           -0.6809451             -18.5295
       ...           ...                  ...                  ...
       109        2.0000           -0.4058600             -11.0440
       110        2.0000           -0.4057789             -11.0418
       111        2.0000           -0.4038396             -10.9890
       112        2.0000           -0.4019454             -10.9375
       113        2.0000           -0.4018578             -10.9351
       114        2.0000           -0.4000806             -10.8867
       115        2.0000           -0.3964778             -10.7887
       116        2.0000           -0.3964043             -10.7867
       117        2.0000           -0.3911746             -10.6444
       118        2.0000           -0.3911027             -10.6424
       119        2.0000           -0.3684999             -10.0274
       120        2.0000           -0.3455649              -9.4033
       121        2.0000           -0.3453747              -9.3981 (HOMO)
       122                         -0.2889008              -7.8614 (LUMO)
       123                         -0.2684821              -7.3058
       124                         -0.2394492              -6.5157
       125                         -0.2393827              -6.5139
       126                         -0.2302364              -6.2651
       127                         -0.2227526              -6.0614
       128                         -0.2226619              -6.0589
       129                         -0.2180069              -5.9323
       130                         -0.2176769              -5.9233
       131                         -0.2164858              -5.8909
       132                         -0.2164020              -5.8886
       ...                                ...                  ...
       238                          0.6810183              18.5315
      -------------------------------------------------------------
                  HL-Gap            0.0564739 Eh            1.5367 eV

     #   Z          covCN         q      C6AA      α(0)
     1   6 C        3.761    -0.103    22.510     6.763
     2   6 C        3.909     0.021    20.156     6.381
     3   6 C        3.761    -0.103    22.511     6.764
     4   6 C        2.980    -0.014    28.356     8.735
     5   6 C        2.928    -0.036    28.900     8.816
     6   6 C        2.917    -0.044    29.104     8.847
     7   6 C        2.920    -0.033    28.818     8.803
     8   6 C        2.924    -0.059    29.463     8.901
     9   6 C        2.928     0.058    26.703     8.474
    10   7 N        2.754    -0.070    22.602     7.061
    11   6 C        2.928     0.074    26.356     8.419
    12   6 C        2.920    -0.037    28.911     8.817
    13   6 C        2.926    -0.024    28.608     8.771
    14   6 C        2.979     0.003    27.962     8.674
    15   6 C        2.979     0.111    25.554     8.292
    16   6 C        2.912    -0.061    29.521     8.909
    17   6 C        2.979     0.111    25.555     8.292
    18   6 C        2.979     0.002    27.965     8.674
    19   6 C        2.926    -0.024    28.609     8.772
    20   6 C        2.920    -0.037    28.913     8.818
    21   6 C        2.928     0.073    26.358     8.419
    22   7 N        2.754    -0.070    22.599     7.060
    23   6 C        2.928     0.058    26.700     8.474
    24   6 C        2.924    -0.059    29.472     8.903
    25   6 C        2.920    -0.033    28.826     8.804
    26   6 C        2.917    -0.045    29.110     8.848
    27   6 C        2.928    -0.036    28.899     8.816
    28   6 C        2.980    -0.014    28.352     8.734
    29   6 C        3.909     0.021    20.156     6.381
    30   6 C        3.761    -0.103    22.511     6.764
    31   6 C        3.761    -0.103    22.511     6.764
    32   6 C        2.980    -0.014    28.355     8.735
    33   6 C        2.928    -0.036    28.900     8.816
    34   6 C        2.917    -0.044    29.103     8.846
    35   6 C        2.920    -0.033    28.818     8.803
    36   6 C        2.924    -0.059    29.463     8.901
    37   6 C        2.928     0.058    26.704     8.475
    38   6 C        2.920    -0.038    28.953     8.824
    39   6 C        2.922    -0.031    28.774     8.797
    40   7 N        1.842    -0.255    27.493     7.771
    41   6 C        2.906     0.154    24.671     8.144
    42   7 N        1.842    -0.255    27.493     7.771
    43   6 C        2.922    -0.031    28.773     8.796
    44   6 C        2.920    -0.038    28.952     8.824
    45   6 C        2.928     0.058    26.700     8.474
    46   6 C        2.924    -0.059    29.473     8.903
    47   6 C        2.920    -0.033    28.826     8.804
    48   6 C        2.917    -0.045    29.111     8.848
    49   6 C        2.928    -0.036    28.899     8.816
    50   6 C        2.980    -0.014    28.353     8.734
    51   1 H        0.925     0.031     2.569     2.506
    52   1 H        0.925     0.039     2.463     2.454
    53   1 H        0.925     0.039     2.460     2.453
    54   1 H        0.925     0.031     2.574     2.509
    55   1 H        0.925     0.039     2.462     2.454
    56   1 H        0.925     0.039     2.461     2.453
    57   1 H        0.926     0.030     2.591     2.517
    58   1 H        0.926     0.026     2.643     2.542
    59   1 H        0.926     0.028     2.621     2.532
    60   1 H        0.926     0.025     2.665     2.553
    61   1 H        0.926     0.047     2.358     2.401
    62   1 H        0.926     0.064     2.152     2.294
    63   1 H        0.926     0.037     2.492     2.468
    64   1 H        0.926     0.064     2.152     2.294
    65   1 H        0.926     0.047     2.359     2.402
    66   1 H        0.926     0.023     2.694     2.567
    67   1 H        0.926     0.026     2.639     2.540
    68   1 H        0.926     0.026     2.646     2.544
    69   1 H        0.926     0.030     2.588     2.516
    70   1 H        0.925     0.031     2.568     2.506
    71   1 H        0.925     0.039     2.463     2.454
    72   1 H        0.925     0.039     2.459     2.452
    73   1 H        0.925     0.031     2.574     2.509
    74   1 H        0.925     0.039     2.462     2.454
    75   1 H        0.925     0.039     2.460     2.453
    76   1 H        0.926     0.030     2.590     2.517
    77   1 H        0.926     0.026     2.642     2.542
    78   1 H        0.926     0.028     2.620     2.531
    79   1 H        0.926     0.025     2.663     2.552
    80   1 H        0.926     0.044     2.392     2.418
    81   1 H        0.926     0.039     2.461     2.453
    82   1 H        0.925     0.042     2.428     2.437
    83   1 H        0.926     0.039     2.460     2.453
    84   1 H        0.926     0.044     2.391     2.418
    85   1 H        0.926     0.022     2.696     2.568
    86   1 H        0.926     0.026     2.640     2.541
    87   1 H        0.926     0.026     2.647     2.544
    88   1 H        0.926     0.030     2.589     2.516

molecular dipole:
                 x           y           z       tot (Debye)
 q only:        0.009      -0.446       0.007
   full:        0.009      -0.769       0.013       1.954

 projected vibrational frequencies (cm⁻¹)
eigval :       -0.00    -0.00     0.00     0.00     0.00     0.00
eigval :        5.95     6.70    11.23    19.22    19.91    25.83
eigval :       33.61    41.97    44.68    50.24    62.14    75.95
eigval :       97.43    98.59    98.83    99.63   104.25   113.98
eigval :      128.24   128.37   129.09   167.06   182.17   189.38
eigval :      189.96   193.53   202.08   218.75   219.42   225.35
eigval :      233.60   236.31   284.67   295.35   301.34   312.12
eigval :      315.56   326.00   331.60   331.91   344.29   344.74
eigval :      360.86   372.21   372.65   378.31   378.79   385.80
eigval :      404.16   407.29   411.64   428.33   430.89   431.61
eigval :      451.78   452.00   471.43   484.92   491.81   497.41
eigval :      515.14   515.16   518.88   547.40   547.41   550.06
eigval :      551.95   576.38   581.22   590.70   593.66   606.96
eigval :      610.18   616.36   623.99   634.28   665.03   666.00
eigval :      682.66   682.74   693.64   693.70   695.45   711.20
eigval :      720.08   729.86   744.42   765.67   776.75   776.83
eigval :      778.13   778.16   810.33   817.83   824.24   826.50
eigval :      828.47   843.43   866.10   866.28   867.27   867.35
eigval :      870.11   870.82   911.63   912.84   912.98   913.48
eigval :      913.96   914.01   914.34   917.00   919.51   920.02
eigval :      921.11   921.19   921.53   921.63   925.25   929.51
eigval :      929.68   938.82   939.07   957.19   957.20  1003.33
eigval :     1014.40  1014.41  1016.91  1027.25  1077.26  1077.28
eigval :     1085.09  1086.54  1087.48  1091.18  1114.18  1114.32
eigval :     1120.10  1120.20  1130.14  1131.12  1141.15  1141.16
eigval :     1160.39  1160.40  1172.65  1173.29  1184.60  1185.38
eigval :     1187.58  1187.62  1188.37  1188.45  1206.25  1207.25
eigval :     1220.47  1235.60  1244.72  1247.13  1250.41  1250.51
eigval :     1257.07  1265.28  1269.29  1269.44  1276.59  1278.91
eigval :     1295.26  1295.34  1313.40  1313.63  1321.42  1322.21
eigval :     1326.39  1327.21  1335.10  1335.39  1342.67  1343.01
eigval :     1374.04  1401.74  1402.85  1403.04  1404.74  1421.03
eigval :     1421.07  1427.52  1436.92  1437.11  1443.70  1443.83
eigval :     1480.56  1480.70  1482.33  1484.13  1490.14  1490.16
eigval :     1491.14  1491.15  1498.02  1498.38  1500.67  1500.68
eigval :     1505.46  1505.49  1510.86  1551.31  1562.69  1563.90
eigval :     1575.85  1575.86  1588.99  1589.84  1592.58  1593.42
eigval :     1593.44  1593.80  1603.10  1603.23  3026.31  3026.32
eigval :     3028.51  3028.52  3039.39  3039.40  3042.10  3042.13
eigval :     3046.74  3048.26  3048.34  3052.38  3052.54  3077.54
eigval :     3077.57  3078.45  3078.53  3082.26  3082.54  3082.74
eigval :     3082.85  3083.14  3083.24  3089.69  3089.82  3093.47
eigval :     3093.60  3093.87  3094.10  3094.33  3094.49  3099.80
eigval :     3099.95  3101.32  3101.61  3109.09  3110.01  3110.28

   temp. (K)  partition function   enthalpy   heat capacity  entropy
                                   cal/mol     cal/K/mol   cal/K/mol   J/K/mol
 298.15  VIB  0.175E+21            24923.690    155.837    156.234
         ROT  0.716E+08              888.752      2.981     38.923
         INT  0.125E+29            25812.443    158.817    195.157
         TR   0.159E+29             1481.254      4.968     45.262
         TOT                       27293.6967   163.7856   240.4194  1005.9146

       T/K    H(0)-H(T)+PV         H(T)/Eh          T*S/Eh         G(T)/Eh
   ------------------------------------------------------------------------
    298.15    0.434953E-01    0.743614E+00    0.114231E+00    0.629383E+00
   ------------------------------------------------------------------------

         :::::::::::::::::::::::::::::::::::::::::::::::::::::
         ::                  THERMODYNAMIC                  ::
         :::::::::::::::::::::::::::::::::::::::::::::::::::::
         :: total free energy        -129.012059072994 Eh   ::
         ::.................................................::
         :: total energy             -129.641441907582 Eh   ::
         :: zero point energy           0.700118558000 Eh   ::
         :: G(RRHO) w/o ZPVE           -0.070735723412 Eh   ::
         :: G(RRHO) contrib.            0.629382834588 Eh   ::
         :::::::::::::::::::::::::::::::::::::::::::::::::::::

           -------------------------------------------------
          | TOTAL ENERGY             -129.641441907582 Eh   |
          | TOTAL ENTHALPY           -128.897828075272 Eh   |
          | TOTAL FREE ENERGY        -129.012059072994 Eh   |
          | GRADIENT NORM               0.000053925856 Eh/α |
          | HOMO-LUMO GAP               1.536731740156 eV   |
           -------------------------------------------------

 * finished run on 2025/08/29 at 11:56:17.789
