   * xtb version 6.7.1 (edcfbbe) compiled by 'albert@albert-system' on 2024-07-22

   ID    Z sym.   atoms
    1    6 C      1-9, 11-21, 23-39, 41, 43-50
    2    7 N      10, 22, 40, 42
    3    1 H      51-88

          program call               : xtb data2507/gas/AcHPM/AcHPM.xyz --gfn 2 --ohess vtight --parallel 40 --molden --ceasefiles --namespace data2507/gas/AcHPM/AcHPM_gas_S0_preOpt
          :  Hamiltonian                  GFN2-xTB          :
 * total energy  :  -129.6122309 Eh     change       -0.1741114E-08 Eh
 * total energy  :  -129.6314408 Eh     change       -0.1920991E-01 Eh
 * total energy  :  -129.6377674 Eh     change       -0.6326600E-02 Eh
 * total energy  :  -129.6391413 Eh     change       -0.1373962E-02 Eh
 * total energy  :  -129.6401336 Eh     change       -0.9922546E-03 Eh
 * total energy  :  -129.6405694 Eh     change       -0.4358199E-03 Eh
 * total energy  :  -129.6407728 Eh     change       -0.2033956E-03 Eh
 * total energy  :  -129.6408603 Eh     change       -0.8749751E-04 Eh
 * total energy  :  -129.6409117 Eh     change       -0.5138831E-04 Eh
 * total energy  :  -129.6409629 Eh     change       -0.5119166E-04 Eh
 * total energy  :  -129.6414071 Eh     change       -0.5950964E-06 Eh
 * total energy  :  -129.6414080 Eh     change       -0.9345032E-06 Eh
 * total energy  :  -129.6414093 Eh     change       -0.1239138E-05 Eh
 * total energy  :  -129.6414105 Eh     change       -0.1220623E-05 Eh
 * total energy  :  -129.6414114 Eh     change       -0.9246148E-06 Eh
 * total energy  :  -129.6414121 Eh     change       -0.6687375E-06 Eh
 * total energy  :  -129.6414126 Eh     change       -0.5510524E-06 Eh
 * total energy  :  -129.6414131 Eh     change       -0.4352435E-06 Eh
 * total energy  :  -129.6414131 Eh     change       -0.1757002E-08 Eh
   *** GEOMETRY OPTIMIZATION CONVERGED AFTER 68 ITERATIONS ***

 final structure:
================
88
 xtb: 6.7.1 (edcfbbe)
C          -10.21425260412521       -0.61505768195450       -0.90287740672808
C           -9.00484871300759       -1.17683142645266       -0.13334846517904
C           -9.39634924432654       -2.46984761013220        0.60510355791311
C           -8.55958936181249       -0.15090620493153        0.89136408237912
C           -9.44520410756378        0.25405828410347        1.88073250039268
C           -9.09023828973881        1.16805854958343        2.85521073395671
C           -7.80921633467579        1.68929301096177        2.85797481374505
C           -6.90923546185604        1.30488961211997        1.88664131133965
C           -7.27307420381943        0.39762490027840        0.88725920319461
N           -6.34760847364455        0.03342273382684       -0.07960669293675
C           -5.05648294139806        0.62102471223985       -0.05459590906521
C           -4.87214748058698        1.92799149261036       -0.49493949779174
C           -3.61429088842065        2.49279545505322       -0.47089109637993
C           -2.51454723524887        1.76388071832943       -0.01630439463153
C           -1.19372305512873        2.40193642734783       -0.01972742976635
C           -0.00029154981702        1.68081371137394       -0.01322263620608
C            1.19316772144710        2.40188453544608       -0.02116848794176
C            2.51402985669805        1.76396268094846       -0.01277322236458
C            3.61422636351074        2.50217899208474        0.42543990203161
C            4.87225741049246        1.93826929495500        0.45922435384735
C            5.05633903072784        0.62266441038705        0.04526826061808
N            6.34770255929328        0.03611877329476        0.07994387938107
C            6.65079448930754       -0.86334948526434        1.09069384718410
C            5.69791957792935       -1.14706962792065        2.07364004353677
C            5.96774345897712       -2.04229867338936        3.08703798683301
C            7.19991492535462       -2.66768128393319        3.14357034709658
C            8.15177123658686       -2.37150048885766        2.18574728913644
C            7.90758918671280       -1.47380741510255        1.15547768021491
C            9.00505743857191       -1.17293105328102        0.15267614896835
C           10.21580250709652       -0.59650222903213        0.90914289517047
C            9.39521983313208       -2.48001053571471       -0.56132928329621
C            8.55809695637594       -0.16698286811997       -0.89092373755789
C            9.44208650354959        0.21873207750425       -1.88939837322355
C            9.08548337502529        1.11360305814492       -2.88088094839815
C            7.80439423186659        1.63456209524817       -2.89173866971620
C            6.90601642498291        1.26906475664359       -1.91166305199384
C            7.27155284180430        0.38147922394922       -0.89536856817301
C            3.96792845165323       -0.11482485345599       -0.40823008866830
C            2.70827398382881        0.44986714080721       -0.43569440014383
N            1.17775485108293        3.73872258722915       -0.02042907228001
C           -0.00028067030546        4.32491197088385       -0.03928324628547
N           -1.17833626151822        3.73849035755267       -0.04677210178677
C           -2.70909337573264        0.45869521378086        0.43320893043329
C           -3.96859262679754       -0.10674664249580        0.41553313575565
C           -6.64899713555941       -0.88548777109267       -1.07322386351048
C           -5.69442309060145       -1.18829788119967       -2.04879758238407
C           -5.96256106785974       -2.10300592473596       -3.04510444209399
C           -7.19469067804590       -2.72929145847205       -3.09164530657551
C           -8.14816918434092       -2.41457618872688       -2.14137384554614
C           -7.90570018551978       -1.49708891171215       -1.12828146109266
H           -9.92920307337352        0.29657888543363       -1.42483054670830
H          -10.57527711605507       -1.33093744011666       -1.63607399599128
H          -11.03077299836686       -0.38109967824316       -0.22540546807604
H           -8.53821968813405       -2.85856593554989        1.15040236667112
H           -9.73096764879723       -3.23050735731066       -0.09483578819063
H          -10.19777307396767       -2.28456105073847        1.31486151119052
H          -10.44428873452338       -0.15462123566711        1.89778872051299
H           -9.80501851710256        1.46279883261785        3.60829184341589
H           -7.50547162830082        2.39409452235857        3.61755912759119
H           -5.90840467130691        1.70829779701440        1.90300556583889
H           -5.72230582805527        2.49079192284840       -0.85083714794604
H           -3.45567954646906        3.50518144219881       -0.80733445787028
H           -0.00035450272949        0.60409678810085       -0.00257683721572
H            3.45584213802343        3.52118767329753        0.74136827711189
H            5.72277028630441        2.50842189902292        0.80234522651387
H            4.73830997443198       -0.65395290217635        2.04430790291612
H            5.21441072770476       -2.24653953865930        3.83335142927785
H            7.42278605572035       -3.37256830700354        3.92993558846291
H            9.11409631520092       -2.85659310126721        2.24947292281266
H            9.93169321960740        0.32506116370104        1.41389364910013
H           10.57805532764142       -1.29812694717461        1.65539518836344
H           11.03117091904545       -0.37572998909847        0.22588452296749
H            8.53614277972643       -2.87910207482461       -1.09756928042991
H            9.73096860755172       -3.22704459337865        0.15260422995519
H           10.19545263439471       -2.30854617157915       -1.27588932086292
H           10.44116073194838       -0.19018594659614       -1.90014303087171
H            9.79902805173631        1.39370160814747       -3.64069127235005
H            7.49934473760945        2.32442524273461       -3.66440129083645
H            5.90511606876372        1.67198552939914       -1.93432638150319
H            4.12014516133870       -1.13191336796288       -0.73838763732102
H            1.88116695250547       -0.13132074492797       -0.81446135379953
H           -0.00026689701066        5.40830058627935       -0.04988929331382
H           -1.88235688125182       -0.11438466415291        0.82492810067493
H           -4.12106959237141       -1.11690921341312        0.76619404839634
H           -4.73481014018966       -0.69478255146459       -2.02734673354099
H           -5.20793854848260       -2.32174421719937       -3.78598736402552
H           -7.41625346251849       -3.44928871108593       -3.86457569435633
H           -9.11040713481286       -2.90079871429335       -2.19732894798527

          :  Hamiltonian                  GFN2-xTB          :
         :: gradient norm              0.000032552405 Eh/a0 ::
         :: HOMO-LUMO gap              1.509548298399 eV    ::
         :: SCC energy              -131.975426936806 Eh    ::
         :: -> dispersion             -0.120470119221 Eh    ::
         :: repulsion energy           2.334013855558 Eh    ::

    * Orbital Energies and Occupations

         #    Occupation            Energy/Eh            Energy/eV
      -------------------------------------------------------------
         1        2.0000           -0.6814006             -18.5419
       ...           ...                  ...                  ...
       109        2.0000           -0.4057687             -11.0415
       110        2.0000           -0.4057359             -11.0406
       111        2.0000           -0.4039461             -10.9919
       112        2.0000           -0.4017460             -10.9321
       113        2.0000           -0.4017388             -10.9319
       114        2.0000           -0.4004455             -10.8967
       115        2.0000           -0.3963381             -10.7849
       116        2.0000           -0.3963325             -10.7848
       117        2.0000           -0.3910443             -10.6409
       118        2.0000           -0.3910350             -10.6406
       119        2.0000           -0.3690000             -10.0410
       120        2.0000           -0.3453023              -9.3962
       121        2.0000           -0.3451842              -9.3929 (HOMO)
       122                         -0.2897093              -7.8834 (LUMO)
       123                         -0.2691526              -7.3240
       124                         -0.2399007              -6.5280
       125                         -0.2398762              -6.5274
       126                         -0.2304862              -6.2718
       127                         -0.2225119              -6.0549
       128                         -0.2225047              -6.0547
       129                         -0.2177729              -5.9259
       130                         -0.2175355              -5.9194
       131                         -0.2163266              -5.8865
       132                         -0.2163013              -5.8859
       ...                                ...                  ...
       238                          0.6811604              18.5353
      -------------------------------------------------------------
                  HL-Gap            0.0554749 Eh            1.5095 eV

     #   Z          covCN         q      C6AA      α(0)
     1   6 C        3.761    -0.103    22.511     6.764
     2   6 C        3.909     0.021    20.157     6.381
     3   6 C        3.761    -0.103    22.509     6.763
     4   6 C        2.979    -0.014    28.359     8.735
     5   6 C        2.928    -0.036    28.900     8.816
     6   6 C        2.917    -0.045    29.107     8.847
     7   6 C        2.920    -0.033    28.818     8.803
     8   6 C        2.924    -0.059    29.466     8.902
     9   6 C        2.928     0.058    26.701     8.474
    10   7 N        2.754    -0.071    22.614     7.063
    11   6 C        2.928     0.074    26.347     8.418
    12   6 C        2.920    -0.036    28.906     8.817
    13   6 C        2.926    -0.024    28.608     8.771
    14   6 C        2.979     0.003    27.959     8.674
    15   6 C        2.979     0.111    25.555     8.292
    16   6 C        2.912    -0.061    29.518     8.909
    17   6 C        2.979     0.111    25.555     8.292
    18   6 C        2.979     0.003    27.959     8.674
    19   6 C        2.926    -0.024    28.608     8.771
    20   6 C        2.920    -0.036    28.906     8.817
    21   6 C        2.928     0.074    26.347     8.418
    22   7 N        2.754    -0.071    22.613     7.063
    23   6 C        2.928     0.058    26.698     8.474
    24   6 C        2.924    -0.059    29.473     8.903
    25   6 C        2.920    -0.033    28.826     8.804
    26   6 C        2.917    -0.045    29.113     8.848
    27   6 C        2.928    -0.036    28.898     8.816
    28   6 C        2.979    -0.014    28.356     8.735
    29   6 C        3.909     0.021    20.157     6.381
    30   6 C        3.761    -0.103    22.511     6.764
    31   6 C        3.761    -0.103    22.509     6.763
    32   6 C        2.979    -0.014    28.359     8.735
    33   6 C        2.928    -0.036    28.900     8.816
    34   6 C        2.917    -0.045    29.107     8.847
    35   6 C        2.920    -0.033    28.818     8.803
    36   6 C        2.924    -0.059    29.466     8.902
    37   6 C        2.928     0.058    26.701     8.474
    38   6 C        2.920    -0.038    28.947     8.823
    39   6 C        2.922    -0.031    28.770     8.796
    40   7 N        1.842    -0.255    27.488     7.770
    41   6 C        2.906     0.154    24.671     8.144
    42   7 N        1.842    -0.255    27.488     7.770
    43   6 C        2.922    -0.031    28.770     8.796
    44   6 C        2.920    -0.038    28.947     8.823
    45   6 C        2.928     0.058    26.698     8.474
    46   6 C        2.924    -0.059    29.474     8.903
    47   6 C        2.920    -0.033    28.826     8.804
    48   6 C        2.917    -0.045    29.113     8.848
    49   6 C        2.928    -0.036    28.898     8.816
    50   6 C        2.979    -0.014    28.356     8.735
    51   1 H        0.925     0.031     2.569     2.506
    52   1 H        0.925     0.039     2.463     2.454
    53   1 H        0.925     0.039     2.460     2.453
    54   1 H        0.925     0.031     2.575     2.509
    55   1 H        0.925     0.039     2.463     2.454
    56   1 H        0.925     0.039     2.461     2.453
    57   1 H        0.926     0.030     2.592     2.517
    58   1 H        0.926     0.026     2.644     2.543
    59   1 H        0.926     0.027     2.623     2.533
    60   1 H        0.926     0.024     2.673     2.557
    61   1 H        0.926     0.047     2.355     2.400
    62   1 H        0.926     0.065     2.144     2.290
    63   1 H        0.926     0.037     2.489     2.467
    64   1 H        0.926     0.065     2.143     2.289
    65   1 H        0.926     0.047     2.355     2.400
    66   1 H        0.926     0.022     2.703     2.571
    67   1 H        0.926     0.026     2.640     2.541
    68   1 H        0.926     0.026     2.648     2.545
    69   1 H        0.926     0.030     2.590     2.517
    70   1 H        0.925     0.031     2.569     2.506
    71   1 H        0.925     0.039     2.463     2.454
    72   1 H        0.925     0.039     2.460     2.453
    73   1 H        0.925     0.031     2.575     2.509
    74   1 H        0.925     0.039     2.463     2.454
    75   1 H        0.925     0.039     2.461     2.453
    76   1 H        0.926     0.030     2.591     2.517
    77   1 H        0.926     0.026     2.644     2.543
    78   1 H        0.926     0.027     2.623     2.533
    79   1 H        0.926     0.024     2.673     2.557
    80   1 H        0.926     0.044     2.390     2.418
    81   1 H        0.926     0.039     2.458     2.452
    82   1 H        0.925     0.042     2.426     2.436
    83   1 H        0.926     0.039     2.458     2.452
    84   1 H        0.926     0.044     2.390     2.418
    85   1 H        0.926     0.022     2.703     2.571
    86   1 H        0.926     0.026     2.640     2.541
    87   1 H        0.926     0.026     2.648     2.545
    88   1 H        0.926     0.030     2.590     2.517

molecular dipole:
                 x           y           z       tot (Debye)
 q only:        0.001      -0.429       0.004
   full:        0.001      -0.752       0.007       1.912

 projected vibrational frequencies (cm⁻¹)
eigval :       -0.00    -0.00     0.00     0.00     0.00     0.00
eigval :        5.01     5.98    11.24    19.40    20.09    22.75
eigval :       31.44    38.53    40.32    49.24    62.11    74.53
eigval :       97.34    97.91    98.13    99.61   103.87   113.15
eigval :      128.58   128.62   129.50   166.61   180.57   189.49
eigval :      190.20   192.95   201.25   219.03   219.50   224.18
eigval :      232.79   235.86   284.96   295.37   301.24   312.13
eigval :      316.28   326.19   331.30   331.55   344.20   344.41
eigval :      359.45   371.20   371.66   377.95   378.53   385.74
eigval :      404.35   407.09   411.52   428.83   430.99   431.77
eigval :      451.17   451.29   471.39   484.44   491.23   495.97
eigval :      515.22   515.24   517.76   547.40   547.40   549.95
eigval :      551.83   576.13   581.05   590.61   593.56   607.23
eigval :      610.04   616.49   624.15   633.39   665.11   666.07
eigval :      682.46   682.50   693.47   693.50   695.49   711.89
eigval :      719.94   729.87   743.93   765.79   776.60   776.66
eigval :      777.97   777.97   809.71   817.31   824.22   826.38
eigval :      828.36   841.94   865.66   865.70   866.84   866.84
eigval :      869.44   870.04   911.43   912.79   912.92   913.25
eigval :      913.84   913.86   914.18   917.23   919.38   919.84
eigval :      920.96   920.98   921.34   921.35   925.36   929.38
eigval :      929.41   938.85   939.10   957.19   957.19  1003.50
eigval :     1014.40  1014.40  1016.98  1027.27  1077.32  1077.33
eigval :     1084.99  1086.64  1087.33  1091.27  1113.82  1113.88
eigval :     1119.89  1119.90  1129.89  1130.90  1141.10  1141.11
eigval :     1160.48  1160.48  1172.41  1173.05  1184.47  1185.33
eigval :     1187.49  1187.50  1188.19  1188.20  1206.46  1207.33
eigval :     1221.02  1235.75  1244.56  1247.07  1250.25  1250.33
eigval :     1256.77  1265.46  1269.22  1269.36  1276.64  1278.88
eigval :     1295.14  1295.19  1313.57  1313.69  1322.04  1322.58
eigval :     1326.31  1326.96  1335.28  1335.58  1343.86  1343.97
eigval :     1373.71  1401.47  1402.81  1402.98  1404.56  1421.01
eigval :     1421.05  1427.70  1437.04  1437.24  1444.06  1444.14
eigval :     1481.03  1481.12  1482.13  1484.05  1490.21  1490.22
eigval :     1491.15  1491.15  1498.37  1498.69  1500.68  1500.69
eigval :     1505.55  1505.57  1511.27  1551.64  1563.09  1564.38
eigval :     1575.89  1575.89  1589.23  1590.01  1592.79  1593.42
eigval :     1593.45  1594.06  1603.16  1603.29  3026.26  3026.26
eigval :     3028.50  3028.51  3039.22  3039.24  3041.99  3042.00
eigval :     3046.81  3048.22  3048.24  3052.59  3052.67  3077.41
eigval :     3077.42  3078.31  3078.32  3082.40  3082.42  3082.81
eigval :     3082.95  3083.04  3083.27  3090.01  3090.13  3093.18
eigval :     3093.20  3093.92  3093.98  3094.19  3094.56  3099.22
eigval :     3099.25  3100.73  3100.77  3110.20  3110.35  3111.08

   temp. (K)  partition function   enthalpy   heat capacity  entropy
                                   cal/mol     cal/K/mol   cal/K/mol   J/K/mol
 298.15  VIB  0.347E+21            24959.835    155.627    156.755
         ROT  0.718E+08              888.752      2.981     38.928
         INT  0.249E+29            25848.587    158.608    195.683
         TR   0.159E+29             1481.254      4.968     45.262
         TOT                       27329.8413   163.5765   240.9457  1008.1167

       T/K    H(0)-H(T)+PV         H(T)/Eh          T*S/Eh         G(T)/Eh
   ------------------------------------------------------------------------
    298.15    0.435529E-01    0.743582E+00    0.114481E+00    0.629101E+00
   ------------------------------------------------------------------------

         :::::::::::::::::::::::::::::::::::::::::::::::::::::
         ::                  THERMODYNAMIC                  ::
         :::::::::::::::::::::::::::::::::::::::::::::::::::::
         :: total free energy        -129.012312198555 Eh   ::
         ::.................................................::
         :: total energy             -129.641413081258 Eh   ::
         :: zero point energy           0.700029077740 Eh   ::
         :: G(RRHO) w/o ZPVE           -0.070928195037 Eh   ::
         :: G(RRHO) contrib.            0.629100882703 Eh   ::
         :::::::::::::::::::::::::::::::::::::::::::::::::::::

           -------------------------------------------------
          | TOTAL ENERGY             -129.641413081258 Eh   |
          | TOTAL ENTHALPY           -128.897831129209 Eh   |
          | TOTAL FREE ENERGY        -129.012312198555 Eh   |
          | GRADIENT NORM               0.000032554249 Eh/α |
          | HOMO-LUMO GAP               1.509548059171 eV   |
           -------------------------------------------------

 * finished run on 2025/08/29 at 11:49:48.815
