   * xtb version 6.7.1 (edcfbbe) compiled by 'albert@albert-system' on 2024-07-22

   ID    Z sym.   atoms
    1    6 C      1-8, 10-13, 15-31, 33-47
    2    7 N      9, 14, 32
    3    1 H      48-86

          program call               : xtb data2507/gas/TCZ1/TCZ1_gas_S0_crest.xyz --gfn 2 --ohess vtight --parallel 40 --molden --ceasefiles --namespace data2507/gas/TCZ1/TCZ1_gas_S0_finalOpt
          :  Hamiltonian                  GFN2-xTB          :
 * total energy  :  -123.0212766 Eh     change       -0.2838689E-08 Eh
 * total energy  :  -123.0212781 Eh     change       -0.1470688E-05 Eh
 * total energy  :  -123.0212811 Eh     change       -0.3076701E-05 Eh
 * total energy  :  -123.0212857 Eh     change       -0.4559152E-05 Eh
 * total energy  :  -123.0212886 Eh     change       -0.2915958E-05 Eh
 * total energy  :  -123.0212906 Eh     change       -0.1971523E-05 Eh
 * total energy  :  -123.0212929 Eh     change       -0.2321251E-05 Eh
 * total energy  :  -123.0212961 Eh     change       -0.3153414E-05 Eh
 * total energy  :  -123.0212991 Eh     change       -0.3063400E-05 Eh
 * total energy  :  -123.0213015 Eh     change       -0.2365454E-05 Eh
 * total energy  :  -123.0213188 Eh     change       -0.9357115E-06 Eh
 * total energy  :  -123.0213190 Eh     change       -0.1420050E-06 Eh
 * total energy  :  -123.0213192 Eh     change       -0.2321818E-06 Eh
 * total energy  :  -123.0213195 Eh     change       -0.3264039E-06 Eh
 * total energy  :  -123.0213197 Eh     change       -0.2312597E-06 Eh
 * total energy  :  -123.0213200 Eh     change       -0.2382787E-06 Eh
 * total energy  :  -123.0213202 Eh     change       -0.2597532E-06 Eh
 * total energy  :  -123.0213204 Eh     change       -0.1959206E-06 Eh
 * total energy  :  -123.0213205 Eh     change       -0.2824135E-07 Eh
   *** GEOMETRY OPTIMIZATION CONVERGED AFTER 31 ITERATIONS ***

 final structure:
================
86
 xtb: 6.7.1 (edcfbbe)
C            2.21981885199602       -2.86227195814778       -2.14797272145403
C            1.01862694005664       -3.72571751984909       -2.51592191315958
C            0.01640016510726       -3.87751174809390       -1.37091625153425
C            0.53966064794361       -4.75538259806043       -0.23387749799826
C           -0.45011440807524       -4.87883380840602        0.93617656325225
C           -0.44868797970261       -6.28985629016425        1.53888619063200
C           -1.16995920532187       -7.30452061168205        0.65964313426094
C           -0.12990361717308       -3.86232521048484        2.04974074112896
N           -0.08887958220779       -2.50566009016713        1.58006712237474
C            1.03464477084721       -1.77730964932249        1.27297870088141
C            2.37865876069242       -2.08449646052503        1.44645660407615
C            3.31877840308510       -1.15464014374825        1.05615660500077
C            2.94516810283930        0.06903196221505        0.48637746054331
N            3.94117980814291        0.98024354744335        0.09862390800889
C            4.01633786251961        2.30287109218682        0.48223305702535
C            3.18510688835478        3.02716389504305        1.32500358656151
C            3.50341442390799        4.34994570652360        1.56381182667291
C            4.62419160509134        4.94436021359920        0.98742162982875
C            5.46556000238464        4.22386770195630        0.16385383723086
C            5.16694570693827        2.89190947466558       -0.09186341167953
C            5.80811040374140        1.86478070567272       -0.86320485237865
C            6.94859781074502        1.83317166123591       -1.65498067999186
C            7.27971445151309        0.65401560540882       -2.29164536913940
C            6.48257664453149       -0.48110380575230       -2.15797565614706
C            5.34408022295921       -0.47553959333415       -1.37577033800867
C            5.01811457119630        0.70092243681057       -0.71584132379069
C            1.60733629075352        0.38851680533484        0.31567844668360
C            0.65031963417781       -0.53079517241508        0.71964451896982
C           -0.78326488884232       -0.52214719611137        0.69907456422975
C           -1.72222009839139        0.40653121278202        0.27493968430195
C           -3.06644713863555        0.09648147470505        0.41191286511965
N           -4.04480392972525        1.02130007254887        0.01116209361172
C           -4.11074977517095        2.34268128697885        0.40135274066238
C           -3.28603536339066        3.05218737287888        1.26295754729214
C           -3.59248788073218        4.37740217505705        1.50371446559456
C           -4.69560515305080        4.98872597163409        0.91116443696777
C           -5.53121944969055        4.28293461172437        0.06927428526043
C           -5.24423034183910        2.94882542467196       -0.18863828163500
C           -5.88490296664927        1.93383814568753       -0.97622432382050
C           -7.01285342333121        1.92079751774546       -1.78617815903070
C           -7.34865462200676        0.74931243957536       -2.43445322329023
C           -6.56777169132128       -0.39625109427830       -2.29474350928782
C           -5.44158617832701       -0.40863709835154       -1.49494678518485
C           -5.11146543826629        0.75964833969005       -0.82245071373184
C           -3.46546723013963       -1.12981779800401        0.95909464319896
C           -2.54336676653217       -2.07076004669764        1.36650676062132
C           -1.19446825327613       -1.76513083534367        1.23801606069732
H            2.86016525169156       -2.71846163200043       -3.01554384785918
H            2.81201610005850       -3.32697785806954       -1.36342665151413
H            1.89298559250916       -1.88565049957446       -1.79645153836239
H            0.50690272826463       -3.26693610532384       -3.36496603922471
H            1.36186311436878       -4.71374379699383       -2.83223796990391
H           -0.24020001867192       -2.88507824022064       -0.99840840980782
H           -0.89979340295161       -4.32783072874803       -1.76250219048223
H            0.74737353822223       -5.74677452509440       -0.64064826507890
H            1.48388549291364       -4.35439558160006        0.13400088149003
H           -1.45755026621423       -4.66704365343026        0.56290969318900
H            0.58277374064622       -6.61031765802849        1.70188519271563
H           -0.94222996716635       -6.26311471492356        2.51367497202399
H           -0.71174515320960       -7.37038604540746       -0.32379766268487
H           -2.21230620749802       -7.02140339820324        0.53057969283794
H           -1.13698898559045       -8.29068698234143        1.11645305711980
H            0.83815821513194       -4.10385031669391        2.49428606237533
H           -0.88851449198700       -3.93491299971242        2.83712893820861
H            2.69609804434073       -3.01814330818748        1.88634250185427
H            4.36905186743623       -1.36060907798686        1.19742075561612
H            2.32315631783665        2.57023341647700        1.78788465397634
H            2.87086459854125        4.93621525354854        2.21422343372288
H            4.83741462277623        5.98202987305605        1.19741620149253
H            6.34123352690946        4.68089778955377       -0.27211723004261
H            7.55839750038826        2.71668094171733       -1.77036307560632
H            8.16361594660162        0.60786918068214       -2.91049240481322
H            6.75952836761592       -1.38498606178948       -2.68076921108961
H            4.72232568523089       -1.35378781790917       -1.29127958314517
H            1.32044512484674        1.32814297527851       -0.13077793997524
H           -1.41773211090127        1.34641008922397       -0.15896501683137
H           -2.43828336784104        2.58232575242671        1.73886171578991
H           -2.96438973923212        4.95224747190144        2.16846751219230
H           -4.89955925306340        6.02790008684648        1.12285438380795
H           -6.39358813053176        4.75284886716653       -0.37931788107362
H           -7.60960826832540        2.81252397140422       -1.90630619019045
H           -8.22331474813164        0.71732752951356       -3.06711665496203
H           -6.84769683431214       -1.29381652962264       -2.82674966491557
H           -4.83256231279042       -1.29584169871094       -1.40548851457524
H           -4.52080063147642       -1.32837260312490        1.07012999189207
H           -2.87256536905231       -3.00886899032465        1.78583421261350

          :  Hamiltonian                  GFN2-xTB          :
         :: gradient norm              0.000105346817 Eh/a0 ::
         :: HOMO-LUMO gap              2.612388429179 eV    ::
         :: SCC energy              -125.235424023802 Eh    ::
         :: -> dispersion             -0.116166116705 Eh    ::
         :: repulsion energy           2.214103561467 Eh    ::

    * Orbital Energies and Occupations

         #    Occupation            Energy/Eh            Energy/eV
      -------------------------------------------------------------
         1        2.0000           -0.6844108             -18.6238
       ...           ...                  ...                  ...
       103        2.0000           -0.4139470             -11.2641
       104        2.0000           -0.4127791             -11.2323
       105        2.0000           -0.4121514             -11.2152
       106        2.0000           -0.4117351             -11.2039
       107        2.0000           -0.4106805             -11.1752
       108        2.0000           -0.3992371             -10.8638
       109        2.0000           -0.3989062             -10.8548
       110        2.0000           -0.3885684             -10.5735
       111        2.0000           -0.3770728             -10.2607
       112        2.0000           -0.3724905             -10.1360
       113        2.0000           -0.3721651             -10.1271
       114        2.0000           -0.3570395              -9.7155
       115        2.0000           -0.3508135              -9.5461 (HOMO)
       116                         -0.2548100              -6.9337 (LUMO)
       117                         -0.2404822              -6.5439
       118                         -0.2388469              -6.4994
       119                         -0.2319786              -6.3125
       120                         -0.2158099              -5.8725
       121                         -0.2154574              -5.8629
       122                         -0.2103978              -5.7252
       123                         -0.2000347              -5.4432
       124                         -0.1811423              -4.9291
       125                         -0.1808271              -4.9206
       126                         -0.1799418              -4.8965
       ...                                ...                  ...
       227                          0.7528141              20.4851
      -------------------------------------------------------------
                  HL-Gap            0.0960035 Eh            2.6124 eV

     #   Z          covCN         q      C6AA      α(0)
     1   6 C        3.751    -0.098    22.424     6.753
     2   6 C        3.800    -0.053    21.532     6.607
     3   6 C        3.801    -0.056    21.585     6.615
     4   6 C        3.803    -0.064    21.726     6.636
     5   6 C        3.850    -0.027    21.018     6.521
     6   6 C        3.804    -0.058    21.617     6.619
     7   6 C        3.752    -0.103    22.524     6.768
     8   6 C        3.743    -0.003    20.710     6.492
     9   7 N        2.796    -0.040    22.010     6.968
    10   6 C        3.081     0.046    26.885     8.500
    11   6 C        2.910    -0.049    29.208     8.862
    12   6 C        2.926    -0.045    29.129     8.851
    13   6 C        2.913     0.053    26.819     8.492
    14   7 N        2.804    -0.045    22.103     6.983
    15   6 C        3.078     0.046    26.879     8.500
    16   6 C        2.910    -0.051    29.275     8.872
    17   6 C        2.924    -0.034    28.845     8.808
    18   6 C        2.920    -0.042    29.039     8.837
    19   6 C        2.912    -0.033    28.829     8.804
    20   6 C        3.069    -0.018    28.389     8.737
    21   6 C        3.069    -0.018    28.390     8.737
    22   6 C        2.912    -0.033    28.831     8.805
    23   6 C        2.920    -0.042    29.044     8.838
    24   6 C        2.924    -0.034    28.857     8.809
    25   6 C        2.910    -0.053    29.305     8.877
    26   6 C        3.079     0.046    26.879     8.500
    27   6 C        2.915    -0.047    29.155     8.854
    28   6 C        3.072    -0.018    28.372     8.734
    29   6 C        3.069    -0.018    28.386     8.736
    30   6 C        2.915    -0.046    29.154     8.854
    31   6 C        2.913     0.053    26.819     8.492
    32   7 N        2.804    -0.044    22.096     6.981
    33   6 C        3.078     0.046    26.878     8.500
    34   6 C        2.910    -0.051    29.273     8.872
    35   6 C        2.924    -0.034    28.844     8.807
    36   6 C        2.920    -0.042    29.037     8.837
    37   6 C        2.912    -0.033    28.828     8.804
    38   6 C        3.069    -0.018    28.388     8.736
    39   6 C        3.069    -0.018    28.387     8.736
    40   6 C        2.912    -0.033    28.828     8.804
    41   6 C        2.920    -0.042    29.042     8.837
    42   6 C        2.924    -0.034    28.855     8.809
    43   6 C        2.910    -0.052    29.281     8.873
    44   6 C        3.078     0.046    26.879     8.500
    45   6 C        2.926    -0.046    29.146     8.853
    46   6 C        2.909    -0.051    29.267     8.871
    47   6 C        3.086     0.042    26.954     8.510
    48   1 H        0.925     0.033     2.541     2.493
    49   1 H        0.925     0.030     2.591     2.517
    50   1 H        0.925     0.032     2.551     2.498
    51   1 H        0.924     0.030     2.589     2.516
    52   1 H        0.924     0.029     2.599     2.521
    53   1 H        0.924     0.031     2.571     2.507
    54   1 H        0.924     0.026     2.648     2.545
    55   1 H        0.924     0.038     2.480     2.463
    56   1 H        0.925     0.037     2.483     2.464
    57   1 H        0.924     0.040     2.448     2.447
    58   1 H        0.924     0.033     2.546     2.495
    59   1 H        0.924     0.030     2.590     2.517
    60   1 H        0.925     0.039     2.466     2.456
    61   1 H        0.925     0.036     2.503     2.474
    62   1 H        0.925     0.037     2.489     2.467
    63   1 H        0.924     0.049     2.332     2.388
    64   1 H        0.924     0.043     2.411     2.428
    65   1 H        0.926     0.028     2.614     2.528
    66   1 H        0.926     0.040     2.450     2.448
    67   1 H        0.926     0.026     2.649     2.545
    68   1 H        0.926     0.027     2.626     2.534
    69   1 H        0.926     0.026     2.643     2.542
    70   1 H        0.926     0.029     2.599     2.521
    71   1 H        0.926     0.029     2.601     2.522
    72   1 H        0.926     0.026     2.650     2.546
    73   1 H        0.926     0.026     2.642     2.542
    74   1 H        0.926     0.028     2.616     2.529
    75   1 H        0.926     0.042     2.427     2.436
    76   1 H        0.926     0.042     2.422     2.433
    77   1 H        0.926     0.026     2.645     2.543
    78   1 H        0.926     0.027     2.624     2.533
    79   1 H        0.926     0.026     2.641     2.541
    80   1 H        0.926     0.029     2.598     2.520
    81   1 H        0.926     0.029     2.597     2.520
    82   1 H        0.926     0.026     2.647     2.544
    83   1 H        0.926     0.026     2.638     2.540
    84   1 H        0.926     0.025     2.656     2.549
    85   1 H        0.926     0.040     2.445     2.445
    86   1 H        0.926     0.032     2.556     2.500

molecular dipole:
                 x           y           z       tot (Debye)
 q only:       -0.028      -1.684       0.536
   full:       -0.031      -1.833       0.654       4.947

 projected vibrational frequencies (cm⁻¹)
eigval :       -0.00    -0.00    -0.00     0.00     0.00     0.00
eigval :       14.94    16.68    19.13    22.08    24.78    30.26
eigval :       40.05    47.01    53.78    57.49    72.21    91.01
eigval :       97.95   103.90   113.53   120.56   121.82   129.83
eigval :      141.62   144.13   151.50   155.83   160.45   175.12
eigval :      207.30   213.26   225.42   245.46   253.22   257.23
eigval :      263.19   271.22   272.11   275.81   292.90   316.70
eigval :      334.01   342.48   348.55   379.25   385.57   394.48
eigval :      400.04   401.60   421.74   423.42   424.30   431.07
eigval :      435.56   437.44   442.89   459.41   492.58   499.42
eigval :      518.16   518.34   527.93   531.02   541.23   541.31
eigval :      544.41   547.84   560.38   586.28   588.93   593.39
eigval :      613.07   619.53   626.20   645.59   673.37   673.91
eigval :      678.00   683.83   704.38   707.70   708.76   711.47
eigval :      755.45   756.70   757.70   768.87   769.32   770.66
eigval :      780.24   780.55   806.68   816.80   820.32   821.25
eigval :      823.82   851.74   866.41   866.92   871.50   872.04
eigval :      882.80   885.25   897.91   898.23   900.58   900.63
eigval :      901.22   903.25   903.71   911.80   912.26   922.10
eigval :      922.44   923.15   923.25   928.86   940.56   948.45
eigval :      968.26   996.57  1007.08  1012.06  1012.75  1022.18
eigval :     1032.79  1050.02  1060.54  1069.77  1069.89  1073.23
eigval :     1073.28  1093.01  1104.68  1109.98  1112.75  1131.56
eigval :     1139.15  1151.59  1152.23  1156.08  1158.03  1162.57
eigval :     1167.47  1174.52  1175.09  1181.32  1181.76  1182.16
eigval :     1184.65  1194.84  1219.83  1226.42  1229.78  1231.86
eigval :     1237.68  1238.45  1245.44  1247.13  1264.93  1267.21
eigval :     1273.61  1291.86  1299.33  1300.47  1304.01  1306.28
eigval :     1308.45  1316.49  1334.90  1338.50  1346.32  1349.64
eigval :     1352.19  1352.96  1356.03  1359.08  1359.40  1364.70
eigval :     1364.92  1376.29  1387.83  1391.38  1418.23  1418.85
eigval :     1422.04  1428.87  1428.93  1435.54  1440.94  1451.47
eigval :     1468.07  1475.60  1476.56  1484.14  1488.79  1489.42
eigval :     1489.48  1491.80  1496.49  1496.67  1497.49  1504.30
eigval :     1505.87  1509.60  1511.13  1562.97  1572.84  1574.43
eigval :     1579.44  1589.25  1589.59  1598.94  1599.51  1601.49
eigval :     1615.62  1616.21  1619.32  2929.94  2939.65  2959.49
eigval :     2962.85  2964.64  2977.19  2979.70  2981.92  2983.42
eigval :     3005.49  3010.76  3031.06  3032.07  3033.33  3037.87
eigval :     3040.71  3044.90  3073.70  3074.16  3074.44  3074.56
eigval :     3076.99  3079.11  3079.46  3080.31  3081.32  3085.92
eigval :     3086.85  3087.04  3087.98  3090.72  3093.41  3094.17
eigval :     3095.23  3095.94  3096.53  3097.62  3098.90  3099.97

   temp. (K)  partition function   enthalpy   heat capacity  entropy
                                   cal/mol     cal/K/mol   cal/K/mol   J/K/mol
 298.15  VIB  0.481E+18            23128.630    146.126    143.017
         ROT  0.843E+08              888.752      2.981     39.247
         INT  0.405E+26            24017.382    149.107    182.264
         TR   0.146E+29             1481.254      4.968     45.087
         TOT                       25498.6364   154.0755   227.3509   951.2361

       T/K    H(0)-H(T)+PV         H(T)/Eh          T*S/Eh         G(T)/Eh
   ------------------------------------------------------------------------
    298.15    0.406347E-01    0.740570E+00    0.108022E+00    0.632548E+00
   ------------------------------------------------------------------------

         :::::::::::::::::::::::::::::::::::::::::::::::::::::
         ::                  THERMODYNAMIC                  ::
         :::::::::::::::::::::::::::::::::::::::::::::::::::::
         :: total free energy        -122.388772046749 Eh   ::
         ::.................................................::
         :: total energy             -123.021320462337 Eh   ::
         :: zero point energy           0.699935497672 Eh   ::
         :: G(RRHO) w/o ZPVE           -0.067387082085 Eh   ::
         :: G(RRHO) contrib.            0.632548415587 Eh   ::
         :::::::::::::::::::::::::::::::::::::::::::::::::::::

           -------------------------------------------------
          | TOTAL ENERGY             -123.021320462337 Eh   |
          | TOTAL ENTHALPY           -122.280750301051 Eh   |
          | TOTAL FREE ENERGY        -122.388772046749 Eh   |
          | GRADIENT NORM               0.000105369851 Eh/α |
          | HOMO-LUMO GAP               2.612389024433 eV   |
           -------------------------------------------------

 * finished run on 2025/09/13 at 11:11:01.729
