   * xtb version 6.7.1 (edcfbbe) compiled by 'albert@albert-system' on 2024-07-22

   ID    Z sym.   atoms
    1    6 C      1-8, 10-13, 15-31, 33-47
    2    7 N      9, 14, 32
    3    1 H      48-86

          program call               : xtb data2507/gas/TCz1/TCz1_gas_S0_crest.xyz --gfn 2 --ohess vtight --parallel 40 --molden --ceasefiles --namespace data2507/gas/TCz1/TCz1_gas_S0_finalOpt
          :  Hamiltonian                  GFN2-xTB          :
 * total energy  :  -123.0212046 Eh     change       -0.2775778E-08 Eh
 * total energy  :  -123.0212062 Eh     change       -0.1605952E-05 Eh
 * total energy  :  -123.0212081 Eh     change       -0.1968913E-05 Eh
 * total energy  :  -123.0212109 Eh     change       -0.2725583E-05 Eh
 * total energy  :  -123.0212115 Eh     change       -0.6177899E-06 Eh
 * total energy  :  -123.0212123 Eh     change       -0.8615240E-06 Eh
 * total energy  :  -123.0212135 Eh     change       -0.1170081E-05 Eh
 * total energy  :  -123.0212144 Eh     change       -0.8583751E-06 Eh
 * total energy  :  -123.0212150 Eh     change       -0.6085475E-06 Eh
 * total energy  :  -123.0212156 Eh     change       -0.5995023E-06 Eh
 * total energy  :  -123.0212177 Eh     change       -0.5237835E-06 Eh
 * total energy  :  -123.0212182 Eh     change       -0.5139715E-06 Eh
 * total energy  :  -123.0212186 Eh     change       -0.3786688E-06 Eh
 * total energy  :  -123.0212189 Eh     change       -0.2768153E-06 Eh
 * total energy  :  -123.0212191 Eh     change       -0.2175562E-06 Eh
 * total energy  :  -123.0212193 Eh     change       -0.1665963E-06 Eh
 * total energy  :  -123.0212194 Eh     change       -0.1468469E-06 Eh
 * total energy  :  -123.0212195 Eh     change       -0.1368358E-06 Eh
 * total energy  :  -123.0212195 Eh     change       -0.2441041E-08 Eh
   *** GEOMETRY OPTIMIZATION CONVERGED AFTER 22 ITERATIONS ***

 final structure:
================
86
 xtb: 6.7.1 (edcfbbe)
C           -2.46071535659665       -2.50346043416157        2.28867899257060
C           -1.31913560347656       -3.36584457644377        2.81488407172048
C           -0.26783248153254       -3.68351755278348        1.75070461058740
C           -0.77108609726890       -4.66255972884205        0.68978169270113
C            0.27209307121771       -4.95798081247786       -0.40033354224366
C            0.23346974615912       -6.42623125063167       -0.84435838341003
C            0.85846025775348       -7.36612140923236        0.17973519343564
C            0.06182445661119       -4.06030610300336       -1.63567146931452
N            0.05917216814414       -2.65879510593345       -1.32188458371892
C           -1.04454436117019       -1.85687803384820       -1.16059014327500
C           -2.38999878310639       -2.12802828697939       -1.37740187438716
C           -3.30644955480702       -1.12537476116859       -1.14175208814050
C           -2.90850222721750        0.13696703036005       -0.68379373885866
N           -3.88183447449045        1.12227686491989       -0.45036656115255
C           -3.87862414867369        2.39787199715725       -0.97499158770188
C           -2.97346991871791        2.99479577286694       -1.84109875563998
C           -3.22051504918857        4.29532369892952       -2.23578159687886
C           -4.34257315514776        4.99074573639134       -1.78958908278456
C           -5.25667153530924        4.39582337445687       -0.94355821746018
C           -5.03070768440457        3.08869472810859       -0.53241127912665
C           -5.75612796283135        2.17567832599882        0.30498755836813
C           -6.93712300505428        2.27293079799636        1.02913783536379
C           -7.35312395546539        1.18251265913685        1.76627886229241
C           -6.60086695829910        0.00998282024480        1.79847229832528
C           -5.42354165327251       -0.11203679179741        1.08635877500649
C           -5.01152205484507        0.97337806588210        0.32610120346188
C           -1.56830998747336        0.42063207040339       -0.47265431658246
C           -0.63370508738115       -0.57367499554804       -0.72212010862247
C            0.79555215470129       -0.62054272913706       -0.61737083797615
C            1.75338258981902        0.31434558836214       -0.25344449208718
C            3.08551684991026       -0.06956921906174       -0.25553320461729
N            4.08083686303352        0.84703477556764        0.12189207190893
C            4.09766805560418        1.58191494400050        1.28897371218310
C            3.19981830271673        1.58031167656570        2.34712417329650
C            3.46772122893864        2.40668731288484        3.42115108238507
C            4.60318979234655        3.21374597984658        3.45316203101294
C            5.51013669941552        3.20495929486704        2.41266032576997
C            5.26319194171120        2.38238206890983        1.32127491706410
C            5.97588748437820        2.11269690744092        0.10457692762241
C            7.16108384309118        2.59298205402024       -0.43680905476440
C            7.56143869344104        2.12583555594530       -1.67248339594804
C            6.78955529881033        1.20170426693129       -2.37383113407814
C            5.60733767885572        0.70875210035369       -1.85664143823964
C            5.21058680210905        1.15791538635113       -0.60487948697519
C            3.45511789861506       -1.36875518869189       -0.62676323465883
C            2.51519207155616       -2.30458550262342       -1.00414788154891
C            1.17746313118960       -1.93069422823658       -0.99481762965278
H           -3.13824104839854       -2.24026325927196        3.09806410967425
H           -3.03113856748403       -3.02952396035034        1.52711562703815
H           -2.07384311547148       -1.58489675860878        1.85187398043997
H           -0.83119901701240       -2.83527264095244        3.63566935781017
H           -1.72153936103318       -4.29824885118539        3.21824832526832
H            0.05108333266374       -2.74987923432539        1.28588850019276
H            0.60667680213072       -4.12165520805263        2.23935847710013
H           -1.04557890013933       -5.59230507700176        1.19148824208731
H           -1.67504816486949       -4.26824095976075        0.22595968364237
H            1.26731836605963       -4.74907176599366        0.00582614443898
H           -0.80254535701290       -6.71881128415584       -1.02942758844135
H            0.77726889379153       -6.52954011801682       -1.78676187737794
H            1.90535009015490       -7.11508108441982        0.33560693683061
H            0.80097316267156       -8.39485435034861       -0.16772713592609
H            0.34784710963115       -7.30207420734472        1.13714215024407
H           -0.89070038512762       -4.31047175050355       -2.10813083275795
H            0.85826689459624       -4.25204840858053       -2.36347189013391
H           -2.72560351064434       -3.09056790181451       -1.73355041345946
H           -4.35608456817186       -1.30406337683888       -1.32003385844174
H           -2.10937607472588        2.45831372644066       -2.20378740481760
H           -2.52965969267378        4.78335055495028       -2.90765319446708
H           -4.49851760137053        6.00721836187514       -2.11940604141210
H           -6.13291163137609        4.93026936415600       -0.60840660572651
H           -7.51260489844762        3.18638418658062        1.01586196574312
H           -8.26973009978245        1.23690007849214        2.33483195376694
H           -6.94467099457791       -0.82134730906468        2.39657828526432
H           -4.83779744673600       -1.01755181173633        1.13019432300242
H           -1.26325202035537        1.39115818509673       -0.11269752372202
H            1.47367855959383        1.32124524911776        0.01555991286584
H            2.32527625398428        0.94699700532124        2.33743741353530
H            2.78280809233062        2.42581191892842        4.25625286063231
H            4.77528453832940        3.84801788317772        4.31013428437655
H            6.39665098274312        3.82047636187241        2.44342581970176
H            7.75186078109932        3.32001976147581        0.09998425200496
H            8.48100188100501        2.48506710022894       -2.11028527021472
H            7.12161458008526        0.86606234949254       -3.34546453034940
H            5.00677191465683        0.00530733938564       -2.41389875493783
H            4.50063205826114       -1.63666016624964       -0.60202637874770
H            2.82188283362354       -3.29838391471172       -1.29147274205666

          :  Hamiltonian                  GFN2-xTB          :
         :: gradient norm              0.000034091428 Eh/a0 ::
         :: HOMO-LUMO gap              2.625925859318 eV    ::
         :: SCC energy              -125.235207555675 Eh    ::
         :: -> dispersion             -0.116023174556 Eh    ::
         :: repulsion energy           2.213988012689 Eh    ::

    * Orbital Energies and Occupations

         #    Occupation            Energy/Eh            Energy/eV
      -------------------------------------------------------------
         1        2.0000           -0.6844130             -18.6238
       ...           ...                  ...                  ...
       103        2.0000           -0.4137487             -11.2587
       104        2.0000           -0.4129155             -11.2360
       105        2.0000           -0.4122446             -11.2177
       106        2.0000           -0.4115929             -11.2000
       107        2.0000           -0.4105734             -11.1723
       108        2.0000           -0.3991880             -10.8625
       109        2.0000           -0.3988821             -10.8541
       110        2.0000           -0.3885513             -10.5730
       111        2.0000           -0.3770311             -10.2595
       112        2.0000           -0.3724296             -10.1343
       113        2.0000           -0.3721387             -10.1264
       114        2.0000           -0.3565286              -9.7016
       115        2.0000           -0.3513084              -9.5596 (HOMO)
       116                         -0.2548074              -6.9337 (LUMO)
       117                         -0.2404226              -6.5422
       118                         -0.2388324              -6.4990
       119                         -0.2319791              -6.3125
       120                         -0.2157426              -5.8707
       121                         -0.2154327              -5.8622
       122                         -0.2104203              -5.7258
       123                         -0.2000171              -5.4427
       124                         -0.1812325              -4.9316
       125                         -0.1807332              -4.9180
       126                         -0.1798782              -4.8947
       ...                                ...                  ...
       227                          0.7528154              20.4851
      -------------------------------------------------------------
                  HL-Gap            0.0965010 Eh            2.6259 eV

     #   Z          covCN         q      C6AA      α(0)
     1   6 C        3.751    -0.097    22.422     6.753
     2   6 C        3.800    -0.053    21.529     6.606
     3   6 C        3.801    -0.056    21.586     6.615
     4   6 C        3.803    -0.064    21.726     6.636
     5   6 C        3.850    -0.027    21.020     6.521
     6   6 C        3.804    -0.058    21.617     6.619
     7   6 C        3.752    -0.103    22.525     6.768
     8   6 C        3.743    -0.003    20.710     6.492
     9   7 N        2.796    -0.040    22.012     6.968
    10   6 C        3.081     0.046    26.884     8.500
    11   6 C        2.910    -0.049    29.208     8.862
    12   6 C        2.926    -0.045    29.128     8.851
    13   6 C        2.913     0.053    26.819     8.492
    14   7 N        2.804    -0.045    22.103     6.983
    15   6 C        3.078     0.046    26.878     8.500
    16   6 C        2.910    -0.051    29.276     8.872
    17   6 C        2.924    -0.034    28.845     8.808
    18   6 C        2.920    -0.042    29.038     8.837
    19   6 C        2.912    -0.033    28.829     8.804
    20   6 C        3.069    -0.018    28.389     8.737
    21   6 C        3.069    -0.018    28.389     8.737
    22   6 C        2.912    -0.033    28.831     8.805
    23   6 C        2.920    -0.042    29.045     8.838
    24   6 C        2.924    -0.034    28.858     8.810
    25   6 C        2.910    -0.053    29.306     8.877
    26   6 C        3.078     0.046    26.879     8.500
    27   6 C        2.915    -0.047    29.155     8.854
    28   6 C        3.072    -0.018    28.371     8.733
    29   6 C        3.069    -0.018    28.386     8.736
    30   6 C        2.915    -0.046    29.151     8.854
    31   6 C        2.913     0.053    26.820     8.492
    32   7 N        2.804    -0.044    22.098     6.982
    33   6 C        3.079     0.046    26.877     8.499
    34   6 C        2.910    -0.051    29.274     8.872
    35   6 C        2.924    -0.034    28.846     8.808
    36   6 C        2.920    -0.042    29.037     8.837
    37   6 C        2.912    -0.033    28.828     8.804
    38   6 C        3.069    -0.018    28.388     8.736
    39   6 C        3.069    -0.018    28.387     8.736
    40   6 C        2.912    -0.033    28.828     8.804
    41   6 C        2.920    -0.042    29.042     8.837
    42   6 C        2.924    -0.034    28.854     8.809
    43   6 C        2.910    -0.052    29.281     8.873
    44   6 C        3.078     0.046    26.879     8.500
    45   6 C        2.926    -0.046    29.146     8.853
    46   6 C        2.909    -0.051    29.267     8.871
    47   6 C        3.086     0.042    26.953     8.510
    48   1 H        0.925     0.033     2.539     2.492
    49   1 H        0.925     0.030     2.591     2.517
    50   1 H        0.925     0.032     2.554     2.499
    51   1 H        0.924     0.030     2.591     2.517
    52   1 H        0.924     0.029     2.599     2.521
    53   1 H        0.924     0.031     2.574     2.509
    54   1 H        0.924     0.026     2.645     2.543
    55   1 H        0.924     0.038     2.480     2.463
    56   1 H        0.925     0.037     2.483     2.464
    57   1 H        0.924     0.040     2.446     2.446
    58   1 H        0.924     0.033     2.546     2.495
    59   1 H        0.924     0.030     2.590     2.517
    60   1 H        0.925     0.036     2.503     2.474
    61   1 H        0.925     0.037     2.489     2.467
    62   1 H        0.925     0.039     2.466     2.456
    63   1 H        0.924     0.049     2.332     2.388
    64   1 H        0.924     0.043     2.412     2.429
    65   1 H        0.926     0.028     2.613     2.528
    66   1 H        0.926     0.040     2.450     2.448
    67   1 H        0.926     0.026     2.646     2.544
    68   1 H        0.926     0.027     2.627     2.534
    69   1 H        0.926     0.026     2.643     2.542
    70   1 H        0.926     0.029     2.599     2.521
    71   1 H        0.926     0.029     2.601     2.522
    72   1 H        0.926     0.026     2.650     2.546
    73   1 H        0.926     0.026     2.642     2.542
    74   1 H        0.926     0.028     2.615     2.529
    75   1 H        0.926     0.042     2.428     2.437
    76   1 H        0.926     0.042     2.423     2.434
    77   1 H        0.926     0.026     2.644     2.543
    78   1 H        0.926     0.027     2.625     2.534
    79   1 H        0.926     0.026     2.642     2.542
    80   1 H        0.926     0.029     2.598     2.520
    81   1 H        0.926     0.029     2.597     2.520
    82   1 H        0.926     0.026     2.646     2.544
    83   1 H        0.926     0.027     2.636     2.539
    84   1 H        0.926     0.025     2.656     2.549
    85   1 H        0.926     0.040     2.445     2.445
    86   1 H        0.926     0.032     2.556     2.500

molecular dipole:
                 x           y           z       tot (Debye)
 q only:       -0.022      -1.739      -0.334
   full:       -0.018      -1.898      -0.442       4.954

 projected vibrational frequencies (cm⁻¹)
eigval :       -0.00    -0.00     0.00     0.00     0.00     0.00
eigval :       14.92    16.65    19.00    21.96    24.83    30.95
eigval :       39.98    46.64    54.01    57.41    72.57    91.04
eigval :       97.87   103.82   114.04   119.54   123.81   129.54
eigval :      142.83   144.10   151.32   152.39   159.35   177.53
eigval :      205.27   212.87   226.28   246.72   251.25   258.51
eigval :      264.40   271.68   272.26   276.98   291.26   310.56
eigval :      338.16   339.88   350.70   374.32   391.41   394.72
eigval :      401.72   405.17   418.66   422.76   423.98   430.69
eigval :      436.29   436.95   442.84   458.14   493.34   497.58
eigval :      518.11   518.44   527.88   530.38   540.60   541.30
eigval :      541.60   552.13   562.49   586.32   589.80   593.21
eigval :      605.77   618.89   633.81   643.75   673.48   673.88
eigval :      678.73   682.98   704.35   707.68   708.77   711.47
eigval :      755.38   756.72   757.72   769.02   769.30   770.47
eigval :      780.37   780.57   806.67   817.80   819.24   821.42
eigval :      823.78   851.65   866.69   866.97   871.55   872.04
eigval :      882.62   885.01   898.03   898.11   900.44   900.71
eigval :      901.25   903.42   903.64   911.82   912.18   922.37
eigval :      922.48   923.19   923.24   928.83   940.37   948.43
eigval :      968.24   996.63  1007.01  1012.10  1012.69  1022.13
eigval :     1032.87  1049.95  1060.57  1069.71  1069.88  1073.15
eigval :     1073.28  1093.04  1104.83  1109.87  1112.76  1131.58
eigval :     1139.15  1151.69  1152.13  1156.04  1157.96  1162.60
eigval :     1167.49  1174.48  1175.12  1181.59  1181.63  1182.20
eigval :     1184.45  1194.99  1219.86  1226.33  1229.71  1231.92
eigval :     1237.80  1238.29  1245.52  1247.15  1264.87  1267.27
eigval :     1273.74  1292.00  1299.32  1300.42  1304.07  1306.44
eigval :     1308.18  1316.53  1335.04  1338.42  1346.24  1349.88
eigval :     1352.16  1352.90  1356.03  1359.06  1359.37  1364.65
eigval :     1364.86  1376.45  1387.86  1391.29  1418.19  1418.91
eigval :     1422.05  1428.79  1428.93  1435.40  1440.90  1451.40
eigval :     1468.00  1475.73  1476.45  1484.04  1488.76  1489.38
eigval :     1489.41  1491.80  1496.38  1496.64  1497.38  1504.30
eigval :     1505.86  1509.52  1511.16  1562.89  1572.80  1574.42
eigval :     1579.37  1589.25  1589.54  1599.00  1599.40  1601.33
eigval :     1615.67  1616.16  1619.15  2929.68  2939.88  2959.78
eigval :     2962.82  2964.71  2977.15  2979.65  2981.96  2983.41
eigval :     3005.78  3010.53  3030.86  3031.91  3033.37  3037.73
eigval :     3040.84  3044.86  3073.79  3074.18  3074.43  3074.51
eigval :     3077.04  3079.09  3079.50  3080.25  3081.34  3085.90
eigval :     3086.93  3087.00  3087.87  3090.87  3093.39  3094.23
eigval :     3095.18  3095.91  3096.52  3097.62  3098.84  3099.81

   temp. (K)  partition function   enthalpy   heat capacity  entropy
                                   cal/mol     cal/K/mol   cal/K/mol   J/K/mol
 298.15  VIB  0.480E+18            23129.448    146.135    143.027
         ROT  0.843E+08              888.752      2.981     39.248
         INT  0.404E+26            24018.201    149.115    182.275
         TR   0.146E+29             1481.254      4.968     45.087
         TOT                       25499.4545   154.0836   227.3613   951.2796

       T/K    H(0)-H(T)+PV         H(T)/Eh          T*S/Eh         G(T)/Eh
   ------------------------------------------------------------------------
    298.15    0.406360E-01    0.740566E+00    0.108027E+00    0.632539E+00
   ------------------------------------------------------------------------

         :::::::::::::::::::::::::::::::::::::::::::::::::::::
         ::                  THERMODYNAMIC                  ::
         :::::::::::::::::::::::::::::::::::::::::::::::::::::
         :: total free energy        -122.388680406130 Eh   ::
         ::.................................................::
         :: total energy             -123.021219542986 Eh   ::
         :: zero point energy           0.699929854913 Eh   ::
         :: G(RRHO) w/o ZPVE           -0.067390718056 Eh   ::
         :: G(RRHO) contrib.            0.632539136857 Eh   ::
         :::::::::::::::::::::::::::::::::::::::::::::::::::::

           -------------------------------------------------
          | TOTAL ENERGY             -123.021219542986 Eh   |
          | TOTAL ENTHALPY           -122.280653720797 Eh   |
          | TOTAL FREE ENERGY        -122.388680406130 Eh   |
          | GRADIENT NORM               0.000034089869 Eh/α |
          | HOMO-LUMO GAP               2.625925926125 eV   |
           -------------------------------------------------

 * finished run on 2025/07/20 at 10:52:59.748
