   * xtb version 6.7.1 (edcfbbe) compiled by 'albert@albert-system' on 2024-07-22

   ID    Z sym.   atoms
    1    6 C      1-8, 10-13, 15-31, 33-47
    2    7 N      9, 14, 32
    3    1 H      48-86

          program call               : xtb data2507/gas/TCz1/TCz1_gas_S0_finalOpt.xtbopt.xyz --gfn 2 --spinpol --tblite --uhf 2 --ohess vtight --parallel 40 --molden --ceasefiles --namespace data2507/gas/TCz1/TCz1_gas_T1_preOpt
 * total energy  :  -122.9180155 Eh     change       -0.8934038E-08 Eh
 * total energy  :  -122.9201260 Eh     change       -0.2110479E-02 Eh
 * total energy  :  -122.9207119 Eh     change       -0.5859342E-03 Eh
 * total energy  :  -122.9207815 Eh     change       -0.6955972E-04 Eh
 * total energy  :  -122.9208236 Eh     change       -0.4205149E-04 Eh
 * total energy  :  -122.9208391 Eh     change       -0.1557248E-04 Eh
 * total energy  :  -122.9208579 Eh     change       -0.1882032E-04 Eh
 * total energy  :  -122.9208805 Eh     change       -0.2250649E-04 Eh
 * total energy  :  -122.9208944 Eh     change       -0.1398392E-04 Eh
 * total energy  :  -122.9209261 Eh     change       -0.3169812E-04 Eh
 * total energy  :  -122.9210541 Eh     change       -0.5978854E-06 Eh
 * total energy  :  -122.9210547 Eh     change       -0.5809311E-06 Eh
 * total energy  :  -122.9210554 Eh     change       -0.6538372E-06 Eh
 * total energy  :  -122.9210561 Eh     change       -0.7025529E-06 Eh
 * total energy  :  -122.9210568 Eh     change       -0.7663440E-06 Eh
 * total energy  :  -122.9210576 Eh     change       -0.7679413E-06 Eh
 * total energy  :  -122.9210583 Eh     change       -0.7112317E-06 Eh
 * total energy  :  -122.9210583 Eh     change        0.3478235E-07 Eh
 * total energy  :  -122.9210583 Eh     change       -0.2934028E-07 Eh
   *** GEOMETRY OPTIMIZATION CONVERGED AFTER 45 ITERATIONS ***

 final structure:
================
86
 xtb: 6.7.1 (edcfbbe)
C           -2.48349671801263       -2.49388523822560        2.27409812607121
C           -1.34709830322248       -3.35783973769184        2.80880534062995
C           -0.28724029703743       -3.67395411961137        1.75270066396503
C           -0.78431678364557       -4.64774407726033        0.68395630371203
C            0.26810930550893       -4.94259143473477       -0.39674124319364
C            0.23547908230444       -6.41032404839860       -0.84215291156188
C            0.85102067175626       -7.34868361772575        0.18916054851308
C            0.06641420463470       -4.04476333612921       -1.63587042387286
N            0.06587731899068       -2.64821380245079       -1.31678200520750
C           -1.04384116177679       -1.85469974481291       -1.16274324575023
C           -2.37732433164575       -2.14436670428069       -1.37355521032181
C           -3.32385283475163       -1.14496088799997       -1.11055779460030
C           -2.92088281241623        0.11882332567199       -0.66878326449090
N           -3.88646613140856        1.09209047663192       -0.41986523580193
C           -3.84598196170319        2.40026364321735       -0.86504750441369
C           -2.91198986058593        3.02742151165186       -1.67465285403391
C           -3.13279765423024        4.35519750354722       -2.00865354154197
C           -4.26071112067340        5.03604839365774       -1.56134284379035
C           -5.21260972450070        4.40674270707835       -0.77911995541127
C           -5.01128315868811        3.07722899377023       -0.42929698747394
C           -5.78026015285137        2.12643817365903        0.32135893137891
C           -6.98418669957370        2.20162648012828        1.01105746215495
C           -7.43779554423248        1.07543829972694        1.67418339910813
C           -6.70110571549201       -0.10493694067202        1.67352278675629
C           -5.49699752051007       -0.20353091924173        0.99267444714766
C           -5.05330362173722        0.91113456794534        0.29877837166246
C           -1.57163039277199        0.43220341226551       -0.47428455096522
C           -0.61632565225498       -0.56262689645438       -0.72314823980289
C            0.79377261772958       -0.60981775112303       -0.61725329976554
C            1.77101812079824        0.32355024411185       -0.24643974801652
C            3.11153264983479       -0.07404771779984       -0.27794332135025
N            4.09788514881294        0.84342209532203        0.08537033850171
C            4.07324745950365        1.64868900374417        1.20828718542740
C            3.14560905878383        1.69920508586357        2.23751681439131
C            3.38138346436797        2.58365422042527        3.27835470514219
C            4.51772455913835        3.38649561179715        3.30343140330735
C            5.46347581053435        3.31735692019465        2.29647539588781
C            5.24714052287453        2.43994968443756        1.24141745036386
C            6.00646510157589        2.09343361389624        0.07402893593152
C            7.21356116144003        2.54098083679181       -0.44789193848198
C            7.65704449869833        2.00407482399551       -1.64287533909704
C            6.90647247922620        1.05087336355926       -2.32450755695265
C            5.69897565481521        0.59016094142891       -1.82370325835689
C            5.26407941223307        1.10014204740895       -0.61005072815414
C            3.48635594535018       -1.36380983842501       -0.66409319999391
C            2.51742891949710       -2.31106108786159       -1.02418420186775
C            1.19265719144528       -1.92718198440837       -0.99950831882021
H           -3.16465781956241       -2.22556574074188        3.07888860288617
H           -3.05105474544595       -3.02075508867301        1.51117661488369
H           -2.09123145132072       -1.57880551649776        1.83540764948146
H           -0.86528808487924       -2.82894441281305        3.63433111700314
H           -1.75316458601830       -4.29083478246266        3.20754449052686
H            0.03711013393715       -2.73949137702845        1.29360465739569
H            0.58223662305986       -4.11580389529074        2.24709837402539
H           -1.06751692237869       -5.57860494804680        1.17890110204283
H           -1.68216760905149       -4.24715331857741        0.21354574355256
H            1.26004466016368       -4.72967221116493        0.01504699005827
H           -0.79821884659117       -6.70413511964449       -1.03791405328630
H            0.78951726260634       -6.51345592361587       -1.77853597165621
H            1.89525731760109       -7.09462399540044        0.35718541581245
H            0.80036152254760       -8.37740702045501       -0.15944402668142
H            0.32902181238979       -7.28621648508382        1.14047973440188
H           -0.88371470786809       -4.29456859411044       -2.11329881309919
H            0.87059581805159       -4.23723077659633       -2.35426654872509
H           -2.70785646420540       -3.10056992177295       -1.74969218609973
H           -4.36780652170199       -1.33353402638295       -1.29988029114187
H           -2.04735294757341        2.49977248904597       -2.04656634135298
H           -2.41672498930884        4.86734640828590       -2.63364022529909
H           -4.39841354853292        6.07003526672088       -1.84147341840172
H           -6.09698747555827        4.93131812981298       -0.45103269929672
H           -7.54648021630775        3.12266295568367        1.03208221985505
H           -8.37310196835704        1.11349778229690        2.21303781949692
H           -7.07055636710677       -0.96132738129905        2.21752027558424
H           -4.91989670405669       -1.11434017756471        1.01699324705087
H           -1.28115268406825        1.39434072685136       -0.08553290212991
H            1.50358827027012        1.33697001986925        0.00375541203065
H            2.27407925671085        1.06296122012829        2.23869845965814
H            2.67034432843489        2.64547255449524        4.08856446090673
H            4.66641107608641        4.06491600799601        4.13056425893987
H            6.35457022034517        3.92558254362861        2.32875236934310
H            7.78650374467317        3.29630164014263        0.06813972632507
H            8.59488419718420        2.33651798416909       -2.06293837599280
H            7.26870794516461        0.66466045483651       -3.26556201918861
H            5.11254456674344       -0.13216835052609       -2.37006572432944
H            4.52578292599571       -1.64677600218669       -0.63545535656419
H            2.82127936470419       -3.30821580084001       -1.30089438133897

 projected vibrational frequencies (cm⁻¹)
eigval :       -0.00    -0.00     0.00     0.00     0.00     0.00
eigval :       15.54    17.87    19.21    22.97    24.26    31.34
eigval :       40.86    47.60    55.17    57.91    72.84    88.98
eigval :       97.99   104.29   114.74   119.14   124.31   129.75
eigval :      142.02   144.68   151.37   155.11   159.16   177.38
eigval :      203.74   213.95   226.28   236.77   251.83   257.67
eigval :      264.06   266.96   270.93   277.38   290.63   307.58
eigval :      333.77   338.87   347.12   355.80   374.98   384.19
eigval :      387.49   399.98   415.81   419.25   419.99   421.11
eigval :      433.96   436.34   443.25   460.79   488.79   498.67
eigval :      514.36   514.73   528.42   529.06   531.06   532.39
eigval :      534.71   547.05   563.14   582.57   584.76   585.12
eigval :      597.07   611.60   629.07   633.83   652.80   666.32
eigval :      668.84   669.84   675.59   696.25   702.09   704.27
eigval :      744.02   751.00   752.12   754.85   759.21   762.50
eigval :      765.27   770.33   771.42   773.08   781.56   785.35
eigval :      806.94   812.53   820.43   823.97   826.83   845.28
eigval :      862.68   863.03   864.52   865.08   894.36   895.07
eigval :      895.48   895.61   896.50   896.95   899.74   912.93
eigval :      914.04   914.29   915.27   925.75   935.27   943.70
eigval :      962.79   985.69  1006.07  1008.58  1009.76  1015.86
eigval :     1028.34  1044.38  1047.75  1050.26  1066.99  1067.19
eigval :     1068.86  1070.32  1091.95  1101.97  1104.83  1106.52
eigval :     1121.87  1133.16  1141.03  1142.31  1142.98  1146.17
eigval :     1153.84  1155.58  1161.21  1167.10  1177.10  1177.88
eigval :     1178.35  1179.29  1181.33  1212.30  1215.16  1220.39
eigval :     1224.39  1228.79  1230.05  1234.42  1244.82  1251.54
eigval :     1260.87  1268.11  1271.29  1280.34  1282.28  1290.19
eigval :     1291.05  1296.92  1307.77  1317.54  1327.02  1341.98
eigval :     1344.57  1345.62  1347.70  1349.65  1352.28  1354.30
eigval :     1354.74  1370.07  1371.24  1376.06  1392.76  1399.96
eigval :     1402.18  1406.73  1409.66  1411.79  1418.14  1421.42
eigval :     1423.14  1434.05  1459.02  1460.11  1460.84  1463.94
eigval :     1476.37  1478.01  1487.59  1491.21  1495.96  1496.78
eigval :     1498.78  1503.58  1504.10  1505.36  1508.80  1510.56
eigval :     1514.70  1536.28  1540.77  1544.41  1565.86  1568.97
eigval :     1569.90  1572.22  1610.28  2934.61  2941.98  2959.18
eigval :     2962.77  2963.40  2977.36  2979.18  2981.02  2983.80
eigval :     3006.71  3010.59  3029.92  3033.90  3034.60  3037.70
eigval :     3042.25  3045.54  3076.94  3077.09  3077.34  3077.50
eigval :     3077.78  3084.53  3085.36  3085.71  3086.72  3089.89
eigval :     3092.16  3092.82  3093.84  3095.08  3097.19  3098.11
eigval :     3098.47  3103.63  3105.18  3108.18  3109.82  3110.36

   temp. (K)  partition function   enthalpy   heat capacity  entropy
                                   cal/mol     cal/K/mol   cal/K/mol   J/K/mol
 298.15  VIB  0.494E+18            23412.062    148.659    144.335
         ROT  0.839E+08              888.752      2.981     39.239
         INT  0.414E+26            24300.814    151.640    183.575
         TR   0.146E+29             1481.254      4.968     45.087
         TOT                       25782.0683   156.6077   228.6615   956.7196

       T/K    H(0)-H(T)+PV         H(T)/Eh          T*S/Eh         G(T)/Eh
   ------------------------------------------------------------------------
    298.15    0.410863E-01    0.734897E+00    0.108644E+00    0.626252E+00
   ------------------------------------------------------------------------

         :::::::::::::::::::::::::::::::::::::::::::::::::::::
         ::                  THERMODYNAMIC                  ::
         :::::::::::::::::::::::::::::::::::::::::::::::::::::
         :: total free energy        -122.294806180534 Eh   ::
         ::.................................................::
         :: total energy             -122.921058302394 Eh   ::
         :: zero point energy           0.693810230502 Eh   ::
         :: G(RRHO) w/o ZPVE           -0.067558108642 Eh   ::
         :: G(RRHO) contrib.            0.626252121860 Eh   ::
         :::::::::::::::::::::::::::::::::::::::::::::::::::::

           -------------------------------------------------
          | TOTAL ENERGY             -122.921058302394 Eh   |
          | TOTAL ENTHALPY           -122.186161730829 Eh   |
          | TOTAL FREE ENERGY        -122.294806180534 Eh   |
          | GRADIENT NORM               0.000118468313 Eh/α |
           -------------------------------------------------

 * finished run on 2025/07/20 at 10:53:13.062
