   * xtb version 6.7.1 (edcfbbe) compiled by 'albert@albert-system' on 2024-07-22

   ID    Z sym.   atoms
    1    6 C      1-8, 10-13, 15-31, 33-47
    2    7 N      9, 14, 32
    3    1 H      48-86

          program call               : xtb data2507/gas/TCz1/TCz1_gas_T1_crest.xyz --gfn 2 --spinpol --tblite --uhf 2 --ohess vtight --parallel 40 --molden --ceasefiles --namespace data2507/gas/TCz1/TCz1_gas_T1_finalOpt
 * total energy  :  -122.9216462 Eh     change       -0.3745851E-07 Eh
 * total energy  :  -122.9216641 Eh     change       -0.1785971E-04 Eh
 * total energy  :  -122.9216725 Eh     change       -0.8417901E-05 Eh
 * total energy  :  -122.9216740 Eh     change       -0.1493422E-05 Eh
 * total energy  :  -122.9216759 Eh     change       -0.1857357E-05 Eh
 * total energy  :  -122.9216777 Eh     change       -0.1848784E-05 Eh
 * total energy  :  -122.9216801 Eh     change       -0.2391630E-05 Eh
 * total energy  :  -122.9216821 Eh     change       -0.1976478E-05 Eh
 * total energy  :  -122.9216838 Eh     change       -0.1733488E-05 Eh
 * total energy  :  -122.9216853 Eh     change       -0.1489675E-05 Eh
 * total energy  :  -122.9216908 Eh     change       -0.2836557E-06 Eh
 * total energy  :  -122.9216911 Eh     change       -0.2676439E-06 Eh
 * total energy  :  -122.9216914 Eh     change       -0.3284370E-06 Eh
 * total energy  :  -122.9216914 Eh     change        0.1327690E-07 Eh
 * total energy  :  -122.9216915 Eh     change       -0.1147614E-06 Eh
 * total energy  :  -122.9216917 Eh     change       -0.1874869E-06 Eh
 * total energy  :  -122.9216916 Eh     change        0.1549009E-06 Eh
 * total energy  :  -122.9216919 Eh     change       -0.2726517E-06 Eh
 * total energy  :  -122.9216919 Eh     change       -0.2252465E-07 Eh
   *** GEOMETRY OPTIMIZATION CONVERGED AFTER 27 ITERATIONS ***

 final structure:
================
86
 xtb: 6.7.1 (edcfbbe)
C            2.30440081275599       -2.73655844421870       -2.12936735014966
C            1.12519934671887       -3.61174822288328       -2.53809867700524
C            0.10538171764195       -3.80432446730866       -1.41496847612008
C            0.62379080542497       -4.69799312450779       -0.28792436563362
C           -0.38471724361648       -4.86368098001607        0.86019751688023
C           -0.38153399749544       -6.29043207998882        1.42393585438481
C           -1.07713561697317       -7.28507542809074        0.50203660735961
C           -0.09202142768964       -3.87534686533321        2.00869390704575
N           -0.06740918051778       -2.51046531786576        1.57466884238191
C           -1.18763088049520       -1.78682706541586        1.24234100258358
C           -2.51968283809068       -2.12530386998205        1.36175475119722
C           -3.47874861507032       -1.19537442447104        0.93689007841675
C           -3.08849590662247        0.04318801697492        0.42001110339189
N           -4.06481811520305        0.95138110032167        0.01338521485822
C           -5.16522424132100        0.66487218015666       -0.77222164812523
C           -5.52161894330645       -0.52254153510912       -1.39224785459147
C           -6.67227227198678       -0.52945210871921       -2.16560252241287
C           -7.44190529092744        0.61828009327627       -2.32862800427779
C           -7.07425141109169        1.81457159941967       -1.73962711341593
C           -5.92501521082114        1.84525964962773       -0.95950335000624
C           -5.24577687536024        2.88683782581237       -0.24330315630031
C           -5.51245327248643        4.23430303181323       -0.03500550877829
C           -4.64318509063725        4.96610657189485        0.75382188608817
C           -3.53442935988376        4.36940079687990        1.34605778157357
C           -3.25007589568820        3.02597613466571        1.15517039731907
C           -4.09909246684171        2.29434570593917        0.33932306688404
C           -1.74055746825451        0.39756093679180        0.29928623182517
C           -0.77253427406277       -0.52673794037527        0.71289224198999
C            0.64212832667581       -0.51665904684145        0.74390811074191
C            1.60988759083618        0.42189999508464        0.36253969532863
C            2.95798291270593        0.09092376198047        0.53410655340391
N            3.93422513179416        1.00614658791971        0.14577601503252
C            3.94120900332709        2.35446847182488        0.45061342022659
C            3.05868637180400        3.08706669578843        1.22899724716321
C            3.32006043356568        4.43704306648937        1.40717494365370
C            4.43846885310875        5.03895364798065        0.83895800396924
C            5.34025758079448        4.30675911300521        0.08773774189422
C            5.09715889369345        2.95285418880236       -0.10732814871893
C            5.81018070155197        1.90943341756430       -0.78718120714025
C            6.98120964335894        1.88170763473751       -1.53438015539886
C            7.37957224324970        0.68150107453979       -2.09501393390302
C            6.61961916028713       -0.47327294039207       -1.93650648378805
C            5.44791833152459       -0.46982187604223       -1.19523559123661
C            5.06046915494568        0.72210528093905       -0.60352890965885
C            3.34762933507339       -1.13412464259834        1.08304507300057
C            2.38836244920343       -2.07574931216167        1.47971432007188
C            1.05493957703458       -1.77006227085890        1.29492067321675
H            1.95386704057781       -1.77464493756844       -1.76137004851373
H            2.95817613064507       -2.56179413406785       -2.98121660845997
H            2.88949595420532       -3.20857597327583       -1.34410050905147
H            0.62087179272853       -3.14335882373582       -3.38634911417606
H            1.49057566237304       -4.58711737695619       -2.86913504280117
H           -0.17314139506956       -2.82453504465052       -1.02556421002630
H           -0.79659544446219       -4.26047605173137       -1.83214410317577
H            0.85710997401105       -5.67677826005370       -0.71127111962981
H            1.55377967459282       -4.28753828527898        0.10541988202223
H           -1.38783839078655       -4.64648983090309        0.47859815047616
H            0.64951627323048       -6.60669597959201        1.59734139862307
H           -0.89390587037070       -6.29600335279680        2.38926960909311
H           -2.11916201580926       -7.00654310403886        0.36127969140101
H           -1.04427757086955       -8.28365169852943        0.93114047318857
H           -0.59973544506369       -7.31868386449925       -0.47385304930264
H            0.87392377412785       -4.11711075769873        2.45759865307456
H           -0.86344864431073       -3.98097710901029        2.77938231512283
H           -2.83645812184695       -3.06133457915283        1.79424428828775
H           -4.52691076035940       -1.41366828365997        1.05963266885730
H           -4.91819203335652       -1.41109206084081       -1.28955209571678
H           -6.97342374176870       -1.44382129862232       -2.65461639003111
H           -8.33396284682674        0.57356795274801       -2.93589826165595
H           -7.66089126614549        2.70874911588403       -1.88545733617436
H           -6.38329917233670        4.69460204929563       -0.47628955452450
H           -4.83184422261610        6.01573638167985        0.92473684485124
H           -2.88439831589569        4.96193332977960        1.97225835220214
H           -2.40233306076045        2.56552652488047        1.63852577720327
H           -1.45729836247301        1.33198395562079       -0.15650031704382
H            1.32766739019303        1.34726410433009       -0.11211670924754
H            2.20260195524285        2.62291989032558        1.69376606915474
H            2.64398979240352        5.03052773402078        2.00418845980213
H            4.60862966788854        6.09346641569949        0.99891185883657
H            6.21791310391802        4.77181939162421       -0.33464396724196
H            7.56078142342646        2.78092947112323       -1.67746151400270
H            8.28868957406701        0.63933378009007       -2.67666600643293
H            6.94503533098692       -1.39077292878627       -2.40359121840557
H            4.85164897025968       -1.36315548678458       -1.09726991685721
H            4.39358471257689       -1.33292115685440        1.24960035120577
H            2.71009287144010       -2.99774625476008        1.93966569325146

 projected vibrational frequencies (cm⁻¹)
eigval :       -0.00    -0.00     0.00     0.00     0.00     0.00
eigval :       15.30    17.15    19.48    22.69    24.28    30.24
eigval :       40.95    47.42    55.57    57.60    71.99    88.84
eigval :       97.91   104.13   116.01   120.01   122.17   129.35
eigval :      140.34   143.92   151.55   158.72   163.93   175.00
eigval :      208.11   211.82   220.39   237.24   250.87   254.39
eigval :      263.30   267.30   268.41   276.49   292.59   312.50
eigval :      328.57   340.97   346.89   365.88   378.01   380.21
eigval :      387.29   394.93   418.58   418.92   420.50   421.41
eigval :      434.72   435.75   443.33   462.09   488.40   500.03
eigval :      514.32   514.90   526.46   531.60   531.75   532.72
eigval :      534.34   547.45   557.88   583.14   583.85   585.01
eigval :      607.92   611.27   615.98   635.15   653.45   666.01
eigval :      668.95   669.57   676.00   696.71   702.54   704.14
eigval :      743.85   751.51   752.40   754.45   759.00   761.15
eigval :      764.29   770.40   771.56   772.12   777.16   787.08
eigval :      806.74   812.60   819.33   823.54   825.37   845.34
eigval :      862.92   863.18   863.36   864.25   894.59   895.19
eigval :      895.26   895.40   895.68   896.27   899.52   912.98
eigval :      913.23   914.22   914.46   925.78   935.53   943.82
eigval :      962.55   984.73  1005.94  1009.00  1009.94  1016.33
eigval :     1028.17  1045.86  1049.76  1051.47  1067.10  1067.27
eigval :     1069.29  1075.86  1091.72  1102.41  1104.60  1107.71
eigval :     1123.77  1133.16  1141.15  1141.84  1143.82  1145.98
eigval :     1153.97  1157.45  1161.21  1166.62  1176.40  1177.45
eigval :     1177.61  1178.58  1181.28  1212.07  1214.91  1220.53
eigval :     1224.25  1228.60  1229.84  1234.23  1244.45  1250.86
eigval :     1261.03  1268.06  1270.46  1280.40  1282.16  1289.99
eigval :     1290.57  1296.74  1307.24  1316.83  1326.17  1341.89
eigval :     1344.93  1346.73  1347.31  1349.13  1351.80  1354.29
eigval :     1354.52  1369.78  1371.28  1375.34  1392.29  1400.42
eigval :     1402.53  1406.12  1409.68  1411.16  1417.25  1420.73
eigval :     1423.06  1433.37  1459.54  1460.08  1460.40  1462.58
eigval :     1476.94  1477.18  1486.70  1490.61  1495.09  1495.95
eigval :     1499.34  1503.19  1503.93  1504.66  1508.05  1509.82
eigval :     1514.40  1538.27  1538.87  1542.08  1567.31  1567.86
eigval :     1571.08  1571.26  1610.19  2932.35  2940.47  2958.64
eigval :     2962.63  2963.18  2977.12  2979.08  2980.82  2983.60
eigval :     3005.96  3009.75  3030.11  3033.75  3035.03  3037.59
eigval :     3041.97  3045.29  3076.39  3076.70  3076.95  3077.17
eigval :     3077.51  3084.31  3084.83  3085.38  3086.19  3087.42
eigval :     3091.72  3092.26  3093.62  3094.52  3097.35  3097.77
eigval :     3099.64  3103.18  3104.73  3107.63  3109.27  3110.31

   temp. (K)  partition function   enthalpy   heat capacity  entropy
                                   cal/mol     cal/K/mol   cal/K/mol   J/K/mol
 298.15  VIB  0.542E+18            23416.667    148.646    144.409
         ROT  0.835E+08              888.752      2.981     39.230
         INT  0.453E+26            24305.420    151.627    183.639
         TR   0.146E+29             1481.254      4.968     45.087
         TOT                       25786.6737   156.5953   228.7253   956.9868

       T/K    H(0)-H(T)+PV         H(T)/Eh          T*S/Eh         G(T)/Eh
   ------------------------------------------------------------------------
    298.15    0.410937E-01    0.734818E+00    0.108675E+00    0.626143E+00
   ------------------------------------------------------------------------

         :::::::::::::::::::::::::::::::::::::::::::::::::::::
         ::                  THERMODYNAMIC                  ::
         :::::::::::::::::::::::::::::::::::::::::::::::::::::
         :: total free energy        -122.295548926027 Eh   ::
         ::.................................................::
         :: total energy             -122.921691907586 Eh   ::
         :: zero point energy           0.693724090539 Eh   ::
         :: G(RRHO) w/o ZPVE           -0.067581108980 Eh   ::
         :: G(RRHO) contrib.            0.626142981558 Eh   ::
         :::::::::::::::::::::::::::::::::::::::::::::::::::::

           -------------------------------------------------
          | TOTAL ENERGY             -122.921691907586 Eh   |
          | TOTAL ENTHALPY           -122.186874136751 Eh   |
          | TOTAL FREE ENERGY        -122.295548926027 Eh   |
          | GRADIENT NORM               0.000060873235 Eh/α |
           -------------------------------------------------

 * finished run on 2025/07/20 at 11:28:53.631
