   * xtb version 6.7.1 (edcfbbe) compiled by 'albert@albert-system' on 2024-07-22

   ID    Z sym.   atoms
    1    6 C      1-8, 10-13, 15-31, 33-47
    2    7 N      9, 14, 32
    3    1 H      48-86

          program call               : xtb data2507/gas/TCz1/TCz1.xyz --gfn 2 --ohess vtight --parallel 40 --molden --ceasefiles --namespace data2507/gas/TCz1/TCz1_gas_S0_preOpt
          :  Hamiltonian                  GFN2-xTB          :
 * total energy  :  -122.9970035 Eh     change       -0.2419995E-08 Eh
 * total energy  :  -123.0126925 Eh     change       -0.1568903E-01 Eh
 * total energy  :  -123.0161053 Eh     change       -0.3412748E-02 Eh
 * total energy  :  -123.0167207 Eh     change       -0.6154483E-03 Eh
 * total energy  :  -123.0171717 Eh     change       -0.4510097E-03 Eh
 * total energy  :  -123.0173226 Eh     change       -0.1508309E-03 Eh
 * total energy  :  -123.0174216 Eh     change       -0.9901102E-04 Eh
 * total energy  :  -123.0174964 Eh     change       -0.7482485E-04 Eh
 * total energy  :  -123.0175723 Eh     change       -0.7588275E-04 Eh
 * total energy  :  -123.0176557 Eh     change       -0.8338874E-04 Eh
 * total energy  :  -123.0183587 Eh     change       -0.1789183E-06 Eh
 * total energy  :  -123.0183589 Eh     change       -0.1994129E-06 Eh
 * total energy  :  -123.0183591 Eh     change       -0.2223404E-06 Eh
 * total energy  :  -123.0183593 Eh     change       -0.2005843E-06 Eh
 * total energy  :  -123.0183595 Eh     change       -0.1991191E-06 Eh
 * total energy  :  -123.0183598 Eh     change       -0.2270708E-06 Eh
 * total energy  :  -123.0183600 Eh     change       -0.2431535E-06 Eh
 * total energy  :  -123.0183602 Eh     change       -0.1664904E-06 Eh
 * total energy  :  -123.0183603 Eh     change       -0.8405000E-07 Eh
   *** GEOMETRY OPTIMIZATION CONVERGED AFTER 58 ITERATIONS ***

 final structure:
================
86
 xtb: 6.7.1 (edcfbbe)
C            6.08605534338267       -5.27427440156259        1.00081465235811
C            6.10743095846309       -4.21291807876421       -0.09304967402127
C            4.87162187317579       -3.31186941519184       -0.08261873495217
C            3.59103675974373       -4.05608048441856       -0.46064049252361
C            2.38040411591309       -3.13034044918511       -0.62488301355442
C            1.27221078516339       -3.77662265523160       -1.47073006014908
C            0.85316096298433       -5.17283568115580       -1.02201039108700
C            1.84449526304445       -2.67033794407846        0.74371492968739
N            0.96896064473669       -1.53559500698048        0.62647305997968
C            1.39409671072622       -0.25106054007567        0.38826550908387
C            2.68491397611375        0.25374491709249        0.29182187663575
C            2.83945335007342        1.60281651338594        0.05117690139462
C            1.73463647559033        2.45419809355860       -0.07842538484209
N            1.94555834201387        3.82185528882959       -0.32059872210123
C            2.76419781587444        4.65507678551240        0.41211181968187
C            3.50839076456905        4.38432097087222        1.55188656659206
C            4.23547217091135        5.41863622354220        2.10836170640906
C            4.22238776733055        6.69754030529683        1.55525620203263
C            3.46675165320840        6.97862894938640        0.43483415404230
C            2.72675629285598        5.95545425428383       -0.14312039909835
C            1.83878033092974        5.89133502632289       -1.26928627924554
C            1.41307306246195        6.82392291138546       -2.20618969961315
C            0.54477694091590        6.41587281854871       -3.19853917339774
C            0.11067970968766        5.09379072010070       -3.27190172116218
C            0.51963518664032        4.14778932776355       -2.35210877576320
C            1.37687638543049        4.55641864001599       -1.34012885763473
C            0.44376286313898        1.95922196343768        0.02506334726768
C            0.27236032310303        0.60134019937929        0.25043401633296
C           -0.88483533327863       -0.23019242761860        0.40813195733211
C           -2.24729606418224        0.02680366681583        0.36767544442607
C           -3.12583925931461       -1.02510649647619        0.57498255875667
N           -4.51234045300563       -0.80025832079284        0.55358898410052
C           -5.43322246483209       -1.50762401197326       -0.18985176202692
C           -5.23117875710677       -2.53018718511772       -1.10625580351639
C           -6.34016110353566       -3.05927837573283       -1.73738042750325
C           -7.62318859826258       -2.58317616701084       -1.47500919045181
C           -7.82853247290797       -1.55139914083409       -0.58134376592970
C           -6.72938178716798       -1.00247037692932        0.06599934778244
C           -6.57058873840947        0.06208403026836        1.01591598244548
C           -7.46096655634401        0.91731057608171        1.65196434121399
C           -6.96444433060864        1.84158909071000        2.54881067494565
C           -5.60029387238803        1.91158100006294        2.82444240145274
C           -4.69477908323426        1.07233791544742        2.20486880447862
C           -5.18552662888814        0.15428057023165        1.28711995073636
C           -2.64493456758356       -2.31819068569292        0.81623282491656
C           -1.29391444055447       -2.59150551485547        0.84217204128956
C           -0.40471870986879       -1.54400836053776        0.63535432968987
H            5.27546768096952       -5.98138494751785        0.84565976462137
H            5.95947623782184       -4.81225149756000        1.97775621852696
H            7.02119757511343       -5.82933341022613        1.00444026774789
H            6.99324564117466       -3.58761058465688        0.04114601137183
H            6.19173328899171       -4.69790899215922       -1.06812384804301
H            4.77282427574961       -2.86870152637220        0.91083916673511
H            5.02904129313197       -2.49894524037089       -0.79652236532922
H            3.76445055518426       -4.56959853495996       -1.40889045038943
H            3.36719469135510       -4.80939436284786        0.29504943074785
H            2.70687184482840       -2.23129212384134       -1.16127827983137
H            0.40010545130135       -3.11858839168569       -1.45988494718763
H            1.61933005664970       -3.83652362554609       -2.50480744261942
H            1.66198427611395       -5.88606917752786       -1.15595524799303
H            0.00530855611790       -5.50859695763915       -1.61458087041936
H            0.55708491504818       -5.18718478234607        0.02368197857372
H            2.68125766323484       -2.38877988095097        1.38929838793734
H            1.30341181310301       -3.48132708528144        1.23265260303497
H            3.55002688224445       -0.38309373026680        0.39204254342195
H            3.82982162627105        2.01993394378026       -0.05243756767461
H            3.51100469788392        3.40034127826069        1.99660083996483
H            4.82481073725120        5.23298120803862        2.99449470307170
H            4.80676578928690        7.47855616323006        2.01878196484361
H            3.44501115123106        7.97308535870248        0.01490788297084
H            1.75989341856285        7.84522115908875       -2.15702585084515
H            0.19974496232258        7.12585234490407       -3.93556585311099
H           -0.55883300153629        4.80146069461563       -4.06763509539651
H            0.19007468882814        3.12213438048644       -2.42551822673556
H           -0.40496351072379        2.62046797925446       -0.05744494183313
H           -2.61844552636361        1.02069753297720        0.17072604931801
H           -4.23885653211426       -2.89402330642701       -1.32756062735614
H           -6.20975475189214       -3.85785277737243       -2.45313583551337
H           -8.46476908794377       -3.02549739988973       -1.98729787866539
H           -8.82119434219904       -1.17274999916402       -0.38901151432667
H           -8.51940913650256        0.85398154095488        1.44835130697565
H           -7.63956115431895        2.51747684141343        3.05252271570233
H           -5.24312114468671        2.63686566168470        3.54086779945432
H           -3.64126464390897        1.12334465396315        2.43603374976387
H           -3.35585167609268       -3.11058276632608        0.99558444322464
H           -0.95290386818212       -3.59772867850106        1.02783295877308

          :  Hamiltonian                  GFN2-xTB          :
         :: gradient norm              0.000032435394 Eh/a0 ::
         :: HOMO-LUMO gap              2.637564629458 eV    ::
         :: SCC energy              -125.232734988282 Eh    ::
         :: -> dispersion             -0.111735235149 Eh    ::
         :: repulsion energy           2.214374729834 Eh    ::

    * Orbital Energies and Occupations

         #    Occupation            Energy/Eh            Energy/eV
      -------------------------------------------------------------
         1        2.0000           -0.6833244             -18.5942
       ...           ...                  ...                  ...
       103        2.0000           -0.4133959             -11.2491
       104        2.0000           -0.4128507             -11.2342
       105        2.0000           -0.4119455             -11.2096
       106        2.0000           -0.4113785             -11.1942
       107        2.0000           -0.4100741             -11.1587
       108        2.0000           -0.3988948             -10.8545
       109        2.0000           -0.3988109             -10.8522
       110        2.0000           -0.3876261             -10.5478
       111        2.0000           -0.3764629             -10.2441
       112        2.0000           -0.3721236             -10.1260
       113        2.0000           -0.3720695             -10.1245
       114        2.0000           -0.3562068              -9.6929
       115        2.0000           -0.3507891              -9.5455 (HOMO)
       116                         -0.2538604              -6.9079 (LUMO)
       117                         -0.2401091              -6.5337
       118                         -0.2386591              -6.4942
       119                         -0.2312265              -6.2920
       120                         -0.2154438              -5.8625
       121                         -0.2153951              -5.8612
       122                         -0.2095716              -5.7027
       123                         -0.1991586              -5.4194
       124                         -0.1806351              -4.9153
       125                         -0.1802747              -4.9055
       126                         -0.1795879              -4.8868
       ...                                ...                  ...
       227                          0.7528516              20.4861
      -------------------------------------------------------------
                  HL-Gap            0.0969287 Eh            2.6376 eV

     #   Z          covCN         q      C6AA      α(0)
     1   6 C        3.751    -0.103    22.526     6.768
     2   6 C        3.800    -0.054    21.538     6.608
     3   6 C        3.801    -0.057    21.591     6.616
     4   6 C        3.804    -0.066    21.754     6.640
     5   6 C        3.850    -0.025    20.985     6.516
     6   6 C        3.801    -0.057    21.606     6.618
     7   6 C        3.751    -0.101    22.494     6.764
     8   6 C        3.742    -0.005    20.736     6.496
     9   7 N        2.796    -0.044    22.092     6.981
    10   6 C        3.087     0.041    26.982     8.515
    11   6 C        2.909    -0.052    29.303     8.876
    12   6 C        2.926    -0.046    29.154     8.855
    13   6 C        2.913     0.052    26.826     8.493
    14   7 N        2.803    -0.044    22.095     6.981
    15   6 C        3.078     0.046    26.879     8.500
    16   6 C        2.910    -0.052    29.281     8.873
    17   6 C        2.924    -0.034    28.855     8.809
    18   6 C        2.920    -0.042    29.043     8.838
    19   6 C        2.912    -0.033    28.829     8.804
    20   6 C        3.069    -0.018    28.387     8.736
    21   6 C        3.069    -0.018    28.389     8.737
    22   6 C        2.912    -0.033    28.829     8.804
    23   6 C        2.920    -0.042    29.038     8.837
    24   6 C        2.924    -0.034    28.846     8.808
    25   6 C        2.910    -0.051    29.275     8.872
    26   6 C        3.078     0.046    26.877     8.500
    27   6 C        2.915    -0.046    29.148     8.853
    28   6 C        3.069    -0.018    28.378     8.735
    29   6 C        3.072    -0.018    28.389     8.736
    30   6 C        2.915    -0.046    29.151     8.854
    31   6 C        2.913     0.052    26.833     8.494
    32   7 N        2.803    -0.044    22.096     6.981
    33   6 C        3.078     0.046    26.879     8.500
    34   6 C        2.910    -0.052    29.281     8.873
    35   6 C        2.924    -0.034    28.857     8.809
    36   6 C        2.920    -0.042    29.044     8.838
    37   6 C        2.912    -0.033    28.829     8.804
    38   6 C        3.069    -0.018    28.388     8.736
    39   6 C        3.069    -0.018    28.389     8.737
    40   6 C        2.912    -0.033    28.829     8.804
    41   6 C        2.920    -0.042    29.038     8.837
    42   6 C        2.924    -0.034    28.845     8.808
    43   6 C        2.910    -0.051    29.274     8.872
    44   6 C        3.078     0.046    26.877     8.499
    45   6 C        2.926    -0.046    29.154     8.855
    46   6 C        2.910    -0.051    29.269     8.871
    47   6 C        3.081     0.043    26.954     8.511
    48   1 H        0.925     0.035     2.522     2.483
    49   1 H        0.925     0.034     2.533     2.489
    50   1 H        0.925     0.034     2.533     2.489
    51   1 H        0.924     0.031     2.576     2.510
    52   1 H        0.924     0.031     2.572     2.508
    53   1 H        0.924     0.027     2.633     2.537
    54   1 H        0.924     0.029     2.607     2.525
    55   1 H        0.924     0.040     2.443     2.444
    56   1 H        0.924     0.039     2.462     2.454
    57   1 H        0.924     0.036     2.502     2.473
    58   1 H        0.924     0.035     2.519     2.482
    59   1 H        0.924     0.033     2.547     2.496
    60   1 H        0.925     0.037     2.494     2.470
    61   1 H        0.925     0.036     2.503     2.474
    62   1 H        0.925     0.031     2.577     2.510
    63   1 H        0.924     0.048     2.340     2.392
    64   1 H        0.924     0.052     2.291     2.367
    65   1 H        0.926     0.034     2.533     2.489
    66   1 H        0.926     0.040     2.448     2.447
    67   1 H        0.926     0.025     2.655     2.548
    68   1 H        0.926     0.026     2.638     2.540
    69   1 H        0.926     0.026     2.647     2.544
    70   1 H        0.926     0.029     2.598     2.521
    71   1 H        0.926     0.029     2.598     2.521
    72   1 H        0.926     0.026     2.643     2.542
    73   1 H        0.926     0.027     2.627     2.534
    74   1 H        0.926     0.026     2.644     2.543
    75   1 H        0.926     0.042     2.422     2.434
    76   1 H        0.926     0.042     2.422     2.434
    77   1 H        0.926     0.025     2.658     2.549
    78   1 H        0.926     0.026     2.640     2.541
    79   1 H        0.926     0.026     2.648     2.545
    80   1 H        0.926     0.029     2.598     2.521
    81   1 H        0.926     0.029     2.599     2.521
    82   1 H        0.926     0.026     2.643     2.542
    83   1 H        0.926     0.027     2.626     2.534
    84   1 H        0.926     0.026     2.641     2.542
    85   1 H        0.926     0.040     2.446     2.446
    86   1 H        0.926     0.033     2.550     2.497

molecular dipole:
                 x           y           z       tot (Debye)
 q only:        1.131      -1.515       0.100
   full:        1.226      -1.640       0.145       5.218

 projected vibrational frequencies (cm⁻¹)
eigval :       -0.00    -0.00     0.00     0.00     0.00     0.00
eigval :       14.92    15.47    16.05    16.68    21.39    26.49
eigval :       30.61    39.49    46.92    58.15    76.75    90.98
eigval :      102.50   105.09   112.48   115.06   120.55   126.22
eigval :      137.76   143.89   145.28   152.06   166.71   183.17
eigval :      190.07   222.58   228.01   245.96   254.37   263.49
eigval :      271.55   272.09   276.64   281.31   288.52   296.61
eigval :      321.58   340.78   347.94   375.72   385.72   391.57
eigval :      397.82   401.19   405.63   422.49   423.79   429.78
eigval :      432.83   436.45   437.36   493.45   493.85   517.98
eigval :      518.40   527.68   530.39   535.81   541.05   541.29
eigval :      542.24   552.56   563.17   586.23   589.83   593.16
eigval :      605.69   623.75   633.88   643.84   673.51   673.90
eigval :      679.65   683.03   704.19   707.68   708.78   711.33
eigval :      755.02   756.24   756.98   769.00   769.18   780.34
eigval :      780.44   788.35   809.49   814.41   817.47   819.76
eigval :      821.72   836.51   866.52   866.82   869.67   871.19
eigval :      871.84   882.42   884.90   898.00   898.14   900.22
eigval :      900.69   903.48   903.67   910.62   912.57   922.42
eigval :      922.48   923.00   923.30   929.78   935.81   950.29
eigval :      994.63   996.36   999.63  1004.16  1012.23  1012.68
eigval :     1032.67  1052.57  1057.92  1066.03  1069.73  1069.86
eigval :     1073.11  1073.14  1104.08  1110.05  1112.97  1126.10
eigval :     1139.59  1151.60  1152.24  1155.88  1164.32  1167.02
eigval :     1171.38  1175.22  1176.08  1181.59  1181.60  1183.11
eigval :     1184.48  1197.65  1212.66  1225.01  1228.64  1230.19
eigval :     1237.70  1238.14  1247.17  1247.30  1264.87  1266.68
eigval :     1283.14  1292.60  1299.39  1300.38  1304.60  1308.09
eigval :     1312.04  1316.24  1334.05  1339.19  1346.15  1348.59
eigval :     1351.81  1355.16  1358.97  1359.21  1360.17  1364.68
eigval :     1364.86  1374.81  1387.34  1391.62  1416.84  1417.18
eigval :     1419.17  1428.70  1428.84  1435.40  1440.83  1451.63
eigval :     1461.53  1475.72  1476.44  1483.99  1487.75  1489.29
eigval :     1489.34  1491.47  1495.87  1496.66  1497.31  1505.47
eigval :     1506.58  1510.79  1514.16  1562.96  1572.70  1574.34
eigval :     1579.40  1589.10  1589.38  1598.88  1599.28  1601.15
eigval :     1615.70  1616.21  1619.13  2924.09  2954.56  2957.43
eigval :     2965.09  2967.90  2972.35  2979.70  2983.20  2984.97
eigval :     2996.42  3000.44  3030.23  3035.52  3037.22  3040.17
eigval :     3046.66  3050.41  3073.52  3073.68  3074.37  3074.45
eigval :     3079.05  3079.11  3080.25  3080.32  3085.98  3086.04
eigval :     3087.67  3087.76  3088.91  3089.82  3093.31  3093.33
eigval :     3095.10  3095.22  3096.60  3099.43  3100.23  3101.34

   temp. (K)  partition function   enthalpy   heat capacity  entropy
                                   cal/mol     cal/K/mol   cal/K/mol   J/K/mol
 298.15  VIB  0.175E+19            23187.942    145.615    143.791
         ROT  0.998E+08              888.752      2.981     39.584
         INT  0.175E+27            24076.694    148.596    183.374
         TR   0.146E+29             1481.254      4.968     45.087
         TOT                       25557.9479   153.5645   228.4609   955.8806

       T/K    H(0)-H(T)+PV         H(T)/Eh          T*S/Eh         G(T)/Eh
   ------------------------------------------------------------------------
    298.15    0.407292E-01    0.740554E+00    0.108549E+00    0.632005E+00
   ------------------------------------------------------------------------

         :::::::::::::::::::::::::::::::::::::::::::::::::::::
         ::                  THERMODYNAMIC                  ::
         :::::::::::::::::::::::::::::::::::::::::::::::::::::
         :: total free energy        -122.386355148995 Eh   ::
         ::.................................................::
         :: total energy             -123.018360258449 Eh   ::
         :: zero point energy           0.699825095923 Eh   ::
         :: G(RRHO) w/o ZPVE           -0.067819986469 Eh   ::
         :: G(RRHO) contrib.            0.632005109454 Eh   ::
         :::::::::::::::::::::::::::::::::::::::::::::::::::::

           -------------------------------------------------
          | TOTAL ENERGY             -123.018360258449 Eh   |
          | TOTAL ENTHALPY           -122.277805980028 Eh   |
          | TOTAL FREE ENERGY        -122.386355148995 Eh   |
          | GRADIENT NORM               0.000032422813 Eh/α |
          | HOMO-LUMO GAP               2.637564451762 eV   |
           -------------------------------------------------

 * finished run on 2025/07/20 at 10:26:23.409
