   * xtb version 6.7.1 (edcfbbe) compiled by 'albert@albert-system' on 2024-07-22

   ID    Z sym.   atoms
    1    6 C      1-8, 10-13, 15-31, 33-47
    2    7 N      9, 14, 32
    3    1 H      48-86

          program call               : xtb data2507/gas/TCZ1/TCZ1_gas_T1_crest.xyz --gfn 2 --spinpol --tblite --uhf 2 --ohess vtight --parallel 40 --molden --ceasefiles --namespace data2507/gas/TCZ1/TCZ1_gas_T1_finalOpt
 * total energy  :  -122.9216543 Eh     change        0.3499463E-07 Eh
 * total energy  :  -122.9216734 Eh     change       -0.1902905E-04 Eh
 * total energy  :  -122.9216812 Eh     change       -0.7886304E-05 Eh
 * total energy  :  -122.9216824 Eh     change       -0.1114541E-05 Eh
 * total energy  :  -122.9216832 Eh     change       -0.8080349E-06 Eh
 * total energy  :  -122.9216840 Eh     change       -0.8632881E-06 Eh
 * total energy  :  -122.9216851 Eh     change       -0.1029199E-05 Eh
 * total energy  :  -122.9216862 Eh     change       -0.1171739E-05 Eh
 * total energy  :  -122.9216871 Eh     change       -0.8887812E-06 Eh
 * total energy  :  -122.9216878 Eh     change       -0.7186301E-06 Eh
 * total energy  :  -122.9216900 Eh     change       -0.3065328E-06 Eh
 * total energy  :  -122.9216903 Eh     change       -0.2678343E-06 Eh
 * total energy  :  -122.9216905 Eh     change       -0.1905370E-06 Eh
 * total energy  :  -122.9216906 Eh     change       -0.1412857E-06 Eh
 * total energy  :  -122.9216908 Eh     change       -0.1966740E-06 Eh
 * total energy  :  -122.9216910 Eh     change       -0.1604699E-06 Eh
 * total energy  :  -122.9216911 Eh     change       -0.1445853E-06 Eh
 * total energy  :  -122.9216911 Eh     change        0.4823005E-07 Eh
 * total energy  :  -122.9216911 Eh     change       -0.2755294E-07 Eh
   *** GEOMETRY OPTIMIZATION CONVERGED AFTER 23 ITERATIONS ***

 final structure:
================
86
 xtb: 6.7.1 (edcfbbe)
C            2.31721746157979       -2.73590055481194       -2.13286274520037
C            1.13989067898708       -3.61316239114150       -2.54256635971338
C            0.11938550624042       -3.80740825774857       -1.42035244164576
C            0.63869632848101       -4.69943018906730       -0.29244523983297
C           -0.37054112637212       -4.86712570044843        0.85471836704549
C           -0.36384155512480       -6.29356738609744        1.41924426824856
C           -1.05750769280705       -7.29020015812288        0.49804005027597
C           -0.08169521853429       -3.87738733619216        2.00294370142890
N           -0.06043846965395       -2.51256535088596        1.56860056128395
C            1.06002721744921       -1.76874178567286        1.29056537022547
C            2.39418994775813       -2.07122020376622        1.47527566579399
C            3.35104019391420       -1.12651973645368        1.08021313244149
C            2.95833113417368        0.09842576225318        0.53319149319961
N            3.93241296931473        1.01648461806907        0.14617207498595
C            3.93664723090634        2.36431775635700        0.45312190502942
C            3.05279153016229        3.09377230640039        1.23291831954468
C            3.31155881630271        4.44395187235343        1.41353396509030
C            4.42873620260510        5.04902521803546        0.84625455202519
C            5.33176672330708        4.32000069357271        0.09343151461049
C            5.09127261038424        2.96596312404646       -0.10412628199057
C            5.80619656894250        1.92512972236755       -0.78593871148975
C            6.97693319652221        1.90092482905609       -1.53377392971570
C            7.37747633030992        0.70238801638925       -2.09644384054998
C            6.62002036629879       -0.45422029081683       -1.93935643622971
C            5.44862327475921       -0.45428307449935       -1.19756728582071
C            5.05901278646312        0.73594866361075       -0.60388969326055
C            1.60943263945162        0.42630649276024        0.36212549225727
C            0.64408911798891       -0.51549108384179        0.74152910642427
C           -0.77053375973045       -0.52929156173929        0.70988431233014
C           -1.74083734281202        0.39347482591470        0.29820426488794
C           -3.08778716144295        0.03493426118638        0.41715270717176
N           -4.06670781760969        0.94133966579871        0.01254772214992
C           -4.10688449948898        2.28260268851669        0.34451626228532
C           -3.26161081019031        3.01391477056731        1.16452279408342
C           -3.55233976559064        4.35495294024920        1.36232242880901
C           -4.66351306091292        4.94956615701877        0.77248284834217
C           -5.52870809191098        4.21798031477686       -0.02101509506647
C           -5.25575402108900        2.87284289531532       -0.23613265196999
C           -5.93001094586127        1.83163004777397       -0.95761871831729
C           -7.07864831959820        1.79929815297926       -1.73856152733427
C           -7.44100149251540        0.60386218667920       -2.33258284740333
C           -6.66673758945026       -0.54136223799604       -2.17378077021280
C           -5.51648883201454       -0.53276105072482       -1.39989535239306
C           -5.16538839643056        0.65364712270805       -0.77491521179888
C           -3.47491857957777       -1.20603074122514        0.93051991235779
C           -2.51359599511364       -2.13411296446055        1.35426362054952
C           -1.18245590629177       -1.79152512191408        1.23664858236282
H            2.97131891505779       -2.55992740540355       -2.98421623003483
H            2.90257632388242       -3.20694813749209       -1.34720796946955
H            1.96466169532564       -1.77463742773857       -1.76508175895266
H            0.63553833643065       -3.14574907059841       -3.39133204751863
H            1.50727220001700       -4.58793254513280       -2.87315203200358
H           -0.16165723753291       -2.82805902231949       -1.03162372710379
H           -0.78118489232526       -4.26572178245098       -1.83821401573298
H            0.87479661934377       -5.67783135134524       -0.71517099553866
H            1.56728093135403       -4.28660520309242        0.10172235378348
H           -1.37386771510616       -4.65296014427673        0.47196368643967
H            0.66802559313024       -6.60732390617810        1.59234541615877
H           -0.87575807262360       -6.29993278683786        2.38480698990182
H           -0.58191788532501       -7.32120805894471       -0.47881960636428
H           -2.10086169319776       -7.01551563279459        0.35957441781281
H           -1.02001754151420       -8.28896673447478        0.92632229105891
H            0.88445373446997       -4.11631336407522        2.45294510846514
H           -0.85361081174418       -3.98480892971730        2.77290835759627
H            2.71823642325224       -2.99307234753003        1.93388903117403
H            4.39749035842568       -1.32284755721316        1.24652250607154
H            2.19768665440812        2.62709049550994        1.69695137006794
H            2.63443252921538        5.03503071191880        2.01173521664775
H            4.59696745103279        6.10354208476715        1.00820623136429
H            6.20842020187335        4.78759132735049       -0.32822443979602
H            7.55460271017650        2.80152700223955       -1.67582093629718
H            8.28638247535277        0.66301079628355       -2.67861771505436
H            6.94710390697468       -1.37035115289842       -2.40795721871458
H            4.85420349581300       -1.34896903397385       -1.10071453291246
H            1.32485163331460        1.35180985316452       -0.11085775379300
H           -1.45991659047742        1.33009422754746       -0.15455035774661
H           -2.41200511607372        2.55478332080807        1.64587778705178
H           -2.90556861065238        4.94718391050789        1.99218476956682
H           -4.85733315218692        5.99733024468816        0.94899802316203
H           -6.40131501581837        4.67664921243846       -0.46052376417880
H           -7.66898719834737        2.69156525189021       -1.88113670741996
H           -8.33257580840070        0.55791013631459       -2.94046996031657
H           -6.96391757791548       -1.45503097583786       -2.66652970454889
H           -4.90938356225073       -1.41916913289351       -1.30032677168186
H           -4.52258586850489       -1.42762576712798        1.05153868641017
H           -2.82808321743111       -3.07196520451033        1.78447403765314

 projected vibrational frequencies (cm⁻¹)
eigval :       -0.00    -0.00    -0.00    -0.00     0.00     0.00
eigval :       15.54    17.63    19.67    23.04    24.46    30.44
eigval :       41.10    47.52    55.79    57.77    72.20    89.05
eigval :       98.13   104.24   116.14   120.17   122.36   129.51
eigval :      140.42   144.24   151.61   158.69   164.06   174.97
eigval :      207.98   212.10   220.48   237.09   250.94   254.38
eigval :      263.49   267.27   268.43   276.65   292.94   312.41
eigval :      328.57   341.12   347.10   365.97   378.10   380.44
eigval :      387.40   394.93   418.66   418.93   420.45   421.44
eigval :      435.05   435.64   443.48   462.13   488.66   500.22
eigval :      514.33   514.90   526.27   531.60   531.85   532.53
eigval :      534.20   547.35   557.90   583.21   583.89   584.83
eigval :      607.96   611.32   616.00   635.17   653.46   665.97
eigval :      668.98   669.59   676.32   697.50   702.53   704.20
eigval :      743.76   751.66   752.01   755.17   759.34   761.47
eigval :      764.59   770.64   771.81   772.42   777.58   787.51
eigval :      807.01   812.67   819.90   823.80   825.66   845.46
eigval :      863.16   863.48   863.79   864.56   894.55   895.27
eigval :      895.46   895.74   895.94   896.53   899.93   913.26
eigval :      913.55   914.54   914.82   926.02   935.59   944.16
eigval :      962.95   985.70  1006.16  1008.84  1009.96  1016.59
eigval :     1028.54  1046.73  1050.09  1053.23  1067.11  1067.18
eigval :     1069.72  1075.87  1092.02  1102.53  1104.95  1107.22
eigval :     1123.96  1133.47  1141.43  1142.15  1143.91  1145.86
eigval :     1154.11  1157.29  1161.54  1167.15  1177.21  1178.16
eigval :     1178.30  1179.06  1181.55  1212.15  1215.39  1220.88
eigval :     1224.79  1228.85  1230.13  1234.84  1244.82  1251.58
eigval :     1261.35  1268.53  1271.20  1280.79  1282.07  1290.21
eigval :     1291.14  1297.24  1308.00  1317.28  1326.98  1342.43
eigval :     1345.20  1346.62  1347.38  1349.93  1352.33  1354.57
eigval :     1354.88  1370.10  1371.39  1375.97  1392.21  1400.61
eigval :     1402.67  1406.38  1410.07  1411.74  1418.06  1421.38
eigval :     1422.78  1433.79  1459.50  1460.12  1460.36  1463.32
eigval :     1476.93  1477.42  1487.78  1491.26  1496.01  1496.81
eigval :     1499.55  1503.82  1504.75  1505.56  1508.93  1510.49
eigval :     1515.27  1538.19  1539.03  1545.34  1567.29  1567.98
eigval :     1570.99  1571.49  1610.22  2932.58  2940.86  2958.85
eigval :     2962.76  2963.36  2977.33  2979.32  2981.05  2983.92
eigval :     3006.16  3010.09  3030.17  3033.89  3035.16  3037.71
eigval :     3042.25  3045.52  3076.89  3076.93  3077.33  3077.52
eigval :     3077.81  3084.65  3085.19  3085.76  3086.63  3087.94
eigval :     3092.24  3092.80  3093.93  3094.97  3096.88  3098.13
eigval :     3098.45  3103.66  3105.15  3107.99  3109.69  3110.03

   temp. (K)  partition function   enthalpy   heat capacity  entropy
                                   cal/mol     cal/K/mol   cal/K/mol   J/K/mol
 298.15  VIB  0.487E+18            23406.744    148.629    144.287
         ROT  0.836E+08              888.752      2.981     39.231
         INT  0.407E+26            24295.496    151.610    183.518
         TR   0.146E+29             1481.254      4.968     45.087
         TOT                       25776.7498   156.5781   228.6046   956.4815

       T/K    H(0)-H(T)+PV         H(T)/Eh          T*S/Eh         G(T)/Eh
   ------------------------------------------------------------------------
    298.15    0.410779E-01    0.734951E+00    0.108617E+00    0.626334E+00
   ------------------------------------------------------------------------

         :::::::::::::::::::::::::::::::::::::::::::::::::::::
         ::                  THERMODYNAMIC                  ::
         :::::::::::::::::::::::::::::::::::::::::::::::::::::
         :: total free energy        -122.295357380756 Eh   ::
         ::.................................................::
         :: total energy             -122.921691096298 Eh   ::
         :: zero point energy           0.693873257969 Eh   ::
         :: G(RRHO) w/o ZPVE           -0.067539542428 Eh   ::
         :: G(RRHO) contrib.            0.626333715541 Eh   ::
         :::::::::::::::::::::::::::::::::::::::::::::::::::::

           -------------------------------------------------
          | TOTAL ENERGY             -122.921691096298 Eh   |
          | TOTAL ENTHALPY           -122.186739972761 Eh   |
          | TOTAL FREE ENERGY        -122.295357380756 Eh   |
          | GRADIENT NORM               0.000076496595 Eh/α |
           -------------------------------------------------

 * finished run on 2025/09/13 at 11:49:13.821
