   * xtb version 6.7.1 (edcfbbe) compiled by 'albert@albert-system' on 2024-07-22

   ID    Z sym.   atoms
    1    6 C      1-8, 10-13, 15-31, 33-47
    2    7 N      9, 14, 32
    3    1 H      48-86

          program call               : xtb data2507/gas/TCZ1/TCZ1_gas_S0_finalOpt.xtbopt.xyz --gfn 2 --spinpol --tblite --uhf 2 --ohess vtight --parallel 40 --molden --ceasefiles --namespace data2507/gas/TCZ1/TCZ1_gas_T1_preOpt
 * total energy  :  -122.9186300 Eh     change       -0.1818690E-07 Eh
 * total energy  :  -122.9207710 Eh     change       -0.2140966E-02 Eh
 * total energy  :  -122.9213624 Eh     change       -0.5914582E-03 Eh
 * total energy  :  -122.9214363 Eh     change       -0.7391711E-04 Eh
 * total energy  :  -122.9214843 Eh     change       -0.4797894E-04 Eh
 * total energy  :  -122.9214988 Eh     change       -0.1450039E-04 Eh
 * total energy  :  -122.9215114 Eh     change       -0.1259819E-04 Eh
 * total energy  :  -122.9215221 Eh     change       -0.1069432E-04 Eh
 * total energy  :  -122.9215312 Eh     change       -0.9046425E-05 Eh
 * total energy  :  -122.9215435 Eh     change       -0.1232913E-04 Eh
 * total energy  :  -122.9216883 Eh     change       -0.1272557E-05 Eh
 * total energy  :  -122.9216892 Eh     change       -0.8470301E-06 Eh
 * total energy  :  -122.9216893 Eh     change       -0.1255907E-06 Eh
 * total energy  :  -122.9216896 Eh     change       -0.2966201E-06 Eh
 * total energy  :  -122.9216900 Eh     change       -0.4353906E-06 Eh
 * total energy  :  -122.9216904 Eh     change       -0.4023659E-06 Eh
 * total energy  :  -122.9216909 Eh     change       -0.4742427E-06 Eh
 * total energy  :  -122.9216912 Eh     change       -0.3419445E-06 Eh
 * total energy  :  -122.9216913 Eh     change       -0.5222478E-07 Eh
   *** GEOMETRY OPTIMIZATION CONVERGED AFTER 38 ITERATIONS ***

 final structure:
================
86
 xtb: 6.7.1 (edcfbbe)
C            2.25341326105268       -2.79014366974474       -2.12149391475267
C            1.05919260950461       -3.65099631362259       -2.51681940929333
C            0.04373792996240       -3.82088421406612       -1.38608611331477
C            0.55561203320455       -4.71542300248950       -0.25676028740941
C           -0.44800765085209       -4.85941264854463        0.89850955727972
C           -0.45957709774052       -6.28196962470319        1.47275369076816
C           -1.17605423614646       -7.27367291779873        0.56375642964509
C           -0.13579495702677       -3.86673554689394        2.03805592239336
N           -0.09579370709628       -2.50530254492585        1.59451663211063
C            1.03446189902343       -1.78161280584524        1.30343959349499
C            2.36484446032985       -2.10445739805360        1.48096679754335
C            3.33407350038620       -1.17824675695540        1.07245970505288
C            2.95744723129065        0.04891941885811        0.51917756806545
N            3.94356277159262        0.94810502564631        0.11863244426303
C            3.97154341182570        2.29805059291373        0.41509715610094
C            3.10478716384355        3.04765615623209        1.19494761683534
C            3.38628065453557        4.39494131243285        1.36303167195917
C            4.50901292022807        4.97764517733510        0.78341521625008
C            5.39531346939683        4.22830412769164        0.03068058873428
C            5.13202080943120        2.87669212067026       -0.15422895002271
C            5.82593621079428        1.81917765596462       -0.83200320174134
C            6.99190710897884        1.77030285334572       -1.58613102980972
C            7.36992437189151        0.56112649659862       -2.14157117192893
C            6.59471899676277       -0.58177654222890       -1.97128978802374
C            5.42769746261542       -0.55718630615565       -1.22293181617599
C            5.06081317102934        0.64365442987497       -0.63619930135251
C            1.61277562338906        0.39749219202047        0.35525935776528
C            0.63494175792594       -0.52565012961505        0.74850308324218
C           -0.77995458571109       -0.51666974515543        0.72716945145098
C           -1.73829178784190        0.41884458101532        0.31616453316300
C           -3.08996658652042        0.08290996505912        0.44709719257705
N           -4.05711507118014        1.00213155544080        0.04325427996233
C           -4.07294300626302        2.34632624624055        0.36544251112979
C           -3.21003822318321        3.06969139186451        1.17405267921229
C           -3.47696464429097        4.41689023512452        1.36317782882605
C           -4.58198007808078        5.02547816413594        0.77605699349360
C           -5.46492434482483        4.30224337817869       -0.00545101445649
C           -5.21603963634644        2.95110398738398       -0.21159779466452
C           -5.91258984816588        1.91579492866884       -0.92026757189926
C           -7.06746372379644        1.89665370486028       -1.69229980809726
C           -7.45379847573465        0.70305784362149       -2.27478728993309
C           -6.69710334633359       -0.45345378943493       -2.11337240503691
C           -5.54115756361738       -0.45815476174092       -1.34800846156290
C           -5.16608117538399        0.72677220313620       -0.73426120409427
C           -3.49328202233204       -1.14826474681588        0.97161678829105
C           -2.54397806359717       -2.08881614568538        1.39481717877130
C           -1.20836720947412       -1.76850747595218        1.26551403571610
H            2.90461405626455       -2.63130217286558       -2.97842733326202
H            2.83617226769495       -3.26485792887429       -1.33610435936562
H            1.91914504370763       -1.82048068506160       -1.75869272848716
H            0.55649138705088       -3.18129935826440       -3.36531029629353
H            1.40837725947206       -4.63386666606718       -2.84311268664946
H           -0.21725870781686       -2.83452791768504       -1.00119516632239
H           -0.86775807530346       -4.26575341641274       -1.79465101274659
H            0.77160111868709       -5.70009844120821       -0.67566742583057
H            1.49406013343761       -4.31665679687337        0.12844653976005
H           -1.45051386303731       -4.63213283114065        0.52120399841567
H            0.56849124262847       -6.61090161619927        1.64023884287302
H           -0.96412731166510       -6.27365544177654        2.44217562020506
H           -0.70789575997974       -7.31973000903073       -0.41609876096236
H           -2.21570519244775       -6.98284848172243        0.43042133092279
H           -1.15201618546378       -8.26975377805006        0.99919044540963
H            0.82943936652276       -4.11805485369776        2.48325547132461
H           -0.90413488715323       -3.95679682683438        2.81379395015463
H            2.67712804201993       -3.02824122506827        1.94382429047565
H            4.37835539174291       -1.39038070596799        1.23294199410108
H            2.24552709971617        2.59840655959881        1.66841112393502
H            2.72278359189202        5.00144060567734        1.96104849089542
H            4.69500637259939        6.03062269739081        0.93563965681644
H            6.27647566591054        4.67842622727043       -0.40049544296932
H            7.58314405908170        2.66036341065141       -1.73842739433212
H            8.27478250626422        0.50253380814980       -2.72841787047888
H            6.90421140396028       -1.50664211850125       -2.43465175292357
H            4.81957562500438       -1.44142201195229       -1.11581024867481
H            1.33990329789233        1.32400520945209       -0.12259299607370
H           -1.44562941906683        1.34771985990348       -0.14501779135220
H           -2.36491149675786        2.60019468061604        1.65329987009202
H           -2.81613768403979        5.00305975571541        1.98404691608997
H           -4.75692954563138        6.07774141862166        0.94540018419208
H           -6.33278588373647        4.77198407907865       -0.44268895411950
H           -7.64431264289818        2.79741138504553       -1.83678597970718
H           -8.35072768808308        0.66725548947150       -2.87547045544160
H           -7.01273583545292       -1.36562459391197       -2.59734457216905
H           -4.94786436444763       -1.35366547135316       -1.24663329170247
H           -4.54347352136428       -1.35212235734601        1.10164177539212
H           -2.87035451972758       -3.01858523910502        1.83362515140949

 projected vibrational frequencies (cm⁻¹)
eigval :       -0.00     0.00     0.00     0.00     0.00     0.00
eigval :       15.49    17.48    19.63    23.02    24.51    30.35
eigval :       41.24    47.58    55.95    57.84    72.45    89.05
eigval :       98.09   104.19   116.25   120.10   122.37   129.59
eigval :      140.44   144.17   151.72   158.80   163.82   175.02
eigval :      208.05   212.17   220.61   237.37   250.84   254.31
eigval :      263.47   267.27   268.47   276.66   292.98   312.53
eigval :      328.48   341.09   347.05   365.94   378.08   380.51
eigval :      387.38   395.04   418.51   418.94   420.81   421.43
eigval :      434.87   435.66   443.33   462.00   488.60   500.19
eigval :      514.35   514.93   526.61   531.64   531.71   532.56
eigval :      534.39   547.45   557.93   583.15   583.85   585.05
eigval :      607.93   611.34   616.04   635.19   653.55   666.02
eigval :      668.99   669.59   675.92   696.73   702.48   704.16
eigval :      744.34   751.59   752.46   754.92   759.43   761.34
eigval :      764.60   770.62   771.78   772.43   777.45   787.41
eigval :      806.96   812.75   819.72   823.69   825.44   845.54
eigval :      863.14   863.44   863.79   864.56   894.60   895.32
eigval :      895.43   895.68   895.90   896.54   899.80   913.22
eigval :      913.56   914.50   914.82   925.88   935.59   944.13
eigval :      963.01   984.37  1006.14  1008.98  1009.99  1016.70
eigval :     1028.46  1046.38  1049.87  1051.38  1067.32  1067.45
eigval :     1069.91  1075.64  1091.92  1102.63  1104.70  1107.36
eigval :     1123.57  1133.36  1141.18  1142.09  1143.82  1145.54
eigval :     1154.10  1155.60  1161.35  1167.00  1176.98  1178.06
eigval :     1178.26  1178.94  1181.48  1212.33  1215.32  1221.28
eigval :     1224.88  1228.82  1230.07  1234.75  1244.83  1251.41
eigval :     1261.28  1268.65  1271.12  1280.61  1282.32  1290.53
eigval :     1291.06  1297.27  1307.99  1316.89  1326.96  1342.03
eigval :     1344.63  1346.61  1347.46  1349.35  1352.30  1354.57
eigval :     1355.00  1369.92  1371.47  1375.92  1392.07  1400.52
eigval :     1402.68  1406.19  1409.73  1411.41  1417.99  1421.06
eigval :     1422.66  1434.08  1459.40  1459.92  1460.17  1463.19
eigval :     1476.70  1477.25  1487.64  1491.17  1495.98  1496.72
eigval :     1499.55  1503.69  1503.94  1505.54  1508.90  1510.32
eigval :     1513.62  1537.96  1539.19  1543.12  1567.13  1568.03
eigval :     1570.74  1571.39  1610.17  2932.44  2940.49  2958.74
eigval :     2962.63  2963.17  2977.00  2978.99  2980.74  2983.50
eigval :     3006.06  3009.86  3030.01  3033.66  3034.92  3037.60
eigval :     3041.90  3045.19  3076.42  3076.75  3076.88  3077.20
eigval :     3077.49  3084.24  3084.82  3085.30  3086.14  3087.34
eigval :     3091.55  3092.16  3093.41  3094.45  3097.34  3097.67
eigval :     3098.50  3103.32  3104.76  3107.46  3109.07  3110.08

   temp. (K)  partition function   enthalpy   heat capacity  entropy
                                   cal/mol     cal/K/mol   cal/K/mol   J/K/mol
 298.15  VIB  0.489E+18            23406.537    148.647    144.292
         ROT  0.836E+08              888.752      2.981     39.231
         INT  0.408E+26            24295.289    151.628    183.522
         TR   0.146E+29             1481.254      4.968     45.087
         TOT                       25776.5428   156.5957   228.6092   956.5009

       T/K    H(0)-H(T)+PV         H(T)/Eh          T*S/Eh         G(T)/Eh
   ------------------------------------------------------------------------
    298.15    0.410775E-01    0.734884E+00    0.108620E+00    0.626265E+00
   ------------------------------------------------------------------------

         :::::::::::::::::::::::::::::::::::::::::::::::::::::
         ::                  THERMODYNAMIC                  ::
         :::::::::::::::::::::::::::::::::::::::::::::::::::::
         :: total free energy        -122.295426598668 Eh   ::
         ::.................................................::
         :: total energy             -122.921691238200 Eh   ::
         :: zero point energy           0.693806710463 Eh   ::
         :: G(RRHO) w/o ZPVE           -0.067542070931 Eh   ::
         :: G(RRHO) contrib.            0.626264639533 Eh   ::
         :::::::::::::::::::::::::::::::::::::::::::::::::::::

           -------------------------------------------------
          | TOTAL ENERGY             -122.921691238200 Eh   |
          | TOTAL ENTHALPY           -122.186806992014 Eh   |
          | TOTAL FREE ENERGY        -122.295426598668 Eh   |
          | GRADIENT NORM               0.000146182160 Eh/α |
           -------------------------------------------------

 * finished run on 2025/09/13 at 11:11:15.388
