   * xtb version 6.7.1 (edcfbbe) compiled by 'albert@albert-system' on 2024-07-22

   ID    Z sym.   atoms
    1    6 C      1-4, 6-37, 39-68
    2    7 N      5, 38
    3    1 H      69-112

          program call               : xtb data2507/toluene/m-TPA-AP-TPA/m-TPA-AP-TPA_toluene_T1_crest.xyz --gfn 2 --uhf 2 --gbsa toluene --ohess vtight --parallel 40 --molden --ceasefiles --namespace data2507/toluene/m-TPA-AP-TPA/m-TPA-AP-TPA_toluene_T1_finalOpt
      * Solvation model:               GBSA
        Solvent                        toluene
        Solvent mass                       9.2140E+01 g/mol
          :  Hamiltonian                  GFN2-xTB          :
 * total energy  :  -169.6692226 Eh     change       -0.9831865E-08 Eh
 * total energy  :  -169.6692961 Eh     change       -0.7342711E-04 Eh
 * total energy  :  -169.6693661 Eh     change       -0.7001090E-04 Eh
 * total energy  :  -169.6693942 Eh     change       -0.2816012E-04 Eh
 * total energy  :  -169.6694730 Eh     change       -0.7880288E-04 Eh
 * total energy  :  -169.6694908 Eh     change       -0.1775814E-04 Eh
 * total energy  :  -169.6695348 Eh     change       -0.4399510E-04 Eh
 * total energy  :  -169.6695529 Eh     change       -0.1815048E-04 Eh
 * total energy  :  -169.6695791 Eh     change       -0.2620567E-04 Eh
 * total energy  :  -169.6696015 Eh     change       -0.2237624E-04 Eh
 * total energy  :  -169.6698743 Eh     change       -0.2172364E-06 Eh
 * total energy  :  -169.6698745 Eh     change       -0.2019765E-06 Eh
 * total energy  :  -169.6698747 Eh     change       -0.1871426E-06 Eh
 * total energy  :  -169.6698749 Eh     change       -0.2308910E-06 Eh
 * total energy  :  -169.6698752 Eh     change       -0.2976278E-06 Eh
 * total energy  :  -169.6698755 Eh     change       -0.2885499E-06 Eh
 * total energy  :  -169.6698758 Eh     change       -0.2756739E-06 Eh
 * total energy  :  -169.6698761 Eh     change       -0.3072550E-06 Eh
 * total energy  :  -169.6698761 Eh     change       -0.2507164E-08 Eh
   *** GEOMETRY OPTIMIZATION CONVERGED AFTER 94 ITERATIONS ***

 final structure:
================
112
 xtb: 6.7.1 (edcfbbe)
C          -12.75720895731852        0.59631024106005       -0.93511574196133
C          -12.39777601777577        1.65942671430818       -0.12208728110337
C          -11.09820684629506        1.78810242959709        0.32858437156256
C          -10.13074865246606        0.85154921172719       -0.03717573399215
N           -8.81308352561647        0.98146320566392        0.41689838556054
C           -8.23537149317015        2.25310830563485        0.52390027238010
C           -8.49412662191403        3.23107681360491       -0.43657663877334
C           -7.92710975345233        4.48576764833397       -0.32197355541592
C           -7.08978510384004        4.78332971775811        0.74136159379431
C           -6.82792287320037        3.81483753350863        1.69713160199252
C           -7.39783048003149        2.56054734853235        1.59582050191666
C           -8.07036312157783       -0.15689455354536        0.74909704618077
C           -8.68629879643185       -1.24223833595028        1.37580420234766
C           -7.94953423634920       -2.37009151824650        1.68544468235971
C           -6.60189110246728       -2.43682847159567        1.38205824932807
C           -5.96680753290312       -1.35675005681210        0.76524263985213
C           -4.53442136860394       -1.42281910899018        0.44054686263214
C           -3.62163395432517       -0.53923748971838        1.07263688659723
C           -4.05161702328520        0.36679243719999        2.05963965240647
C           -3.16124713825068        1.16109153797725        2.75074231075157
C           -1.80003425738429        1.04627680396799        2.50219873924067
C           -1.34595557985240        0.15437102197151        1.54988469102002
C           -2.22699687908763       -0.62455841828849        0.78594062353981
C           -1.74865961939060       -1.58402656206372       -0.16531567088114
C           -0.33919256694467       -1.72117757326858       -0.43280727735854
C            0.26746144460543       -2.98065649940086       -0.25701698721352
C            1.61988200094320       -3.14946338407062       -0.35580750091353
C            2.46688110829377       -2.07019721677622       -0.69582165865314
C            3.86168151656203       -2.21990862990372       -0.81005645476900
C            4.66412821960383       -1.16700876800093       -1.15168263238562
C            4.12359084134279        0.11366455379243       -1.41703491666379
C            4.92954153999301        1.21694350757969       -1.79145226490564
C            6.39727949619453        1.15136586016552       -1.80414958474291
C            7.10386059768285        1.57283434519970       -2.93167564045426
C            8.48671345708242        1.56031414178778       -2.93383432037331
C            9.18847625165414        1.14181493898667       -1.81900799603535
C            8.49827138590584        0.73016238780812       -0.67823240240795
N            9.19857674347551        0.31960624062604        0.46413484962731
C           10.35780289219943        0.99741520137232        0.85402695026834
C           10.46003841802647        2.37917239843195        0.68676109080046
C           11.61090791046262        3.04341440792825        1.06449812174757
C           12.67263022822740        2.34874865583213        1.62171322189751
C           12.57481330392427        0.97729529309038        1.79475905178344
C           11.43166562775569        0.30256607023277        1.41225024985916
C            8.73488557163687       -0.77213800448081        1.20731298433373
C            8.19462510350263       -1.88483360606700        0.56234201412675
C            7.73936067430734       -2.96267705962061        1.29663096254497
C            7.81870225237592       -2.95307818631698        2.67990206921450
C            8.35747740105259       -1.85168477328180        3.32575381076645
C            8.80999069730380       -0.76642054515256        2.60036549470855
C            7.10593531603343        0.73575117733088       -0.68142114521168
C            4.32050495969053        2.41891388259872       -2.15103993751969
C            2.95505115699718        2.57661492882020       -2.11088532028517
C            2.12352725093825        1.51824384267298       -1.70302473592823
C            0.71732789747218        1.64352465146768       -1.65757759040318
C           -0.07288496250096        0.60911522588802       -1.24455743336241
C            0.48288892839063       -0.62575168992694       -0.84436318043943
C            1.88508142592335       -0.80426991406327       -0.95956305383013
C            2.71301704703043        0.27730282167789       -1.35494224101464
C           -2.68000302975692       -2.46509193794297       -0.80256232232340
C           -2.27881583683216       -3.33366333494909       -1.82805567718917
C           -3.17756481510863       -4.16709793505741       -2.46908450976273
C           -4.52335057322051       -4.12318161680454       -2.13316201853140
C           -4.96279875521410       -3.22946442553080       -1.17757971006775
C           -4.06944233137904       -2.38790726450577       -0.48905550369844
C           -6.71061740471157       -0.22302782862803        0.45461390440128
C          -10.49708967481841       -0.21405638663282       -0.85993527408190
C          -11.80115416429599       -0.33849654046056       -1.29884366213141
H          -13.77459327405691        0.49707601216920       -1.28258969728597
H          -13.13710874120764        2.39051745249503        0.17129872852047
H          -10.82301258761642        2.61246924392521        0.97033729761029
H           -9.13988662068215        2.99827273182393       -1.27086443684761
H           -8.13395208717288        5.23381512344732       -1.07359697626141
H           -6.64573896933473        5.76385689411967        0.82580846394257
H           -6.18333625821496        4.04204789602643        2.53343821506278
H           -7.20670752839839        1.81151692920742        2.35039641210412
H           -9.73722238858426       -1.19208445400840        1.61902541177475
H           -8.43182340086770       -3.20318143507712        2.17601288015938
H           -6.02701579565039       -3.31471746200443        1.63742553558884
H           -5.10383139928110        0.42222723764686        2.29021150772221
H           -3.52060789951679        1.85076423162326        3.50031492842086
H           -1.09132103114903        1.64047934153106        3.06026000450336
H           -0.28272028716726        0.05189220382035        1.39607115410087
H           -0.35507810339793       -3.80980802117762        0.04937057863307
H            2.06436225559258       -4.11284072123650       -0.14976765745603
H            4.29154140610754       -3.19527302509813       -0.63088820786374
H            5.72857747698085       -1.31317192819381       -1.24837180123243
H            6.56213233608023        1.89000429515891       -3.81040032097793
H            9.02611612913327        1.87392748944612       -3.81587770544892
H           10.26838665766961        1.13033628551291       -1.82265594806945
H            9.63047118780672        2.92608101078494        0.26274102150363
H           11.67482780816592        4.11370079523086        0.93131049717246
H           13.56923067154174        2.87194938874206        1.91839671053572
H           13.39895490804141        0.42559005110181        2.22330808325209
H           11.36414444384433       -0.76833699972959        1.53778055294314
H            8.14690327698987       -1.89979568945831       -0.51700833096310
H            7.33059605552025       -3.82155668445054        0.78461717078678
H            7.46472264362561       -3.79835143271277        3.25074532852463
H            8.41911387046261       -1.83392302775606        4.40420798032550
H            9.22320489611283        0.09438519996728        3.10598292547916
H            6.57242356490465        0.44217453759392        0.21141507093418
H            4.94711488361253        3.25029131020657       -2.44288461709035
H            2.50590300989269        3.52012226951815       -2.38602505082844
H            0.27177877294249        2.58048288963598       -1.96087743226232
H           -1.14636502489069        0.72684540170674       -1.22280385222036
H           -1.24461883338906       -3.34350773356204       -2.13685009398644
H           -2.83004875549579       -4.83683813144810       -3.24210891891553
H           -5.23137108121159       -4.76577510985192       -2.63611122081578
H           -6.01780091152041       -3.16108203701779       -0.96048272211165
H           -6.23072073777884        0.60895495615969       -0.04086144019450
H           -9.75186891344876       -0.93854008061505       -1.15480459029711
H          -12.07044783003568       -1.16700126704243       -1.93781200871704

          :  Hamiltonian                  GFN2-xTB          :
         :: gradient norm              0.000038295672 Eh/a0 ::
         :: HOMO-LUMO gap              0.439845488888 eV    ::
         :: SCC energy              -172.931090034758 Eh    ::
         :: -> dispersion             -0.168917218051 Eh    ::
         :: -> Gsolv                  -0.066342827580 Eh    ::
         :: repulsion energy           3.261213933040 Eh    ::

    * Orbital Energies and Occupations

         #    Occupation            Energy/Eh            Energy/eV
      -------------------------------------------------------------
         1        2.0000           -0.6662802             -18.1304
       ...           ...                  ...                  ...
       148        2.0000           -0.4046785             -11.0119
       149        2.0000           -0.4016088             -10.9283
       150        2.0000           -0.4000766             -10.8866
       151        2.0000           -0.3996859             -10.8760
       152        2.0000           -0.3985416             -10.8449
       153        2.0000           -0.3976846             -10.8215
       154        2.0000           -0.3955405             -10.7632
       155        2.0000           -0.3879487             -10.5566
       156        2.0000           -0.3612986              -9.8314
       157        1.9805           -0.3516299              -9.5683
       158        1.9605           -0.3509404              -9.5496
       159        1.0591           -0.3452796              -9.3955
       160        0.9998           -0.2880402              -7.8380 (HOMO)
       161        0.0002           -0.2718761              -7.3981 (LUMO)
       162                         -0.2384923              -6.4897
       163                         -0.2320523              -6.3145
       164                         -0.2315815              -6.3017
       165                         -0.2311922              -6.2911
       166                         -0.2307952              -6.2803
       167                         -0.2287005              -6.2233
       168                         -0.2281888              -6.2093
       169                         -0.2262184              -6.1557
       170                         -0.2239380              -6.0937
       171                         -0.2235968              -6.0844
       ...                                ...                  ...
       316                          0.7240721              19.7030
      -------------------------------------------------------------
                  HL-Gap            0.0161640 Eh            0.4398 eV

     #   Z          covCN         q      C6AA      α(0)
     1   6 C        2.919    -0.039    28.959     8.825
     2   6 C        2.919    -0.030    28.744     8.792
     3   6 C        2.922    -0.048    29.180     8.858
     4   6 C        2.924     0.066    26.526     8.446
     5   7 N        2.752    -0.076    22.721     7.080
     6   6 C        2.924     0.066    26.527     8.446
     7   6 C        2.922    -0.047    29.165     8.856
     8   6 C        2.919    -0.030    28.740     8.791
     9   6 C        2.919    -0.038    28.944     8.822
    10   6 C        2.919    -0.029    28.725     8.789
    11   6 C        2.922    -0.046    29.131     8.851
    12   6 C        2.921     0.066    26.533     8.447
    13   6 C        2.922    -0.049    29.226     8.865
    14   6 C        2.916    -0.031    28.768     8.795
    15   6 C        2.923    -0.040    28.992     8.830
    16   6 C        2.974     0.017    27.631     8.622
    17   6 C        2.975    -0.012    28.306     8.727
    18   6 C        2.978     0.006    27.874     8.660
    19   6 C        2.922    -0.039    28.964     8.826
    20   6 C        2.914    -0.032    28.802     8.800
    21   6 C        2.915    -0.033    28.819     8.803
    22   6 C        2.921    -0.036    28.907     8.817
    23   6 C        2.977     0.007    27.858     8.658
    24   6 C        2.972    -0.007    28.200     8.711
    25   6 C        2.972     0.004    27.924     8.668
    26   6 C        2.917    -0.033    28.834     8.805
    27   6 C        2.914    -0.042    29.055     8.839
    28   6 C        2.981     0.007    27.863     8.659
    29   6 C        2.914    -0.040    28.990     8.829
    30   6 C        2.914    -0.040    28.985     8.828
    31   6 C        2.980     0.005    27.904     8.665
    32   6 C        2.975    -0.002    28.078     8.692
    33   6 C        2.976     0.013    27.714     8.635
    34   6 C        2.924    -0.043    29.058     8.840
    35   6 C        2.917    -0.031    28.764     8.795
    36   6 C        2.921    -0.050    29.230     8.866
    37   6 C        2.922     0.065    26.546     8.449
    38   7 N        2.752    -0.077    22.737     7.082
    39   6 C        2.923     0.066    26.522     8.445
    40   6 C        2.922    -0.048    29.188     8.860
    41   6 C        2.919    -0.030    28.747     8.792
    42   6 C        2.919    -0.039    28.968     8.826
    43   6 C        2.919    -0.030    28.749     8.793
    44   6 C        2.922    -0.048    29.193     8.860
    45   6 C        2.924     0.066    26.522     8.445
    46   6 C        2.922    -0.046    29.140     8.852
    47   6 C        2.919    -0.029    28.721     8.788
    48   6 C        2.919    -0.038    28.949     8.823
    49   6 C        2.919    -0.030    28.741     8.791
    50   6 C        2.922    -0.047    29.170     8.857
    51   6 C        2.927    -0.051    29.260     8.871
    52   6 C        2.918    -0.036    28.889     8.814
    53   6 C        2.916    -0.042    29.044     8.837
    54   6 C        2.981     0.008    27.845     8.656
    55   6 C        2.915    -0.040    29.000     8.831
    56   6 C        2.915    -0.035    28.878     8.812
    57   6 C        2.979     0.005    27.903     8.665
    58   6 C        2.993     0.000    28.009     8.681
    59   6 C        2.995     0.000    28.018     8.683
    60   6 C        2.978     0.006    27.888     8.662
    61   6 C        2.921    -0.038    28.939     8.822
    62   6 C        2.915    -0.033    28.834     8.805
    63   6 C        2.914    -0.032    28.802     8.800
    64   6 C        2.921    -0.039    28.978     8.828
    65   6 C        2.978     0.007    27.860     8.658
    66   6 C        2.927    -0.052    29.280     8.874
    67   6 C        2.922    -0.047    29.176     8.858
    68   6 C        2.919    -0.030    28.745     8.792
    69   1 H        0.926     0.033     2.548     2.496
    70   1 H        0.926     0.034     2.528     2.486
    71   1 H        0.926     0.032     2.555     2.500
    72   1 H        0.926     0.032     2.552     2.498
    73   1 H        0.926     0.034     2.525     2.485
    74   1 H        0.926     0.033     2.543     2.494
    75   1 H        0.926     0.035     2.522     2.483
    76   1 H        0.926     0.031     2.572     2.508
    77   1 H        0.926     0.033     2.540     2.492
    78   1 H        0.926     0.035     2.513     2.479
    79   1 H        0.926     0.033     2.541     2.493
    80   1 H        0.926     0.031     2.579     2.511
    81   1 H        0.926     0.028     2.609     2.526
    82   1 H        0.926     0.028     2.619     2.531
    83   1 H        0.926     0.029     2.598     2.521
    84   1 H        0.926     0.031     2.572     2.508
    85   1 H        0.926     0.030     2.588     2.516
    86   1 H        0.926     0.029     2.606     2.524
    87   1 H        0.926     0.032     2.562     2.503
    88   1 H        0.926     0.033     2.540     2.492
    89   1 H        0.926     0.035     2.520     2.483
    90   1 H        0.926     0.033     2.550     2.497
    91   1 H        0.926     0.032     2.563     2.504
    92   1 H        0.926     0.034     2.535     2.490
    93   1 H        0.926     0.032     2.553     2.499
    94   1 H        0.926     0.034     2.533     2.489
    95   1 H        0.926     0.032     2.559     2.502
    96   1 H        0.926     0.030     2.584     2.514
    97   1 H        0.926     0.034     2.530     2.487
    98   1 H        0.926     0.033     2.546     2.495
    99   1 H        0.926     0.034     2.528     2.487
   100   1 H        0.926     0.032     2.553     2.498
   101   1 H        0.926     0.033     2.545     2.495
   102   1 H        0.926     0.030     2.584     2.514
   103   1 H        0.926     0.030     2.588     2.516
   104   1 H        0.926     0.029     2.603     2.523
   105   1 H        0.926     0.028     2.608     2.525
   106   1 H        0.926     0.033     2.549     2.496
   107   1 H        0.926     0.028     2.611     2.527
   108   1 H        0.926     0.028     2.609     2.526
   109   1 H        0.926     0.031     2.574     2.509
   110   1 H        0.926     0.031     2.565     2.505
   111   1 H        0.926     0.032     2.558     2.501
   112   1 H        0.926     0.034     2.529     2.487

molecular dipole:
                 x           y           z       tot (Debye)
 q only:       -0.144       0.178       0.176
   full:       -0.139       0.187       0.186       0.758

 projected vibrational frequencies (cm⁻¹)
eigval :       -0.00    -0.00    -0.00    -0.00     0.00     0.00
eigval :        1.68     3.79     8.94    10.21    13.34    23.27
eigval :       26.12    30.64    41.87    42.23    45.59    49.40
eigval :       57.34    61.15    62.11    69.29    69.65    74.66
eigval :       78.25    79.94    85.73    93.38   102.74   114.09
eigval :      120.87   133.64   138.03   163.79   181.27   200.01
eigval :      204.82   208.54   213.81   219.67   221.93   225.77
eigval :      227.05   234.34   239.23   252.78   261.98   265.55
eigval :      275.60   289.21   292.70   319.53   324.78   325.34
eigval :      329.23   352.77   361.09   366.33   376.64   378.58
eigval :      381.18   382.47   383.93   386.32   392.74   394.38
eigval :      400.54   409.82   416.68   424.66   430.17   438.51
eigval :      450.62   456.55   470.49   473.58   474.76   476.38
eigval :      489.32   491.09   494.49   504.87   511.93   518.85
eigval :      533.28   553.90   560.56   577.62   579.42   581.47
eigval :      582.33   586.05   589.63   590.35   593.88   598.86
eigval :      601.53   607.69   614.77   630.09   638.00   639.96
eigval :      643.83   655.63   659.64   660.85   661.36   665.03
eigval :      670.25   672.69   674.73   676.92   678.48   693.74
eigval :      697.71   724.35   729.79   742.71   745.70   753.07
eigval :      753.66   754.66   755.53   759.47   762.45   764.28
eigval :      792.07   793.77   798.63   804.23   806.64   834.87
eigval :      837.59   839.78   852.72   856.56   870.28   872.44
eigval :      874.70   875.73   885.35   887.85   888.20   889.39
eigval :      889.85   890.51   892.29   893.17   894.07   896.89
eigval :      898.42   901.24   908.70   909.18   910.14   910.31
eigval :      910.80   912.41   915.12   922.80   924.65   924.88
eigval :      925.37   927.06   927.26   927.95   928.47   929.06
eigval :      929.96   930.88   934.51   943.91   973.92   975.27
eigval :      989.91   994.76   997.41  1003.52  1003.80  1013.56
eigval :     1024.86  1081.12  1081.25  1082.18  1082.61  1085.54
eigval :     1102.42  1105.09  1115.84  1119.24  1119.48  1120.74
eigval :     1121.94  1122.41  1125.76  1131.20  1132.44  1140.01
eigval :     1147.76  1168.77  1173.15  1177.60  1177.85  1178.64
eigval :     1179.20  1179.49  1181.15  1183.89  1185.41  1187.45
eigval :     1187.76  1192.25  1193.74  1195.47  1200.13  1203.83
eigval :     1208.92  1215.78  1224.86  1236.08  1237.63  1251.58
eigval :     1257.59  1260.21  1266.42  1275.61  1276.09  1277.50
eigval :     1278.63  1287.42  1296.95  1303.03  1308.34  1310.20
eigval :     1312.66  1313.90  1314.80  1316.78  1321.56  1323.45
eigval :     1324.81  1325.04  1327.86  1329.64  1336.79  1338.37
eigval :     1344.71  1364.20  1375.45  1384.81  1388.05  1394.12
eigval :     1403.28  1412.17  1416.49  1422.51  1424.53  1434.32
eigval :     1434.65  1436.10  1441.27  1441.48  1449.90  1461.75
eigval :     1463.64  1468.53  1468.57  1470.03  1471.39  1472.68
eigval :     1485.27  1489.91  1514.16  1519.05  1522.05  1529.49
eigval :     1539.94  1552.06  1556.02  1556.04  1559.98  1564.84
eigval :     1571.54  1573.10  1575.69  1577.71  1578.95  1579.54
eigval :     1589.82  1590.13  1596.13  1596.55  3064.10  3064.52
eigval :     3067.03  3069.42  3069.91  3071.24  3072.07  3072.19
eigval :     3072.52  3072.70  3072.76  3072.94  3073.38  3073.47
eigval :     3074.13  3074.54  3076.77  3077.56  3078.87  3080.46
eigval :     3080.49  3080.74  3081.59  3081.91  3082.73  3082.78
eigval :     3083.94  3084.44  3084.66  3084.76  3085.41  3085.67
eigval :     3085.96  3091.16  3091.66  3092.41  3093.57  3093.93
eigval :     3094.09  3094.17  3096.03  3096.65  3099.93  3101.54

   temp. (K)  partition function   enthalpy   heat capacity  entropy
                                   cal/mol     cal/K/mol   cal/K/mol   J/K/mol
 298.15  VIB  0.982E+27            31998.887    202.906    203.288
         ROT  0.280E+09              888.752      2.981     41.632
         INT  0.275E+36            32887.639    205.887    244.919
         TR   0.246E+29             1481.254      4.968     46.129
         TOT                       34368.8930   210.8549   291.0479  1217.7443

       T/K    H(0)-H(T)+PV         H(T)/Eh          T*S/Eh         G(T)/Eh
   ------------------------------------------------------------------------
    298.15    0.547703E-01    0.920321E+00    0.138286E+00    0.782035E+00
   ------------------------------------------------------------------------

         :::::::::::::::::::::::::::::::::::::::::::::::::::::
         ::                  THERMODYNAMIC                  ::
         :::::::::::::::::::::::::::::::::::::::::::::::::::::
         :: total free energy        -168.887841009342 Eh   ::
         ::.................................................::
         :: total energy             -169.669876104690 Eh   ::
         :: zero point energy           0.865551013824 Eh   ::
         :: G(RRHO) w/o ZPVE           -0.083515918476 Eh   ::
         :: G(RRHO) contrib.            0.782035095348 Eh   ::
         :::::::::::::::::::::::::::::::::::::::::::::::::::::

           -------------------------------------------------
          | TOTAL ENERGY             -169.669876104690 Eh   |
          | TOTAL ENTHALPY           -168.749554773637 Eh   |
          | TOTAL FREE ENERGY        -168.887841009342 Eh   |
          | GRADIENT NORM               0.000038301294 Eh/α |
          | HOMO-LUMO GAP               0.439845294669 eV   |
           -------------------------------------------------

 * finished run on 2025/09/04 at 00:24:59.580
