   * xtb version 6.7.1 (edcfbbe) compiled by 'albert@albert-system' on 2024-07-22

   ID    Z sym.   atoms
    1    6 C      1-4, 6-37, 39-68
    2    7 N      5, 38
    3    1 H      69-112

          program call               : xtb data2507/toluene/m-TPA-AP-TPA/m-TPA-AP-TPA_toluene_S0_crest.xyz --gfn 2 --gbsa toluene --ohess vtight --parallel 40 --molden --ceasefiles --namespace data2507/toluene/m-TPA-AP-TPA/m-TPA-AP-TPA_toluene_S0_finalOpt
      * Solvation model:               GBSA
        Solvent                        toluene
        Solvent mass                       9.2140E+01 g/mol
          :  Hamiltonian                  GFN2-xTB          :
 * total energy  :  -169.7345743 Eh     change       -0.1880949E-08 Eh
 * total energy  :  -169.7346395 Eh     change       -0.6518438E-04 Eh
 * total energy  :  -169.7347038 Eh     change       -0.6429634E-04 Eh
 * total energy  :  -169.7347310 Eh     change       -0.2717755E-04 Eh
 * total energy  :  -169.7347996 Eh     change       -0.6862702E-04 Eh
 * total energy  :  -169.7348156 Eh     change       -0.1603352E-04 Eh
 * total energy  :  -169.7348363 Eh     change       -0.2066535E-04 Eh
 * total energy  :  -169.7348480 Eh     change       -0.1175147E-04 Eh
 * total energy  :  -169.7348597 Eh     change       -0.1164491E-04 Eh
 * total energy  :  -169.7348745 Eh     change       -0.1477057E-04 Eh
 * total energy  :  -169.7352692 Eh     change       -0.2400120E-06 Eh
 * total energy  :  -169.7352694 Eh     change       -0.2589625E-06 Eh
 * total energy  :  -169.7352697 Eh     change       -0.2618112E-06 Eh
 * total energy  :  -169.7352699 Eh     change       -0.2576125E-06 Eh
 * total energy  :  -169.7352702 Eh     change       -0.2912348E-06 Eh
 * total energy  :  -169.7352706 Eh     change       -0.3512479E-06 Eh
 * total energy  :  -169.7352710 Eh     change       -0.4325071E-06 Eh
 * total energy  :  -169.7352715 Eh     change       -0.4596662E-06 Eh
 * total energy  :  -169.7352715 Eh     change       -0.7726925E-08 Eh
   *** GEOMETRY OPTIMIZATION CONVERGED AFTER 68 ITERATIONS ***

 final structure:
================
112
 xtb: 6.7.1 (edcfbbe)
C          -12.44254546901526        1.02525153543549       -1.80897157064258
C          -12.16933299127936        1.99786593743928       -0.86051961556262
C          -10.94955867572930        2.02101572173388       -0.21197620521873
C           -9.97504833851235        1.06913563201727       -0.51246168431487
N           -8.73722409663286        1.08825435408478        0.14131388526037
C           -8.12237945638342        2.30864407033374        0.44728437846976
C           -8.20006357863737        3.38436394002726       -0.43731275366787
C           -7.59107523225424        4.58545442279415       -0.12791137000105
C           -6.88889529525305        4.73286728033705        1.05760411517612
C           -6.80547274576226        3.66655236406247        1.93852100884964
C           -7.42132979954910        2.46596696753629        1.64288926075693
C           -8.10878136385092       -0.11478636825676        0.48386389031421
C           -8.85752585967013       -1.20474490805058        0.92885304745281
C           -8.22704659293639       -2.38878186204337        1.26067737601673
C           -6.85134657797326       -2.50700540693017        1.16263882780566
C           -6.09169693329113       -1.42562731919771        0.72473351265252
C           -4.62017410241900       -1.53928839621670        0.60748354508911
C           -3.79408974840314       -0.89980092788324        1.54213259124182
C           -4.32705124123346       -0.15239667374196        2.62528477375410
C           -3.51463129196897        0.46516269366033        3.52546570627975
C           -2.11317660525762        0.36741914519302        3.40426971565550
C           -1.56106636067182       -0.35158971728629        2.38943493194594
C           -2.37315904127328       -1.00954837159556        1.42813554141808
C           -1.81402312743208       -1.75872511427017        0.38480636508704
C           -0.34207936513265       -1.89312078361961        0.27737468216358
C            0.28531802889130       -2.99082019678538        0.85484746010940
C            1.65335385435149       -3.15680741813364        0.76966867827003
C            2.44467256570268       -2.22188689908569        0.09994511827032
C            3.85571935895741       -2.37200037020827       -0.02674383987616
C            4.60703601838044       -1.45186992199106       -0.67432064222985
C            4.02158876927227       -0.28681285097085       -1.25414464001264
C            4.78209630912605        0.68306373405019       -1.93061299400182
C            6.25232538264363        0.60839312461247       -2.02223662241563
C            6.87084154940425        0.62762018338355       -3.27061601209569
C            8.25121914533631        0.60223099767191       -3.36166809072156
C            9.03026942896770        0.57054883094258       -2.22104914649697
C            8.42654243696390        0.56878692692934       -0.96318619897545
N            9.20917276310485        0.56187928817237        0.19794714648735
C           10.39604448812737        1.30236670417084        0.24546692527771
C           10.48100178944349        2.54650692526416       -0.38020553530607
C           11.65727824172112        3.26975626624596       -0.33577941729563
C           12.76227089892782        2.77383389491004        0.33745206063932
C           12.68179091334328        1.54131969843697        0.96560277499712
C           11.51280502838904        0.80645474615997        0.91891968982719
C            8.80742860493026       -0.18889936412518        1.30957682344087
C            8.22535285921287       -1.44506737070303        1.14142341772337
C            7.83422962917187       -2.18468597941982        2.24084576130951
C            8.02163344142369       -1.69089732856006        3.52167557237782
C            8.60219807236919       -0.44465040892082        3.69488577835411
C            8.98960375307448        0.30540251813086        2.60121900344330
C            7.03597698432643        0.58213136383413       -0.87534125974515
C            4.13931971383237        1.75879296656856       -2.53719556762898
C            2.77116441645332        1.91504252741032       -2.46337051875289
C            1.98516514526227        0.98628359390997       -1.77901069625206
C            0.57048866152086        1.12270441256893       -1.67588890394713
C           -0.17878640787166        0.20828833169794       -1.01840814532532
C            0.42056916684775       -0.93084984965262       -0.40362295167310
C            1.82633103198863       -1.09284737115851       -0.49159501623366
C            2.61322386110337       -0.13044386300316       -1.17384155200711
C           -2.63896756639086       -2.39807505372626       -0.54969082614636
C           -2.09866688535454       -3.15172179372946       -1.62517270852359
C           -2.90685049029823       -3.75711556657877       -2.53725584338165
C           -4.30820921119777       -3.63984480124522       -2.43351057536131
C           -4.86536445542403       -2.92451649811062       -1.41850038415496
C           -4.05999916852140       -2.28515526864101       -0.43895310493106
C           -6.72399982822381       -0.23803405236952        0.38563618945041
C          -10.25303419766344        0.09645376092513       -1.47316949695399
C          -11.47915076061992        0.07573509025289       -2.10953664808348
H          -13.39860158871547        1.00770590606538       -2.31035787153486
H          -12.91582155246602        2.73972057509962       -0.61595722694742
H          -10.74331835714119        2.77465749097224        0.53424853314818
H           -8.73778723649295        3.26968693710406       -1.36741152288927
H           -7.65825924656077        5.40970477039780       -0.82325375281289
H           -6.41000722516613        5.67157488048869        1.29278006265650
H           -6.26454047401966        3.77247691140801        2.86769868872789
H           -7.36718582095016        1.64121061010612        2.33823428243757
H           -9.93049809064526       -1.11483304089446        1.01406846711298
H           -8.81526020115612       -3.22576588984035        1.60812077997789
H           -6.35987897251231       -3.43150175569812        1.42762722821647
H           -5.40027207743754       -0.08731096103124        2.72300692469742
H           -3.93636263439091        1.03120432050919        4.34353783309196
H           -1.48305678665801        0.86400773076314        4.12799539191547
H           -0.48777343416150       -0.43525262721836        2.29799841889975
H           -0.31681233590026       -3.72240373175534        1.37563020722806
H            2.12238711438812       -4.01877835253515        1.22261653942561
H            4.31249304258393       -3.25227898941036        0.40297904349739
H            5.67224916610852       -1.59241185050992       -0.77526662184630
H            6.26547978255424        0.64751871365812       -4.16480023245952
H            8.72688451368984        0.60229818119770       -4.33176508942761
H           10.10765706935165        0.55019293119812       -2.29436750525315
H            9.61850761648305        2.94075698740068       -0.89797295695828
H           11.70833679498574        4.23259445350739       -0.82343317289266
H           13.67881857304426        3.34350680566585        0.37254527806810
H           13.53949042210824        1.14368877749913        1.48881324531297
H           11.45614471418693       -0.15866984441502        1.40132545763060
H            8.09358648742130       -1.83829244929678        0.14367478323803
H            7.39157588471173       -3.15957368914972        2.09752774074652
H            7.71876898676102       -2.27358133391637        4.37875082234525
H            8.74822344933979       -0.04921370075759        4.68977873846508
H            9.43573478756767        1.27982936579836        2.73845885054823
H            6.56396006983625        0.59768702191141        0.09688903850059
H            4.73595732113813        2.49398518857975       -3.05890247105198
H            2.29647354955915        2.76458235414891       -2.93368620587522
H            0.10721605820143        1.98127744169995       -2.14181244799804
H           -1.25104893931088        0.32154565287861       -0.94720191570235
H           -1.02430497008675       -3.23131756631874       -1.70682530278252
H           -2.48202309599574       -4.32747972363079       -3.35063477413643
H           -4.93495052548481       -4.12059034412187       -3.17083082712394
H           -5.93851346589885       -2.82844637555484       -1.34328792148725
H           -6.13578675255173        0.59813527684459        0.03500654995323
H           -9.50026297534970       -0.63920027223428       -1.71703481062539
H          -11.68014777059228       -0.68293672935616       -2.85217525101854

          :  Hamiltonian                  GFN2-xTB          :
         :: gradient norm              0.000061692500 Eh/a0 ::
         :: HOMO-LUMO gap              1.920600086231 eV    ::
         :: SCC energy              -173.016281953719 Eh    ::
         :: -> dispersion             -0.167957273809 Eh    ::
         :: -> Gsolv                  -0.066900753282 Eh    ::
         :: repulsion energy           3.281010480583 Eh    ::

    * Orbital Energies and Occupations

         #    Occupation            Energy/Eh            Energy/eV
      -------------------------------------------------------------
         1        2.0000           -0.6640409             -18.0695
       ...           ...                  ...                  ...
       147        2.0000           -0.4050850             -11.0229
       148        2.0000           -0.4048474             -11.0165
       149        2.0000           -0.4035404             -10.9809
       150        2.0000           -0.4034548             -10.9786
       151        2.0000           -0.3996660             -10.8755
       152        2.0000           -0.3984505             -10.8424
       153        2.0000           -0.3977643             -10.8237
       154        2.0000           -0.3969430             -10.8014
       155        2.0000           -0.3898781             -10.6091
       156        2.0000           -0.3613850              -9.8338
       157        2.0000           -0.3580500              -9.7430
       158        2.0000           -0.3493883              -9.5073
       159        2.0000           -0.3492793              -9.5044 (HOMO)
       160                         -0.2786986              -7.5838 (LUMO)
       161                         -0.2765118              -7.5243
       162                         -0.2424422              -6.5972
       163                         -0.2311005              -6.2886
       164                         -0.2300074              -6.2588
       165                         -0.2298510              -6.2546
       166                         -0.2298114              -6.2535
       167                         -0.2297640              -6.2522
       168                         -0.2273787              -6.1873
       169                         -0.2271578              -6.1813
       170                         -0.2229244              -6.0661
       ...                                ...                  ...
       316                          0.7306037              19.8807
      -------------------------------------------------------------
                  HL-Gap            0.0705807 Eh            1.9206 eV

     #   Z          covCN         q      C6AA      α(0)
     1   6 C        2.919    -0.040    28.986     8.829
     2   6 C        2.919    -0.030    28.758     8.794
     3   6 C        2.922    -0.048    29.199     8.861
     4   6 C        2.923     0.066    26.522     8.445
     5   7 N        2.752    -0.082    22.826     7.096
     6   6 C        2.923     0.066    26.522     8.445
     7   6 C        2.922    -0.048    29.197     8.861
     8   6 C        2.919    -0.030    28.757     8.794
     9   6 C        2.919    -0.039    28.981     8.828
    10   6 C        2.919    -0.030    28.748     8.792
    11   6 C        2.923    -0.047    29.169     8.857
    12   6 C        2.922     0.066    26.529     8.446
    13   6 C        2.922    -0.051    29.267     8.872
    14   6 C        2.918    -0.031    28.774     8.796
    15   6 C        2.923    -0.042    29.051     8.839
    16   6 C        2.976     0.016    27.656     8.626
    17   6 C        2.977    -0.006    28.175     8.707
    18   6 C        2.983     0.005    27.903     8.665
    19   6 C        2.917    -0.034    28.846     8.807
    20   6 C        2.914    -0.030    28.761     8.794
    21   6 C        2.914    -0.031    28.770     8.795
    22   6 C        2.917    -0.034    28.835     8.806
    23   6 C        2.984     0.006    27.888     8.663
    24   6 C        2.978    -0.004    28.110     8.697
    25   6 C        2.977     0.008    27.842     8.655
    26   6 C        2.919    -0.034    28.851     8.808
    27   6 C        2.918    -0.039    28.965     8.826
    28   6 C        2.982     0.008    27.843     8.656
    29   6 C        2.913    -0.037    28.932     8.820
    30   6 C        2.913    -0.036    28.900     8.815
    31   6 C        2.982     0.006    27.883     8.662
    32   6 C        2.976     0.002    27.976     8.676
    33   6 C        2.977     0.012    27.732     8.638
    34   6 C        2.924    -0.044    29.087     8.844
    35   6 C        2.917    -0.031    28.770     8.796
    36   6 C        2.922    -0.050    29.254     8.870
    37   6 C        2.922     0.065    26.535     8.447
    38   7 N        2.752    -0.082    22.840     7.098
    39   6 C        2.923     0.066    26.522     8.445
    40   6 C        2.922    -0.048    29.202     8.862
    41   6 C        2.919    -0.030    28.761     8.794
    42   6 C        2.919    -0.040    28.991     8.830
    43   6 C        2.919    -0.030    28.760     8.794
    44   6 C        2.922    -0.049    29.205     8.862
    45   6 C        2.923     0.066    26.521     8.445
    46   6 C        2.922    -0.047    29.165     8.856
    47   6 C        2.919    -0.030    28.742     8.791
    48   6 C        2.919    -0.039    28.977     8.827
    49   6 C        2.919    -0.030    28.754     8.793
    50   6 C        2.922    -0.048    29.189     8.860
    51   6 C        2.927    -0.051    29.273     8.873
    52   6 C        2.921    -0.036    28.887     8.814
    53   6 C        2.918    -0.039    28.962     8.825
    54   6 C        2.982     0.008    27.823     8.652
    55   6 C        2.913    -0.037    28.921     8.819
    56   6 C        2.913    -0.034    28.849     8.807
    57   6 C        2.984     0.006    27.879     8.661
    58   6 C        2.995     0.001    27.992     8.679
    59   6 C        2.995     0.001    27.987     8.678
    60   6 C        2.984     0.006    27.892     8.663
    61   6 C        2.917    -0.034    28.841     8.807
    62   6 C        2.914    -0.031    28.770     8.796
    63   6 C        2.914    -0.031    28.770     8.795
    64   6 C        2.917    -0.035    28.865     8.810
    65   6 C        2.983     0.005    27.899     8.664
    66   6 C        2.927    -0.051    29.270     8.872
    67   6 C        2.922    -0.048    29.195     8.861
    68   6 C        2.919    -0.030    28.759     8.794
    69   1 H        0.926     0.031     2.567     2.505
    70   1 H        0.926     0.033     2.547     2.496
    71   1 H        0.926     0.031     2.574     2.509
    72   1 H        0.926     0.031     2.575     2.510
    73   1 H        0.926     0.033     2.548     2.496
    74   1 H        0.926     0.031     2.568     2.506
    75   1 H        0.926     0.033     2.544     2.494
    76   1 H        0.926     0.030     2.591     2.517
    77   1 H        0.926     0.031     2.570     2.507
    78   1 H        0.926     0.034     2.533     2.489
    79   1 H        0.926     0.030     2.580     2.512
    80   1 H        0.926     0.030     2.586     2.515
    81   1 H        0.926     0.030     2.585     2.514
    82   1 H        0.926     0.030     2.589     2.516
    83   1 H        0.926     0.029     2.596     2.520
    84   1 H        0.926     0.029     2.598     2.521
    85   1 H        0.926     0.033     2.543     2.494
    86   1 H        0.926     0.032     2.563     2.503
    87   1 H        0.926     0.034     2.535     2.490
    88   1 H        0.926     0.032     2.561     2.502
    89   1 H        0.926     0.034     2.535     2.490
    90   1 H        0.926     0.031     2.570     2.507
    91   1 H        0.926     0.031     2.578     2.511
    92   1 H        0.926     0.033     2.550     2.497
    93   1 H        0.926     0.031     2.570     2.507
    94   1 H        0.926     0.033     2.551     2.497
    95   1 H        0.926     0.031     2.579     2.511
    96   1 H        0.926     0.029     2.598     2.521
    97   1 H        0.926     0.033     2.543     2.494
    98   1 H        0.926     0.032     2.564     2.504
    99   1 H        0.926     0.033     2.548     2.496
   100   1 H        0.926     0.031     2.576     2.510
   101   1 H        0.926     0.032     2.564     2.504
   102   1 H        0.926     0.032     2.560     2.502
   103   1 H        0.926     0.033     2.545     2.495
   104   1 H        0.926     0.031     2.569     2.506
   105   1 H        0.926     0.029     2.601     2.522
   106   1 H        0.926     0.030     2.593     2.518
   107   1 H        0.926     0.030     2.588     2.516
   108   1 H        0.926     0.030     2.584     2.514
   109   1 H        0.926     0.031     2.572     2.508
   110   1 H        0.926     0.029     2.594     2.519
   111   1 H        0.926     0.031     2.579     2.511
   112   1 H        0.926     0.033     2.547     2.496

molecular dipole:
                 x           y           z       tot (Debye)
 q only:        0.001       0.003       0.004
   full:        0.002       0.028      -0.001       0.072

 projected vibrational frequencies (cm⁻¹)
eigval :       -0.00    -0.00    -0.00     0.00     0.00     0.00
eigval :       -8.78    -1.85     6.85     9.38    11.17    16.88
eigval :       18.64    31.74    33.72    42.50    45.31    51.12
eigval :       53.21    58.34    62.82    66.59    67.90    74.54
eigval :       76.57    77.60    84.01    93.90    95.63   106.99
eigval :      113.84   130.89   140.25   152.41   176.65   198.61
eigval :      203.11   207.21   209.14   211.58   218.86   222.65
eigval :      226.14   235.11   237.62   241.93   254.22   258.08
eigval :      277.75   287.13   291.82   321.41   324.60   326.61
eigval :      329.92   355.76   363.52   372.87   377.83   378.42
eigval :      383.30   384.05   385.97   391.02   396.19   399.06
eigval :      404.34   409.56   419.10   429.53   432.51   442.88
eigval :      457.25   458.86   474.76   475.76   476.16   478.86
eigval :      488.57   489.96   498.65   504.65   512.52   518.35
eigval :      539.78   557.42   564.19   578.61   581.48   582.00
eigval :      584.06   589.26   590.58   592.10   597.85   599.56
eigval :      604.30   615.04   621.30   631.02   645.97   648.84
eigval :      654.45   656.90   660.57   661.44   662.33   665.93
eigval :      670.52   674.89   678.55   679.98   690.14   693.35
eigval :      700.04   730.59   737.09   745.13   747.38   755.24
eigval :      757.40   760.45   760.75   764.11   773.46   774.23
eigval :      790.58   793.27   800.04   806.30   819.96   843.23
eigval :      843.79   849.86   871.03   872.38   872.90   873.83
eigval :      875.10   875.87   882.51   886.75   887.97   889.30
eigval :      889.96   890.97   892.19   894.54   895.51   897.91
eigval :      909.37   909.59   910.42   914.24   916.40   917.17
eigval :      921.84   922.91   924.65   924.90   926.12   926.22
eigval :      926.90   927.02   927.34   927.47   928.56   928.70
eigval :      929.12   929.63   930.40   931.75   974.13   975.78
eigval :      990.86   996.05   998.25  1003.81  1003.88  1013.47
eigval :     1025.41  1077.53  1078.35  1080.50  1081.64  1081.88
eigval :     1082.80  1084.54  1110.58  1118.17  1119.35  1121.77
eigval :     1121.83  1128.01  1129.24  1134.05  1139.38  1150.77
eigval :     1162.42  1174.29  1177.32  1177.93  1178.04  1179.03
eigval :     1179.99  1180.20  1182.31  1183.08  1185.57  1186.15
eigval :     1192.24  1193.68  1195.71  1196.98  1201.70  1210.83
eigval :     1221.41  1225.68  1226.45  1236.69  1251.36  1256.88
eigval :     1259.09  1263.50  1264.10  1274.90  1275.78  1276.64
eigval :     1279.65  1284.35  1303.93  1307.38  1310.40  1311.93
eigval :     1312.09  1313.34  1314.13  1322.16  1322.61  1324.83
eigval :     1325.07  1326.85  1329.56  1348.23  1356.73  1373.11
eigval :     1379.06  1382.92  1383.80  1404.97  1413.96  1419.11
eigval :     1424.35  1427.83  1428.23  1435.06  1435.69  1441.22
eigval :     1442.41  1447.05  1450.72  1466.38  1467.98  1470.60
eigval :     1470.90  1473.75  1473.95  1486.15  1498.28  1503.26
eigval :     1525.21  1530.13  1531.74  1542.34  1562.26  1563.04
eigval :     1567.35  1568.11  1575.28  1575.34  1579.53  1579.58
eigval :     1584.77  1585.83  1591.80  1591.97  1598.53  1598.75
eigval :     1603.12  1606.39  1607.59  1622.07  3063.25  3064.92
eigval :     3066.99  3067.70  3069.12  3069.22  3069.77  3070.66
eigval :     3071.13  3071.22  3071.43  3071.53  3071.78  3072.03
eigval :     3072.22  3072.63  3074.63  3075.04  3077.18  3078.26
eigval :     3078.61  3080.03  3080.41  3081.23  3081.32  3081.49
eigval :     3082.26  3082.73  3083.23  3083.30  3083.79  3084.21
eigval :     3084.33  3084.86  3085.29  3089.92  3090.91  3091.03
eigval :     3092.65  3092.81  3093.46  3093.57  3094.48  3097.47

   temp. (K)  partition function   enthalpy   heat capacity  entropy
                                   cal/mol     cal/K/mol   cal/K/mol   J/K/mol
 298.15  VIB  0.215E+28            32011.090    201.647    203.913
         ROT  0.281E+09              888.752      2.981     41.643
         INT  0.604E+36            32899.842    204.628    245.556
         TR   0.246E+29             1481.254      4.968     46.129
         TOT                       34381.0963   209.5959   291.6849  1220.4095

       T/K    H(0)-H(T)+PV         H(T)/Eh          T*S/Eh         G(T)/Eh
   ------------------------------------------------------------------------
    298.15    0.547898E-01    0.923021E+00    0.138589E+00    0.784432E+00
   ------------------------------------------------------------------------

         :::::::::::::::::::::::::::::::::::::::::::::::::::::
         ::                  THERMODYNAMIC                  ::
         :::::::::::::::::::::::::::::::::::::::::::::::::::::
         :: total free energy        -168.950839448330 Eh   ::
         ::.................................................::
         :: total energy             -169.735271471813 Eh   ::
         :: zero point energy           0.868231154717 Eh   ::
         :: G(RRHO) w/o ZPVE           -0.083799131234 Eh   ::
         :: G(RRHO) contrib.            0.784432023483 Eh   ::
         :::::::::::::::::::::::::::::::::::::::::::::::::::::

           -------------------------------------------------
          | TOTAL ENERGY             -169.735271471813 Eh   |
          | TOTAL ENTHALPY           -168.812250552596 Eh   |
          | TOTAL FREE ENERGY        -168.950839448330 Eh   |
          | GRADIENT NORM               0.000061697161 Eh/α |
          | HOMO-LUMO GAP               1.920599539002 eV   |
           -------------------------------------------------

 * finished run on 2025/09/04 at 00:05:29.827
