   * xtb version 6.7.1 (edcfbbe) compiled by 'albert@albert-system' on 2024-07-22

   ID    Z sym.   atoms
    1    6 C      1-4, 6-37, 39-68
    2    7 N      5, 38
    3    1 H      69-112

          program call               : xtb data2507/toluene/m-TPA-AP-TPA/m-TPA-AP-TPA.xyz --gfn 2 --gbsa toluene --ohess vtight --parallel 40 --molden --ceasefiles --namespace data2507/toluene/m-TPA-AP-TPA/m-TPA-AP-TPA_toluene_S0_preOpt
      * Solvation model:               GBSA
        Solvent                        toluene
        Solvent mass                       9.2140E+01 g/mol
          :  Hamiltonian                  GFN2-xTB          :
 * total energy  :  -169.6976764 Eh     change       -0.5961738E-09 Eh
 * total energy  :  -169.7207049 Eh     change       -0.2302849E-01 Eh
 * total energy  :  -169.7297753 Eh     change       -0.9070454E-02 Eh
 * total energy  :  -169.7319536 Eh     change       -0.2178307E-02 Eh
 * total energy  :  -169.7328858 Eh     change       -0.9321575E-03 Eh
 * total energy  :  -169.7333428 Eh     change       -0.4570589E-03 Eh
 * total energy  :  -169.7336858 Eh     change       -0.3429418E-03 Eh
 * total energy  :  -169.7339269 Eh     change       -0.2411596E-03 Eh
 * total energy  :  -169.7340731 Eh     change       -0.1461461E-03 Eh
 * total energy  :  -169.7341497 Eh     change       -0.7663724E-04 Eh
 * total energy  :  -169.7351814 Eh     change       -0.3009130E-05 Eh
 * total energy  :  -169.7351834 Eh     change       -0.1975583E-05 Eh
 * total energy  :  -169.7351845 Eh     change       -0.1090833E-05 Eh
 * total energy  :  -169.7351853 Eh     change       -0.8129596E-06 Eh
 * total energy  :  -169.7351859 Eh     change       -0.5728352E-06 Eh
 * total energy  :  -169.7351862 Eh     change       -0.3326906E-06 Eh
 * total energy  :  -169.7351865 Eh     change       -0.2645946E-06 Eh
 * total energy  :  -169.7351867 Eh     change       -0.2225510E-06 Eh
 * total energy  :  -169.7351867 Eh     change       -0.1047545E-07 Eh
   *** GEOMETRY OPTIMIZATION CONVERGED AFTER 89 ITERATIONS ***

 final structure:
================
112
 xtb: 6.7.1 (edcfbbe)
C           -7.37046752760738        2.71446857105274       -3.71127285426140
C           -7.47318036418022        1.34102060847876       -3.55912089819783
C           -7.94756761512317        0.80207011631269       -2.37905517297164
C           -8.31556424505800        1.63410019334886       -1.32175332811880
N           -8.78754847730356        1.08870051759012       -0.12175681534719
C           -9.81764181856252        1.72346145630130        0.58235116963552
C          -10.86729988108347        2.33933682838333       -0.09955571401915
C          -11.88045263989880        2.96573821578434        0.60041246332792
C          -11.87113321240064        2.98206258984312        1.98597393157943
C          -10.83285312768560        2.36877933031072        2.66851284562030
C           -9.81040302561920        1.74796124049469        1.97721507509950
C           -8.23052581383331       -0.09664244231854        0.37303407886014
C           -9.03573185136307       -1.05325248187115        0.99184822303869
C           -8.47565946561399       -2.21837525316672        1.48001744377068
C           -7.11678877102501       -2.45190970189632        1.35885065121003
C           -6.30192716984280       -1.50760858629645        0.73965319568007
C           -4.84665588895704       -1.74596074138492        0.61250927961402
C           -4.02915769670958       -1.68451510784737        1.75010975395483
C           -4.54924655037869       -1.35843889648747        3.03080751356711
C           -3.74421375122642       -1.30080773962724        4.12673579910388
C           -2.36299482583616       -1.55876485462274        4.01064418645602
C           -1.82182051838463       -1.86178626988160        2.79949879884076
C           -2.62641036093700       -1.93463039348722        1.63156329259829
C           -2.07398099101874       -2.22857470744406        0.37789438923781
C           -0.62269051166795       -2.50615163777304        0.26697975226240
C           -0.15251483351141       -3.78473163656763        0.54413083210443
C            1.19398700874437       -4.08076182036035        0.47230282380698
C            2.12174807156566       -3.09926405778303        0.11907763502390
C            3.52107119446175       -3.36070664893987        0.06468004433124
C            4.40498274993480       -2.39793137979621       -0.28591122165407
C            3.97475927766108       -1.08033850888173       -0.62666731330548
C            4.87337221103921       -0.06634180205924       -1.00405521162237
C            6.31452598815719       -0.32334618310051       -1.17671787493740
C            6.76815467866153       -1.30906529641400       -2.05182242111749
C            8.12630084455151       -1.51423751961833       -2.21864735511412
C            9.04595062232952       -0.74590080768386       -1.53008998096498
C            8.60748813785499        0.24959703285671       -0.65670296437034
N            9.52648774958160        1.04311603861859        0.04037559825200
C            9.26053109469883        2.40366739738249        0.23813820744725
C            8.64514481767675        3.15570803632492       -0.76288451607328
C            8.37651088009983        4.49594820740572       -0.56245322937034
C            8.72322590524599        5.11057953959143        0.63013501308100
C            9.34069659088821        4.37009304825876        1.62537909145047
C            9.60497406616161        3.02687776219543        1.43761023201245
C           10.71026554908039        0.48034357356361        0.53102369520453
C           11.90176489408884        1.20567467193027        0.50777415835995
C           13.06743452335052        0.64631446424340        0.99471193530172
C           13.06923873125186       -0.64267823658687        1.50336806767886
C           11.88940285270103       -1.36895894419156        1.52560027425185
C           10.71681640179282       -0.81506768383981        1.04900250233368
C            7.23916442546409        0.45131177208944       -0.48918026144491
C            4.39666937472710        1.22005164208038       -1.24030213313512
C            3.05303617220840        1.51725635558549       -1.15140512276539
C            2.12653466724518        0.52927260173066       -0.81337385911386
C            0.73018251388541        0.79962647864338       -0.72676207660599
C           -0.15389870356303       -0.16563990894682       -0.38546081662033
C            0.27948420444143       -1.49394530271931       -0.09777494861101
C            1.66362081209469       -1.79135095656572       -0.17539411047945
C            2.59019611410125       -0.78133382696051       -0.53916512269144
C           -2.88850223232533       -2.28047487617854       -0.76063728973818
C           -2.35508780015018       -2.57642846880326       -2.04299077239913
C           -3.15557096406111       -2.63945896634643       -3.14153154148119
C           -4.54344851647875       -2.42100210494643       -3.02246921083073
C           -5.09297653584081       -2.13500686694419       -1.81084127256519
C           -4.29317657958687       -2.04126084603237       -0.64141314657045
C           -6.86275208756456       -0.33575241621133        0.25202778964272
C           -8.20599094897356        3.01578686113041       -1.47900824886630
C           -7.74245775272854        3.54658647434749       -2.66753976148177
H           -7.00364908442357        3.13315864894927       -4.63645709702199
H           -7.19118598349730        0.68415406002305       -4.36912294675104
H           -8.04257237206852       -0.26824845327871       -2.26875686773117
H          -10.88268921239262        2.31975984322372       -1.17971743183060
H          -12.68832963332529        3.43668367913163        0.05916840925369
H          -12.66690467440126        3.46883427663652        2.52963094449017
H          -10.81361391368850        2.38136465589089        3.74874945358771
H           -8.99720077296868        1.27936005552010        2.51241022001205
H          -10.09743299947779       -0.87712616508613        1.08315728268337
H           -9.10779056713931       -2.95584982467532        1.95314560340952
H           -6.68168516045542       -3.36520711776306        1.73695153325316
H           -5.60554907962112       -1.15165883687954        3.11935986936227
H           -4.15628382364107       -1.05201934634206        5.09413233410076
H           -1.73847328279249       -1.50675045980683        4.89081966577397
H           -0.76195676683996       -2.04857437539389        2.70523235785467
H           -0.86083352878927       -4.55243424435848        0.82331382376618
H            1.54047442619326       -5.07992348638360        0.69541828150358
H            3.86351757432376       -4.35341648378217        0.32193519420551
H            5.46334222979467       -2.61139966436635       -0.30037621925887
H            6.05497335819632       -1.89661226366760       -2.61091037617786
H            8.47423502362290       -2.27471536231728       -2.90279300577122
H           10.10505133275219       -0.90517316452531       -1.66954158311537
H            8.38392702493434        2.68093593385386       -1.69774492136575
H            7.90132019911470        5.06694189812240       -1.34721934598363
H            8.51489437964027        6.15906963836151        0.78206686290472
H            9.61132290001364        4.83971419729160        2.56007908789371
H           10.07796680446340        2.44986853937083        2.21914015869915
H           11.90589197888960        2.20730419181399        0.10258348181018
H           13.98340380795738        1.21876188384074        0.96827721719882
H           13.98304924357036       -1.07727161163361        1.88000256648892
H           11.87917619606143       -2.37253250757418        1.92592753784285
H            9.79654262407650       -1.38043912903801        1.07700573989242
H            6.89369551898867        1.21097468271533        0.19748918240090
H            5.09921894121142        1.99262151267185       -1.51942064447163
H            2.70597595362338        2.52122080428938       -1.35078419378472
H            0.39260241664038        1.80423557459691       -0.94020865400113
H           -1.21040042181257        0.05153501890504       -0.32075120261572
H           -1.29238594865298       -2.75149189762042       -2.12851791569166
H           -2.73587920988922       -2.86376838568609       -4.11155702903740
H           -5.16651257545343       -2.48905340926437       -3.90259419526373
H           -6.15698849931825       -1.97880528060365       -1.71714694416431
H           -6.23041474170959        0.40305316036980       -0.21980244013121
H           -8.48495820889212        3.66708964492464       -0.66331610244699
H           -7.66232354230095        4.61872482419796       -2.77549186859459

          :  Hamiltonian                  GFN2-xTB          :
         :: gradient norm              0.000100657810 Eh/a0 ::
         :: HOMO-LUMO gap              1.907870001112 eV    ::
         :: SCC energy              -173.015778240165 Eh    ::
         :: -> dispersion             -0.167145644953 Eh    ::
         :: -> Gsolv                  -0.067200949754 Eh    ::
         :: repulsion energy           3.280591550100 Eh    ::

    * Orbital Energies and Occupations

         #    Occupation            Energy/Eh            Energy/eV
      -------------------------------------------------------------
         1        2.0000           -0.6640688             -18.0702
       ...           ...                  ...                  ...
       147        2.0000           -0.4050112             -11.0209
       148        2.0000           -0.4048882             -11.0176
       149        2.0000           -0.4035929             -10.9823
       150        2.0000           -0.4034063             -10.9772
       151        2.0000           -0.3995004             -10.8710
       152        2.0000           -0.3984787             -10.8432
       153        2.0000           -0.3977613             -10.8236
       154        2.0000           -0.3973485             -10.8124
       155        2.0000           -0.3899567             -10.6113
       156        2.0000           -0.3616258              -9.8403
       157        2.0000           -0.3577760              -9.7356
       158        2.0000           -0.3493593              -9.5066
       159        2.0000           -0.3491777              -9.5016 (HOMO)
       160                         -0.2790647              -7.5937 (LUMO)
       161                         -0.2764132              -7.5216
       162                         -0.2425144              -6.5992
       163                         -0.2310930              -6.2884
       164                         -0.2303462              -6.2680
       165                         -0.2298870              -6.2555
       166                         -0.2298485              -6.2545
       167                         -0.2297755              -6.2525
       168                         -0.2272796              -6.1846
       169                         -0.2271842              -6.1820
       170                         -0.2226463              -6.0585
       ...                                ...                  ...
       316                          0.7302723              19.8717
      -------------------------------------------------------------
                  HL-Gap            0.0701129 Eh            1.9079 eV

     #   Z          covCN         q      C6AA      α(0)
     1   6 C        2.919    -0.040    28.983     8.828
     2   6 C        2.919    -0.030    28.748     8.792
     3   6 C        2.923    -0.047    29.171     8.857
     4   6 C        2.923     0.066    26.522     8.445
     5   7 N        2.752    -0.082    22.826     7.096
     6   6 C        2.923     0.066    26.522     8.445
     7   6 C        2.922    -0.048    29.200     8.861
     8   6 C        2.919    -0.030    28.758     8.794
     9   6 C        2.919    -0.040    28.986     8.829
    10   6 C        2.919    -0.030    28.759     8.794
    11   6 C        2.922    -0.048    29.195     8.861
    12   6 C        2.922     0.066    26.530     8.447
    13   6 C        2.922    -0.051    29.264     8.871
    14   6 C        2.917    -0.031    28.774     8.796
    15   6 C        2.923    -0.042    29.048     8.838
    16   6 C        2.976     0.016    27.657     8.627
    17   6 C        2.977    -0.006    28.176     8.707
    18   6 C        2.983     0.005    27.898     8.664
    19   6 C        2.917    -0.035    28.868     8.811
    20   6 C        2.914    -0.031    28.771     8.796
    21   6 C        2.914    -0.031    28.771     8.796
    22   6 C        2.917    -0.034    28.845     8.807
    23   6 C        2.984     0.005    27.893     8.663
    24   6 C        2.978    -0.004    28.110     8.697
    25   6 C        2.977     0.008    27.843     8.656
    26   6 C        2.919    -0.034    28.850     8.808
    27   6 C        2.918    -0.039    28.968     8.826
    28   6 C        2.982     0.008    27.842     8.655
    29   6 C        2.913    -0.038    28.943     8.822
    30   6 C        2.912    -0.037    28.913     8.817
    31   6 C        2.982     0.006    27.880     8.661
    32   6 C        2.977     0.002    27.977     8.676
    33   6 C        2.977     0.012    27.734     8.638
    34   6 C        2.923    -0.042    29.055     8.839
    35   6 C        2.917    -0.031    28.783     8.798
    36   6 C        2.922    -0.051    29.254     8.870
    37   6 C        2.922     0.066    26.527     8.446
    38   7 N        2.752    -0.082    22.828     7.096
    39   6 C        2.923     0.066    26.520     8.445
    40   6 C        2.922    -0.048    29.188     8.860
    41   6 C        2.919    -0.030    28.757     8.794
    42   6 C        2.919    -0.040    28.982     8.828
    43   6 C        2.919    -0.030    28.755     8.794
    44   6 C        2.922    -0.048    29.192     8.860
    45   6 C        2.923     0.066    26.523     8.446
    46   6 C        2.922    -0.048    29.203     8.862
    47   6 C        2.919    -0.030    28.760     8.794
    48   6 C        2.919    -0.040    28.989     8.829
    49   6 C        2.919    -0.030    28.760     8.794
    50   6 C        2.922    -0.048    29.200     8.861
    51   6 C        2.928    -0.053    29.313     8.879
    52   6 C        2.921    -0.035    28.881     8.813
    53   6 C        2.918    -0.039    28.960     8.825
    54   6 C        2.982     0.009    27.822     8.652
    55   6 C        2.913    -0.037    28.920     8.818
    56   6 C        2.913    -0.034    28.850     8.808
    57   6 C        2.984     0.006    27.879     8.661
    58   6 C        2.995     0.001    27.992     8.679
    59   6 C        2.995     0.001    27.986     8.678
    60   6 C        2.984     0.006    27.887     8.662
    61   6 C        2.917    -0.034    28.835     8.806
    62   6 C        2.914    -0.031    28.771     8.796
    63   6 C        2.914    -0.031    28.761     8.794
    64   6 C        2.917    -0.034    28.850     8.808
    65   6 C        2.983     0.005    27.904     8.665
    66   6 C        2.927    -0.051    29.266     8.872
    67   6 C        2.922    -0.048    29.199     8.861
    68   6 C        2.919    -0.030    28.757     8.794
    69   1 H        0.926     0.031     2.569     2.506
    70   1 H        0.926     0.033     2.545     2.495
    71   1 H        0.926     0.029     2.594     2.519
    72   1 H        0.926     0.031     2.574     2.509
    73   1 H        0.926     0.033     2.548     2.496
    74   1 H        0.926     0.031     2.568     2.506
    75   1 H        0.926     0.033     2.547     2.496
    76   1 H        0.926     0.030     2.579     2.511
    77   1 H        0.926     0.031     2.570     2.507
    78   1 H        0.926     0.034     2.533     2.489
    79   1 H        0.926     0.031     2.578     2.511
    80   1 H        0.926     0.031     2.568     2.506
    81   1 H        0.926     0.030     2.585     2.514
    82   1 H        0.926     0.030     2.590     2.516
    83   1 H        0.926     0.030     2.593     2.518
    84   1 H        0.925     0.029     2.598     2.521
    85   1 H        0.926     0.033     2.544     2.494
    86   1 H        0.926     0.032     2.563     2.503
    87   1 H        0.926     0.035     2.522     2.483
    88   1 H        0.926     0.033     2.545     2.495
    89   1 H        0.926     0.034     2.535     2.490
    90   1 H        0.926     0.031     2.570     2.507
    91   1 H        0.926     0.030     2.583     2.513
    92   1 H        0.926     0.033     2.550     2.497
    93   1 H        0.926     0.031     2.566     2.505
    94   1 H        0.926     0.033     2.547     2.496
    95   1 H        0.926     0.031     2.574     2.509
    96   1 H        0.926     0.031     2.578     2.511
    97   1 H        0.926     0.033     2.550     2.497
    98   1 H        0.926     0.031     2.569     2.507
    99   1 H        0.926     0.033     2.548     2.496
   100   1 H        0.926     0.031     2.576     2.510
   101   1 H        0.926     0.031     2.570     2.507
   102   1 H        0.926     0.031     2.567     2.505
   103   1 H        0.926     0.033     2.547     2.496
   104   1 H        0.926     0.031     2.569     2.506
   105   1 H        0.926     0.029     2.599     2.521
   106   1 H        0.926     0.029     2.595     2.519
   107   1 H        0.926     0.030     2.589     2.516
   108   1 H        0.926     0.030     2.586     2.515
   109   1 H        0.926     0.030     2.581     2.512
   110   1 H        0.926     0.030     2.589     2.516
   111   1 H        0.926     0.031     2.576     2.510
   112   1 H        0.926     0.033     2.549     2.497

molecular dipole:
                 x           y           z       tot (Debye)
 q only:        0.011       0.006      -0.014
   full:        0.017       0.034      -0.009       0.100

 projected vibrational frequencies (cm⁻¹)
eigval :       -0.00    -0.00    -0.00    -0.00     0.00     0.00
eigval :        4.85     6.58     8.62    12.74    15.60    17.27
eigval :       21.89    30.83    34.25    46.64    49.49    54.14
eigval :       56.48    59.82    62.44    62.89    68.66    77.14
eigval :       78.19    78.84    88.05    95.31    96.54   110.72
eigval :      114.29   126.70   142.75   152.15   176.66   194.58
eigval :      201.12   205.69   212.73   213.45   214.76   225.13
eigval :      231.07   233.48   236.87   242.96   255.44   261.62
eigval :      283.20   289.38   291.23   321.67   325.74   326.45
eigval :      330.19   356.70   365.60   374.03   377.79   377.91
eigval :      382.89   383.58   386.60   393.16   395.77   399.28
eigval :      405.11   410.22   419.59   429.76   431.75   446.71
eigval :      460.43   461.43   473.83   475.93   476.11   477.98
eigval :      488.97   490.90   498.35   505.56   512.17   521.22
eigval :      540.88   551.77   565.92   579.24   581.73   582.23
eigval :      584.40   589.56   590.96   593.45   598.97   599.72
eigval :      605.16   616.43   619.86   631.93   646.28   648.88
eigval :      653.69   657.39   660.55   661.01   661.60   665.71
eigval :      671.84   673.71   675.83   680.75   692.42   694.25
eigval :      700.25   727.56   739.21   745.75   748.01   755.05
eigval :      755.66   760.11   761.82   764.28   774.97   776.22
eigval :      791.03   796.30   801.63   805.92   822.60   844.25
eigval :      845.32   851.40   871.08   873.50   874.94   875.64
eigval :      876.78   877.26   883.78   886.28   887.49   888.08
eigval :      889.80   890.76   891.26   893.72   895.76   897.99
eigval :      909.57   909.65   915.22   916.13   917.37   919.10
eigval :      920.34   923.17   924.22   924.68   925.78   926.22
eigval :      926.42   928.48   929.18   929.49   929.53   930.20
eigval :      930.53   931.97   932.26   933.51   974.54   976.25
eigval :      991.11   995.43   998.00  1003.70  1004.06  1016.04
eigval :     1026.66  1077.47  1079.36  1081.62  1082.40  1083.00
eigval :     1083.38  1085.12  1109.91  1119.84  1120.03  1122.17
eigval :     1122.80  1127.47  1129.10  1134.52  1140.69  1150.88
eigval :     1164.26  1174.52  1178.05  1179.63  1180.24  1180.34
eigval :     1180.43  1180.59  1182.98  1185.10  1187.01  1187.94
eigval :     1193.24  1193.50  1195.68  1197.69  1200.36  1210.94
eigval :     1221.36  1225.69  1226.17  1236.67  1252.09  1257.36
eigval :     1259.24  1262.41  1264.57  1276.30  1277.04  1277.35
eigval :     1280.46  1285.86  1304.77  1307.63  1309.51  1312.19
eigval :     1313.05  1313.89  1315.09  1322.33  1323.71  1324.76
eigval :     1325.29  1327.44  1329.98  1348.77  1355.24  1375.30
eigval :     1377.78  1383.12  1383.86  1405.10  1413.59  1418.90
eigval :     1424.58  1426.80  1428.29  1435.53  1435.65  1441.55
eigval :     1442.19  1446.98  1450.73  1467.12  1468.13  1471.08
eigval :     1471.54  1473.92  1474.14  1486.17  1497.80  1502.52
eigval :     1525.56  1529.49  1531.80  1542.34  1561.66  1562.91
eigval :     1567.43  1568.58  1575.30  1575.53  1579.41  1579.82
eigval :     1584.55  1585.48  1591.57  1592.07  1598.30  1598.85
eigval :     1602.77  1606.35  1607.76  1622.15  3064.32  3064.87
eigval :     3066.33  3067.36  3069.07  3069.28  3069.84  3070.54
eigval :     3070.68  3071.08  3071.10  3071.82  3071.85  3072.33
eigval :     3072.36  3073.12  3075.29  3075.37  3077.07  3078.48
eigval :     3079.35  3080.18  3081.18  3081.26  3081.49  3081.98
eigval :     3082.05  3082.76  3083.21  3083.26  3083.82  3084.09
eigval :     3084.59  3084.82  3085.97  3089.56  3090.58  3090.88
eigval :     3091.25  3092.66  3093.25  3093.41  3093.83  3094.59

   temp. (K)  partition function   enthalpy   heat capacity  entropy
                                   cal/mol     cal/K/mol   cal/K/mol   J/K/mol
 298.15  VIB  0.265E+27            31927.666    201.826    201.801
         ROT  0.310E+09              888.752      2.981     41.835
         INT  0.821E+35            32816.418    204.807    243.636
         TR   0.246E+29             1481.254      4.968     46.129
         TOT                       34297.6721   209.7748   289.7645  1212.3746

       T/K    H(0)-H(T)+PV         H(T)/Eh          T*S/Eh         G(T)/Eh
   ------------------------------------------------------------------------
    298.15    0.546568E-01    0.923244E+00    0.137676E+00    0.785568E+00
   ------------------------------------------------------------------------

         :::::::::::::::::::::::::::::::::::::::::::::::::::::
         ::                  THERMODYNAMIC                  ::
         :::::::::::::::::::::::::::::::::::::::::::::::::::::
         :: total free energy        -168.949619183217 Eh   ::
         ::.................................................::
         :: total energy             -169.735186688913 Eh   ::
         :: zero point energy           0.868587143417 Eh   ::
         :: G(RRHO) w/o ZPVE           -0.083019637721 Eh   ::
         :: G(RRHO) contrib.            0.785567505696 Eh   ::
         :::::::::::::::::::::::::::::::::::::::::::::::::::::

           -------------------------------------------------
          | TOTAL ENERGY             -169.735186688913 Eh   |
          | TOTAL ENTHALPY           -168.811942725918 Eh   |
          | TOTAL FREE ENERGY        -168.949619183217 Eh   |
          | GRADIENT NORM               0.000100624174 Eh/α |
          | HOMO-LUMO GAP               1.907870357217 eV   |
           -------------------------------------------------

 * finished run on 2025/09/03 at 23:49:55.472
