   * xtb version 6.7.1 (edcfbbe) compiled by 'albert@albert-system' on 2024-07-22

   ID    Z sym.   atoms
    1    6 C      1-4, 6-37, 39-68
    2    7 N      5, 38
    3    1 H      69-112

          program call               : xtb data2507/toluene/m-TPA-AP-TPA/m-TPA-AP-TPA_toluene_S0_finalOpt.xtbopt.xyz --gfn 2 --uhf 2 --gbsa toluene --ohess vtight --parallel 40 --molden --ceasefiles --namespace data2507/toluene/m-TPA-AP-TPA/m-TPA-AP-TPA_toluene_T1_preOpt
      * Solvation model:               GBSA
        Solvent                        toluene
        Solvent mass                       9.2140E+01 g/mol
          :  Hamiltonian                  GFN2-xTB          :
 * total energy  :  -169.6587437 Eh     change       -0.3131819E-07 Eh
 * total energy  :  -169.6624199 Eh     change       -0.3676249E-02 Eh
 * total energy  :  -169.6641042 Eh     change       -0.1684241E-02 Eh
 * total energy  :  -169.6642808 Eh     change       -0.1766893E-03 Eh
 * total energy  :  -169.6645045 Eh     change       -0.2236906E-03 Eh
 * total energy  :  -169.6646122 Eh     change       -0.1076481E-03 Eh
 * total energy  :  -169.6649092 Eh     change       -0.2970031E-03 Eh
 * total energy  :  -169.6653688 Eh     change       -0.4596398E-03 Eh
 * total energy  :  -169.6658465 Eh     change       -0.4777006E-03 Eh
 * total energy  :  -169.6662493 Eh     change       -0.4027933E-03 Eh
 * total energy  :  -169.6698216 Eh     change       -0.1368994E-05 Eh
 * total energy  :  -169.6698229 Eh     change       -0.1300862E-05 Eh
 * total energy  :  -169.6698241 Eh     change       -0.1220283E-05 Eh
 * total energy  :  -169.6698253 Eh     change       -0.1238859E-05 Eh
 * total energy  :  -169.6698267 Eh     change       -0.1316513E-05 Eh
 * total energy  :  -169.6698281 Eh     change       -0.1463193E-05 Eh
 * total energy  :  -169.6698294 Eh     change       -0.1310253E-05 Eh
 * total energy  :  -169.6698305 Eh     change       -0.1100663E-05 Eh
 * total energy  :  -169.6698306 Eh     change       -0.1938594E-07 Eh
   *** GEOMETRY OPTIMIZATION CONVERGED AFTER 122 ITERATIONS ***

 final structure:
================
112
 xtb: 6.7.1 (edcfbbe)
C          -12.62315583978788        0.49525081855624       -1.44121651398263
C          -12.33915736214289        1.61534592557331       -0.67612020338415
C          -11.08468548084823        1.78629280643795       -0.12342484451377
C          -10.08614586012316        0.83538730625251       -0.33751957579356
N           -8.81320866279329        1.00648853281847        0.21733035950574
C           -8.24516547805251        2.28377185349334        0.29434156334824
C           -8.43057751885819        3.20677911365282       -0.73513181769066
C           -7.87297495987594        4.46781121920145       -0.64748601431057
C           -7.11838890418766        4.82687282100386        0.45796976807233
C           -6.92812070263817        3.91264906368498        1.48168775441029
C           -7.48821070934462        2.65217231103812        1.40650136801287
C           -8.09883731191417       -0.10490350053091        0.68153165715701
C           -8.75784338484613       -1.13288949318509        1.35829695040442
C           -8.04724442926352       -2.23267184395785        1.80192504332609
C           -6.68612719986602       -2.32921342906270        1.57719804300497
C           -6.00981412365643       -1.30814954771915        0.90544697460937
C           -4.56722271096339       -1.41220342969037        0.64515294862912
C           -3.67050082682873       -0.47531344515451        1.22141574909471
C           -4.12397677752742        0.51349136645135        2.11349636836229
C           -3.24921391710730        1.36598056842293        2.75451712146772
C           -1.88254422283627        1.23116783580314        2.55125083055163
C           -1.40570415624480        0.25940908488118        1.69222031692659
C           -2.26926829644773       -0.58458226595280        0.97948128403004
C           -1.76697288185842       -1.62296389776156        0.12984199604257
C           -0.35133173332124       -1.76693012608956       -0.10456519484191
C            0.26693163075040       -2.99454705760552        0.20288958490571
C            1.62060303973701       -3.16203996915606        0.11696168590118
C            2.45561927780419       -2.12081196931090       -0.34642146911311
C            3.85008757683759       -2.27606070434826       -0.46307128096047
C            4.64095127301095       -1.26568324402520       -0.93352012427137
C            4.08884169123826       -0.02436866118855       -1.33096702586888
C            4.88152316331031        1.02821031590886       -1.84952084710285
C            6.34833109991293        0.95195322247839       -1.91319530531981
C            7.00451686774282        1.21118031940588       -3.11713397855798
C            8.38585397038745        1.18268299681470       -3.17834810841102
C            9.13444339413828        0.91265369616672       -2.04845301364022
C            8.49521897361526        0.67108110713899       -0.83144570706727
N            9.24641700449507        0.42343970838858        0.32458056648054
C           10.43265440639847        1.12937576336207        0.55187808234876
C           10.54331220719528        2.46912245687457        0.17719817429617
C           11.71926832193183        3.15950163091995        0.39823399736729
C           12.79856109653298        2.53384399711959        1.00167050021536
C           12.69273075202769        1.20491561002458        1.38017195212422
C           11.52412468089788        0.50331566211116        1.15533061661159
C            8.80268274403013       -0.52259913429031        1.25629778141714
C            8.21396976830944       -1.71229320391662        0.82773027373102
C            7.77579253449460       -2.64395324743652        1.74872876486314
C            7.92188395916892       -2.41067018670749        3.10673893160884
C            8.51095029100509       -1.23284559766842        3.53816256297412
C            8.94577263250847       -0.29198008654236        2.62474190055301
C            7.10368473939940        0.68744747842622       -0.77572151041402
C            4.26222324875163        2.18619369659481       -2.31798447121245
C            2.89809923621248        2.35017182387495       -2.25592937569178
C            2.07936424100399        1.34073440973459       -1.71968097285550
C            0.67367712602223        1.46876506413770       -1.65891970360476
C           -0.10582484589769        0.47867782139100       -1.13375711204267
C            0.46029083337627       -0.71031285927915       -0.62267981180729
C            1.86262871035747       -0.89248196150113       -0.73426948747466
C            2.67934315476941        0.14348893832886       -1.25560388280967
C           -2.67944533461117       -2.56722588488055       -0.44044406829386
C           -2.25067593367664       -3.53250755074141       -1.36322053001891
C           -3.13223098853108       -4.42531400821004       -1.94602420106924
C           -4.48708093135060       -4.34729951425769       -1.65797340490690
C           -4.95193978024914       -3.36459189054112       -0.80694852442742
C           -4.07733227803439       -2.46147845769570       -0.17521706198547
C           -6.72632871615205       -0.19890995149227        0.46732276003488
C          -10.37667176323523       -0.28882845037828       -1.11125995242346
C          -11.63665601103392       -0.45455805091731       -1.65311569662505
H          -13.60553672136220        0.36390839546227       -1.86939662025620
H          -13.10348939261908        2.35844416715224       -0.50032144382379
H          -10.86924391805834        2.65557317155681        0.48079559072382
H           -9.01098727154947        2.92626701471473       -1.60210966674940
H           -8.02253820691821        5.17257720014896       -1.45263694874862
H           -6.68248864379163        5.81256895018199        0.52189770758419
H           -6.34875871209874        4.18789442545641        2.35072538031911
H           -7.35227749044972        1.94561858375246        2.21235085538557
H           -9.82058562491953       -1.05881261822896        1.53509490723912
H           -8.56134588512671       -3.02052277291785        2.33320184710992
H           -6.13294151339935       -3.18513749281498        1.93474963944791
H           -5.18161808539343        0.58915539641587        2.31165964575882
H           -3.62636953559792        2.11876957272038        3.43099659160696
H           -1.18748506810963        1.87309029358485        3.07242314308708
H           -0.33923087365800        0.14403728380652        1.57283426691023
H           -0.34787348253003       -3.79197212105608        0.59677475841273
H            2.07406044578105       -4.09427796597925        0.42267993233363
H            4.28759997952439       -3.22396294695054       -0.18308213599261
H            5.70472606083643       -1.41664714186731       -1.03008799766237
H            6.42468674130782        1.41413259628078       -4.00532050808758
H            8.88672167383698        1.36737925419178       -4.11770944066680
H           10.21297148249603        0.88817993801081       -2.09817869085596
H            9.70016127696607        2.96303933588527       -0.28347318254175
H           11.78991149069457        4.19684655764802        0.10450974124190
H           13.71484541323744        3.07768691114522        1.17580026962843
H           13.53031929099321        0.70681705844422        1.84659803685429
H           11.44866959147015       -0.53551159782052        1.44231459401120
H            8.11408390231127       -1.90218146282396       -0.23119701697605
H            7.32786744806598       -3.56424248502751        1.40357136246608
H            7.58083715414010       -3.14230828811633        3.82376474128067
H            8.62578791738323       -1.04069322826774        4.59511794831348
H            9.39597013611050        0.62981982147682        2.96345295095481
H            6.60746975176579        0.52329380715006        0.17023958784455
H            4.87990415490254        2.97896846063044       -2.71688964691073
H            2.44043446654785        3.26003128168555       -2.61693226468263
H            0.21992040637481        2.37029931167673       -2.04591732115949
H           -1.17925338788588        0.59570067119523       -1.10826058550512
H           -1.20794394071231       -3.57302687203542       -1.63895643694229
H           -2.76370065194537       -5.16776134767908       -2.63870215696691
H           -5.18216903531691       -5.03504716343437       -2.11735935184390
H           -6.01303941617614       -3.27464359693267       -0.63162535115878
H           -6.21498970398065        0.58868966049836       -0.06772913181821
H           -9.60644895151816       -1.02554063666746       -1.28795853558931
H          -11.84666405909656       -1.32808891068506       -2.25323445138503

          :  Hamiltonian                  GFN2-xTB          :
         :: gradient norm              0.000072399096 Eh/a0 ::
         :: HOMO-LUMO gap              0.434159931657 eV    ::
         :: SCC energy              -172.930981155203 Eh    ::
         :: -> dispersion             -0.168788522697 Eh    ::
         :: -> Gsolv                  -0.066443845081 Eh    ::
         :: repulsion energy           3.261150602101 Eh    ::

    * Orbital Energies and Occupations

         #    Occupation            Energy/Eh            Energy/eV
      -------------------------------------------------------------
         1        2.0000           -0.6662684             -18.1301
       ...           ...                  ...                  ...
       148        2.0000           -0.4047710             -11.0144
       149        2.0000           -0.4015592             -10.9270
       150        2.0000           -0.4001374             -10.8883
       151        2.0000           -0.3997263             -10.8771
       152        2.0000           -0.3986825             -10.8487
       153        2.0000           -0.3976811             -10.8215
       154        2.0000           -0.3954905             -10.7618
       155        2.0000           -0.3880134             -10.5584
       156        2.0000           -0.3612704              -9.8307
       157        1.9797           -0.3516623              -9.5692
       158        1.9598           -0.3509963              -9.5511
       159        1.0605           -0.3453748              -9.3981
       160        0.9998           -0.2878430              -7.8326 (HOMO)
       161        0.0002           -0.2718883              -7.3985 (LUMO)
       162                         -0.2384606              -6.4888
       163                         -0.2321846              -6.3181
       164                         -0.2314438              -6.2979
       165                         -0.2313392              -6.2951
       166                         -0.2308597              -6.2820
       167                         -0.2287418              -6.2244
       168                         -0.2281911              -6.2094
       169                         -0.2261240              -6.1531
       170                         -0.2238865              -6.0923
       171                         -0.2237153              -6.0876
       ...                                ...                  ...
       316                          0.7239003              19.6983
      -------------------------------------------------------------
                  HL-Gap            0.0159548 Eh            0.4342 eV

     #   Z          covCN         q      C6AA      α(0)
     1   6 C        2.919    -0.039    28.962     8.825
     2   6 C        2.919    -0.030    28.745     8.792
     3   6 C        2.922    -0.048    29.183     8.859
     4   6 C        2.923     0.066    26.525     8.446
     5   7 N        2.752    -0.077    22.726     7.080
     6   6 C        2.923     0.066    26.526     8.446
     7   6 C        2.922    -0.047    29.171     8.857
     8   6 C        2.919    -0.030    28.741     8.791
     9   6 C        2.919    -0.038    28.949     8.823
    10   6 C        2.919    -0.029    28.725     8.789
    11   6 C        2.922    -0.046    29.138     8.852
    12   6 C        2.922     0.066    26.533     8.447
    13   6 C        2.922    -0.049    29.213     8.863
    14   6 C        2.916    -0.031    28.766     8.795
    15   6 C        2.923    -0.040    28.983     8.828
    16   6 C        2.974     0.017    27.629     8.622
    17   6 C        2.975    -0.012    28.312     8.728
    18   6 C        2.978     0.006    27.875     8.660
    19   6 C        2.921    -0.039    28.964     8.826
    20   6 C        2.914    -0.032    28.804     8.801
    21   6 C        2.915    -0.033    28.819     8.803
    22   6 C        2.921    -0.036    28.905     8.816
    23   6 C        2.977     0.007    27.857     8.658
    24   6 C        2.972    -0.008    28.205     8.711
    25   6 C        2.972     0.004    27.923     8.668
    26   6 C        2.917    -0.034    28.835     8.806
    27   6 C        2.914    -0.042    29.053     8.839
    28   6 C        2.981     0.007    27.863     8.659
    29   6 C        2.914    -0.040    28.989     8.829
    30   6 C        2.914    -0.040    28.984     8.828
    31   6 C        2.980     0.005    27.905     8.665
    32   6 C        2.975    -0.002    28.076     8.691
    33   6 C        2.976     0.013    27.714     8.635
    34   6 C        2.924    -0.043    29.060     8.840
    35   6 C        2.917    -0.031    28.764     8.795
    36   6 C        2.922    -0.050    29.237     8.867
    37   6 C        2.922     0.065    26.546     8.449
    38   7 N        2.752    -0.077    22.729     7.081
    39   6 C        2.923     0.066    26.523     8.446
    40   6 C        2.922    -0.048    29.183     8.859
    41   6 C        2.919    -0.030    28.746     8.792
    42   6 C        2.919    -0.039    28.964     8.825
    43   6 C        2.919    -0.030    28.747     8.792
    44   6 C        2.922    -0.048    29.186     8.859
    45   6 C        2.923     0.066    26.523     8.446
    46   6 C        2.922    -0.046    29.136     8.852
    47   6 C        2.919    -0.029    28.722     8.789
    48   6 C        2.919    -0.038    28.946     8.823
    49   6 C        2.919    -0.030    28.740     8.791
    50   6 C        2.922    -0.047    29.169     8.857
    51   6 C        2.926    -0.051    29.268     8.872
    52   6 C        2.919    -0.036    28.888     8.814
    53   6 C        2.916    -0.042    29.042     8.837
    54   6 C        2.981     0.007    27.846     8.656
    55   6 C        2.915    -0.040    28.998     8.830
    56   6 C        2.915    -0.035    28.882     8.813
    57   6 C        2.979     0.005    27.903     8.665
    58   6 C        2.993     0.000    28.008     8.681
    59   6 C        2.995     0.000    28.017     8.683
    60   6 C        2.978     0.006    27.886     8.662
    61   6 C        2.921    -0.038    28.945     8.823
    62   6 C        2.915    -0.033    28.833     8.805
    63   6 C        2.914    -0.032    28.805     8.801
    64   6 C        2.921    -0.040    28.985     8.829
    65   6 C        2.978     0.007    27.860     8.658
    66   6 C        2.927    -0.051    29.264     8.871
    67   6 C        2.922    -0.048    29.180     8.858
    68   6 C        2.919    -0.030    28.745     8.792
    69   1 H        0.926     0.033     2.549     2.497
    70   1 H        0.926     0.034     2.529     2.487
    71   1 H        0.926     0.032     2.554     2.499
    72   1 H        0.926     0.032     2.552     2.498
    73   1 H        0.926     0.034     2.527     2.486
    74   1 H        0.926     0.033     2.546     2.495
    75   1 H        0.926     0.034     2.525     2.485
    76   1 H        0.926     0.031     2.578     2.511
    77   1 H        0.926     0.033     2.538     2.491
    78   1 H        0.926     0.036     2.508     2.477
    79   1 H        0.926     0.034     2.531     2.488
    80   1 H        0.926     0.030     2.580     2.512
    81   1 H        0.926     0.028     2.609     2.526
    82   1 H        0.926     0.028     2.620     2.531
    83   1 H        0.926     0.029     2.602     2.523
    84   1 H        0.925     0.031     2.573     2.508
    85   1 H        0.926     0.030     2.588     2.516
    86   1 H        0.926     0.029     2.606     2.524
    87   1 H        0.926     0.032     2.564     2.504
    88   1 H        0.926     0.033     2.546     2.495
    89   1 H        0.926     0.035     2.522     2.484
    90   1 H        0.926     0.033     2.550     2.497
    91   1 H        0.926     0.032     2.559     2.502
    92   1 H        0.926     0.034     2.532     2.488
    93   1 H        0.926     0.033     2.550     2.497
    94   1 H        0.926     0.034     2.530     2.487
    95   1 H        0.926     0.032     2.557     2.501
    96   1 H        0.926     0.030     2.580     2.512
    97   1 H        0.926     0.034     2.527     2.486
    98   1 H        0.926     0.033     2.545     2.495
    99   1 H        0.926     0.034     2.527     2.486
   100   1 H        0.926     0.032     2.553     2.499
   101   1 H        0.926     0.033     2.549     2.497
   102   1 H        0.925     0.030     2.587     2.515
   103   1 H        0.926     0.030     2.588     2.516
   104   1 H        0.926     0.029     2.604     2.523
   105   1 H        0.926     0.028     2.608     2.525
   106   1 H        0.926     0.033     2.550     2.497
   107   1 H        0.926     0.028     2.612     2.527
   108   1 H        0.926     0.028     2.610     2.527
   109   1 H        0.926     0.031     2.571     2.507
   110   1 H        0.926     0.032     2.562     2.503
   111   1 H        0.926     0.032     2.564     2.504
   112   1 H        0.926     0.034     2.531     2.488

molecular dipole:
                 x           y           z       tot (Debye)
 q only:       -0.081       0.184       0.147
   full:       -0.080       0.197       0.147       0.656

 projected vibrational frequencies (cm⁻¹)
eigval :       -0.00    -0.00    -0.00    -0.00     0.00     0.00
eigval :        7.37     7.64     9.25    11.90    15.16    22.57
eigval :       26.29    32.23    40.95    42.04    45.21    49.94
eigval :       58.38    61.08    63.19    69.86    70.67    74.34
eigval :       78.99    81.22    84.93    92.44   103.48   113.33
eigval :      120.21   134.88   138.46   163.40   181.70   200.67
eigval :      204.18   210.03   213.85   219.36   222.54   225.44
eigval :      226.71   235.35   239.88   253.57   261.29   264.67
eigval :      275.90   288.87   292.78   320.71   325.11   325.39
eigval :      329.31   353.25   360.52   367.35   378.21   378.49
eigval :      381.54   383.92   384.14   385.75   393.08   394.43
eigval :      400.12   410.58   417.34   424.83   429.91   439.06
eigval :      450.31   458.07   470.43   473.62   473.84   475.79
eigval :      488.98   491.16   495.08   505.70   512.23   518.85
eigval :      533.37   553.98   561.40   577.22   579.57   581.38
eigval :      582.62   585.91   589.71   590.45   593.60   598.85
eigval :      601.43   607.54   615.37   630.69   638.64   639.98
eigval :      644.24   655.73   660.30   660.71   661.88   664.91
eigval :      670.29   672.71   674.73   677.50   678.60   694.11
eigval :      697.62   724.16   729.94   742.88   745.97   753.83
eigval :      754.89   756.05   757.61   761.17   763.43   765.65
eigval :      790.25   791.53   798.80   804.24   806.26   835.61
eigval :      837.68   839.90   855.42   856.24   874.53   875.34
eigval :      875.55   876.19   885.59   887.14   887.44   888.69
eigval :      890.69   891.84   892.72   892.92   895.60   896.97
eigval :      898.45   902.30   908.73   909.18   909.51   911.44
eigval :      912.21   912.67   916.40   923.12   924.88   925.36
eigval :      927.76   928.47   928.51   929.60   929.75   930.08
eigval :      930.81   932.39   934.13   944.02   974.15   975.53
eigval :      990.02   995.05   997.79  1003.63  1003.92  1013.83
eigval :     1025.19  1080.94  1081.83  1081.99  1082.85  1086.08
eigval :     1102.47  1104.68  1115.74  1119.84  1120.06  1121.37
eigval :     1122.42  1122.50  1125.47  1129.43  1132.22  1140.09
eigval :     1148.20  1168.67  1172.87  1177.81  1178.42  1178.81
eigval :     1178.99  1179.61  1181.43  1183.79  1185.56  1187.10
eigval :     1187.26  1193.44  1193.55  1194.61  1200.88  1203.47
eigval :     1210.58  1216.16  1225.43  1236.49  1238.00  1252.47
eigval :     1257.28  1259.74  1266.99  1276.02  1276.95  1278.06
eigval :     1279.04  1288.17  1296.42  1303.16  1307.69  1311.36
eigval :     1312.76  1313.99  1315.03  1317.04  1321.61  1323.46
eigval :     1324.94  1325.03  1327.94  1328.99  1336.60  1337.27
eigval :     1344.70  1364.15  1375.61  1385.25  1388.17  1393.10
eigval :     1403.58  1411.99  1416.13  1422.20  1425.00  1434.57
eigval :     1434.74  1438.30  1441.61  1441.92  1450.14  1461.54
eigval :     1463.62  1468.46  1468.77  1469.96  1471.60  1472.96
eigval :     1485.63  1491.08  1514.45  1519.20  1523.16  1527.91
eigval :     1540.31  1551.59  1555.50  1556.55  1560.51  1566.00
eigval :     1571.28  1573.41  1575.48  1577.98  1578.86  1580.03
eigval :     1589.91  1590.24  1596.34  1596.64  3063.83  3064.83
eigval :     3066.58  3069.16  3069.52  3071.41  3071.79  3071.84
eigval :     3072.21  3072.55  3072.79  3072.96  3073.45  3073.75
eigval :     3073.79  3074.65  3076.56  3078.01  3078.71  3080.47
eigval :     3080.88  3081.10  3082.05  3082.21  3082.69  3082.77
eigval :     3083.61  3084.54  3085.24  3085.33  3085.44  3085.97
eigval :     3086.10  3091.29  3092.38  3092.73  3093.49  3093.75
eigval :     3094.18  3094.47  3095.45  3096.17  3100.33  3102.01

   temp. (K)  partition function   enthalpy   heat capacity  entropy
                                   cal/mol     cal/K/mol   cal/K/mol   J/K/mol
 298.15  VIB  0.775E+26            31959.435    202.864    200.675
         ROT  0.280E+09              888.752      2.981     41.635
         INT  0.217E+35            32848.187    205.845    242.310
         TR   0.246E+29             1481.254      4.968     46.129
         TOT                       34329.4410   210.8135   288.4388  1206.8278

       T/K    H(0)-H(T)+PV         H(T)/Eh          T*S/Eh         G(T)/Eh
   ------------------------------------------------------------------------
    298.15    0.547074E-01    0.920462E+00    0.137047E+00    0.783415E+00
   ------------------------------------------------------------------------

         :::::::::::::::::::::::::::::::::::::::::::::::::::::
         ::                  THERMODYNAMIC                  ::
         :::::::::::::::::::::::::::::::::::::::::::::::::::::
         :: total free energy        -168.886415520721 Eh   ::
         ::.................................................::
         :: total energy             -169.669830551741 Eh   ::
         :: zero point energy           0.865754148699 Eh   ::
         :: G(RRHO) w/o ZPVE           -0.082339117679 Eh   ::
         :: G(RRHO) contrib.            0.783415031020 Eh   ::
         :::::::::::::::::::::::::::::::::::::::::::::::::::::

           -------------------------------------------------
          | TOTAL ENERGY             -169.669830551741 Eh   |
          | TOTAL ENTHALPY           -168.749368956586 Eh   |
          | TOTAL FREE ENERGY        -168.886415520721 Eh   |
          | GRADIENT NORM               0.000072858678 Eh/α |
          | HOMO-LUMO GAP               0.434151868921 eV   |
           -------------------------------------------------

 * finished run on 2025/09/04 at 00:05:56.297
