   * xtb version 6.7.1 (edcfbbe) compiled by 'albert@albert-system' on 2024-07-22

   ID    Z sym.   atoms
    1    6 C      1-10, 12-27, 31-36, 38-57
    2    7 N      11, 37
    3   16 S      28
    4    8 O      29, 30
    5    1 H      58-113

          program call               : xtb data250606/gas/2TCz-DPS/2TCz-DPS_gas_S0_crest.xyz --gfn 2 --ohess vtight --parallel 14 --molden --ceasefiles --namespace data250606/gas/2TCz-DPS/2TCz-DPS_gas_S0_finalOpt
          :  Hamiltonian                  GFN2-xTB          :
 * total energy  :  -157.2584438 Eh     change       -0.2586660E-08 Eh
 * total energy  :  -157.2584456 Eh     change       -0.1770186E-05 Eh
 * total energy  :  -157.2584476 Eh     change       -0.2067664E-05 Eh
 * total energy  :  -157.2584505 Eh     change       -0.2907058E-05 Eh
 * total energy  :  -157.2584548 Eh     change       -0.4297045E-05 Eh
 * total energy  :  -157.2584601 Eh     change       -0.5295344E-05 Eh
 * total energy  :  -157.2584649 Eh     change       -0.4812299E-05 Eh
 * total energy  :  -157.2584684 Eh     change       -0.3422286E-05 Eh
 * total energy  :  -157.2584705 Eh     change       -0.2121091E-05 Eh
 * total energy  :  -157.2584719 Eh     change       -0.1392882E-05 Eh
 * total energy  :  -157.2584769 Eh     change       -0.1518384E-05 Eh
 * total energy  :  -157.2584785 Eh     change       -0.1591786E-05 Eh
 * total energy  :  -157.2584800 Eh     change       -0.1449784E-05 Eh
 * total energy  :  -157.2584812 Eh     change       -0.1205944E-05 Eh
 * total energy  :  -157.2584822 Eh     change       -0.1003370E-05 Eh
 * total energy  :  -157.2584831 Eh     change       -0.9258501E-06 Eh
 * total energy  :  -157.2584841 Eh     change       -0.9814945E-06 Eh
 * total energy  :  -157.2584852 Eh     change       -0.1107782E-05 Eh
 * total energy  :  -157.2584852 Eh     change       -0.7664624E-08 Eh
   *** GEOMETRY OPTIMIZATION CONVERGED AFTER 22 ITERATIONS ***

 final structure:
================
113
 xtb: 6.7.1 (edcfbbe)
C            5.69226761324964        4.34974845082764       -0.21847437815418
C            6.20811935947808        2.91864792349721       -0.04325465259964
C            7.37051214551878        2.70137169515241       -1.02212805649174
C            6.71146822687793        2.77266918279056        1.40004412654142
C            5.13452251899711        1.87501144418084       -0.31487589861506
C            3.86659735042366        2.20851280905909       -0.76540779830093
C            2.92310830351429        1.21225034019716       -0.97734800382245
C            3.24892043679447       -0.13995168741921       -0.74285575475159
C            4.52520220294164       -0.49057088040228       -0.33359227142136
C            5.43956083881077        0.52187615875117       -0.12083280318147
N            2.16055835578151       -0.93541917523639       -1.04915756711400
C            1.12024174383420       -0.10563041863143       -1.44052767238991
C            1.55504428340410        1.23489849852748       -1.42228564109086
C            0.68474659790612        2.25212990573861       -1.78164232327118
C           -0.62948494565971        1.95954527402828       -2.12104495875943
C           -1.04940626231165        0.62829872396029       -2.07028459336034
C           -0.19597681021568       -0.40813648605296       -1.74085314309389
C           -1.55330910196129        3.08665808054056       -2.56031199638286
C           -1.59626615902718        4.17202743298453       -1.47745345105950
C           -2.98903558253869        2.61556184037546       -2.80787563041872
C           -1.00738890733300        3.67979667015208       -3.86770904305808
C            2.03323230958258       -2.31450364458363       -0.91054320360437
C            1.41263351961057       -3.04588204222165       -1.92725615867159
C            1.02936788751583       -4.35182400282425       -1.70339539965141
C            1.29422402400765       -4.94250253218912       -0.47958266789809
C            2.03913936715556       -4.27410059475788        0.47693277466834
C            2.42461603254119       -2.96516199934438        0.26121563242776
S            0.16156564898741       -6.22928715702355        0.07052150263029
O           -0.33730533819653       -6.98652540743209       -1.04350993454476
O            0.68494073905307       -6.93158440782378        1.20901902484125
C           -1.01621227545360       -4.96529248474641        0.57878383034960
C           -0.77152069947367       -4.32376580831537        1.78101566274932
C           -1.21347809720675       -3.03045165393370        1.96619155791959
C           -1.87707942602861       -2.36240494570443        0.93323241273693
C           -2.24075736211843       -3.06656442070601       -0.21619845560222
C           -1.79385288650905       -4.36180180907611       -0.39440791537211
N           -2.08197147492141       -0.98947176879962        1.03630614605674
C           -3.22379877755159       -0.26969552650894        0.73676520122752
C           -2.98438399514422        1.10281584229560        0.95649414654663
C           -3.99405062716463        2.03386334249163        0.75344379644408
C           -5.24459239596852        1.61451981605996        0.32732126209045
C           -5.46189806464013        0.24314768480933        0.14318679986958
C           -4.47968190065281       -0.70570245374165        0.34685372428437
C           -6.39015082820830        2.58304581528389        0.07273066090253
C           -5.97199204355444        4.04541187089970        0.24985449438388
C           -6.89721233714437        2.40830436475743       -1.36591047237969
C           -7.52391471308348        2.28305312001518        1.06332516602833
C           -1.61614515660187        1.21861034487455        1.38516301447607
C           -1.09456399672708       -0.09043323567496        1.41065718495411
C            0.24095254029185       -0.30319425628114        1.70307419716388
C            1.02675509936059        0.78995611236949        2.01776070422576
C            0.52055323052835        2.09122423126574        2.06064982230879
C           -0.81224310355892        2.29402859902599        1.72877204506391
C            1.37061132863673        3.28263533599580        2.47853961231538
C            2.83052713922738        2.90578825339251        2.74407529625752
C            1.35218600081930        4.34190078028687        1.36921974120783
C            0.78321370646967        3.87335532339027        3.76887970522417
H            6.48782669789627        5.05299003479923        0.01936971133920
H            5.38170136711736        4.53297580701432       -1.24443638108530
H            4.85672491755953        4.54690927660739        0.44914155758956
H            7.81117827118353        1.71580074335942       -0.89888559598069
H            8.14621635439886        3.44580331151190       -0.85538240410967
H            7.01979574747414        2.79121249374069       -2.04823099365131
H            7.16414307400954        1.79995537226301        1.56936649127859
H            5.88807719655499        2.89264076291345        2.10065246091084
H            7.45923640835959        3.53382424618202        1.61257744448292
H            3.59292502523496        3.23145686305776       -0.96290404177115
H            4.80873602049848       -1.52292272837084       -0.19414741134527
H            6.43082672748846        0.24401894992319        0.20265979106240
H            1.04464185226042        3.26907291504806       -1.79593731013939
H           -2.07337158995061        0.37868511491769       -2.29366486946467
H           -0.55898341323117       -1.42462375824553       -1.70617956078555
H           -2.28778238329869        4.96166372808046       -1.76561228722965
H           -1.93064152603119        3.73780091472342       -0.53958447935783
H           -0.61931699856889        4.61997325116756       -1.32151289193801
H           -3.03197886295148        1.88814816417945       -3.61521726065874
H           -3.60225072990511        3.46769049382616       -3.09664035298675
H           -3.41543289753539        2.17842967569126       -1.90745011476326
H           -0.00366633662067        4.07339588996072       -3.73155837713729
H           -0.97062152827684        2.91560357341271       -4.64137634191483
H           -1.64909614469471        4.48850822038662       -4.21143133621981
H            1.19586551117747       -2.56326747497736       -2.86778881059796
H            0.49040843159221       -4.91576156499933       -2.44835520936844
H            2.26091362455225       -4.77421745972726        1.40672835418883
H            2.95382869651665       -2.41911518212662        1.02707894392636
H           -0.20432628236531       -4.83868707697249        2.54032959309147
H           -1.01346825695795       -2.50853320697505        2.88930871721110
H           -2.80015310434736       -2.57049827060985       -0.99449899914749
H           -1.99565266640458       -4.90032867964426       -1.30718144766774
H           -3.78452150940594        3.07392064165742        0.93966183616202
H           -6.43726095516277       -0.10131500611851       -0.16423735319407
H           -4.69686512356768       -1.75518197127884        0.21667248082321
H           -5.65880091396596        4.24351960128389        1.27227214875064
H           -5.16268548464031        4.30405433635524       -0.42908273320561
H           -6.81794786268412        4.69317202431632        0.02894105854036
H           -7.28027376738674        1.40618051297426       -1.53564271139522
H           -6.09152388831182        2.59011349671655       -2.07385662797898
H           -7.69977028647458        3.11485392888075       -1.56686354811938
H           -7.89976839287345        1.27116787748530        0.93905663936913
H           -8.34937452580458        2.97509055990269        0.91038544910778
H           -7.16774543052729        2.39034113697817        2.08589068668023
H            0.66925244700403       -1.29424681088943        1.67493250875202
H            2.06645539818340        0.60993445092132        2.23542732636126
H           -1.23807298833464        3.28532801972454        1.73737725795741
H            2.91121323793747        2.19710144771692        3.56514700893809
H            3.28906679390561        2.47844894890010        1.85487481043810
H            3.38821139817918        3.79922174603373        3.02053683140229
H            1.98895354008089        5.18167080572779        1.64145576042769
H            1.72085450590560        3.90764323480529        0.44417358290511
H            0.34926809450735        4.72102813284597        1.19612518774876
H            1.37564618545517        4.72516331496510        4.09663634090471
H           -0.24032230632145        4.20618590273081        3.61942787216386
H            0.78559700150693        3.12631715800427        4.55993968086363

          :  Hamiltonian                  GFN2-xTB          :
         :: gradient norm              0.000060982733 Eh/a0 ::
         :: HOMO-LUMO gap              2.312457047427 eV    ::
         :: SCC energy              -159.890099860879 Eh    ::
         :: -> dispersion             -0.174148469124 Eh    ::
         :: repulsion energy           2.631614655731 Eh    ::

    * Orbital Energies and Occupations

         #    Occupation            Energy/Eh            Energy/eV
      -------------------------------------------------------------
         1        2.0000           -0.7697399             -20.9457
       ...           ...                  ...                  ...
       134        2.0000           -0.4194671             -11.4143
       135        2.0000           -0.4155476             -11.3076
       136        2.0000           -0.4134870             -11.2516
       137        2.0000           -0.4132584             -11.2453
       138        2.0000           -0.4116489             -11.2015
       139        2.0000           -0.4102574             -11.1637
       140        2.0000           -0.4039884             -10.9931
       141        2.0000           -0.4011018             -10.9145
       142        2.0000           -0.3988245             -10.8526
       143        2.0000           -0.3797615             -10.3338
       144        2.0000           -0.3785033             -10.2996
       145        2.0000           -0.3653312              -9.9412
       146        2.0000           -0.3623889              -9.8611 (HOMO)
       147                         -0.2774077              -7.5486 (LUMO)
       148                         -0.2564513              -6.9784
       149                         -0.2495643              -6.7910
       150                         -0.2474406              -6.7332
       151                         -0.2440455              -6.6408
       152                         -0.2406013              -6.5471
       153                         -0.2245515              -6.1104
       154                         -0.2218770              -6.0376
       155                         -0.1971255              -5.3641
       156                         -0.1947921              -5.3006
       157                         -0.1882612              -5.1228
       ...                                ...                  ...
       289                          1.2247690              33.3277
      -------------------------------------------------------------
                  HL-Gap            0.0849812 Eh            2.3125 eV

     #   Z          covCN         q      C6AA      α(0)
     1   6 C        3.761    -0.108    22.606     6.778
     2   6 C        3.903     0.026    20.081     6.370
     3   6 C        3.762    -0.106    22.562     6.771
     4   6 C        3.761    -0.107    22.592     6.776
     5   6 C        2.972    -0.001    28.043     8.686
     6   6 C        2.918    -0.042    29.054     8.839
     7   6 C        3.067    -0.017    28.370     8.734
     8   6 C        3.073     0.043    26.952     8.512
     9   6 C        2.908    -0.054    29.330     8.880
    10   6 C        2.931    -0.039    28.971     8.827
    11   7 N        2.801    -0.041    22.034     6.972
    12   6 C        3.080     0.042    26.980     8.516
    13   6 C        3.063    -0.017    28.363     8.733
    14   6 C        2.921    -0.038    28.943     8.822
    15   6 C        2.973     0.001    28.007     8.681
    16   6 C        2.929    -0.041    29.014     8.834
    17   6 C        2.910    -0.054    29.338     8.882
    18   6 C        3.903     0.026    20.086     6.371
    19   6 C        3.762    -0.105    22.561     6.771
    20   6 C        3.761    -0.105    22.562     6.771
    21   6 C        3.762    -0.105    22.557     6.770
    22   6 C        2.914     0.071    26.420     8.429
    23   6 C        2.925    -0.042    29.044     8.838
    24   6 C        2.967    -0.031    28.781     8.800
    25   6 C        2.970    -0.090    30.245     9.021
    26   6 C        2.961    -0.031    28.775     8.799
    27   6 C        2.922    -0.042    29.043     8.838
    28  16 S        3.843     0.963   107.728    17.469
    29   8 O        0.860    -0.530    24.459     6.631
    30   8 O        0.860    -0.530    24.460     6.631
    31   6 C        2.970    -0.089    30.239     9.020
    32   6 C        2.967    -0.031    28.781     8.800
    33   6 C        2.925    -0.042    29.042     8.838
    34   6 C        2.914     0.071    26.418     8.428
    35   6 C        2.922    -0.042    29.038     8.837
    36   6 C        2.960    -0.031    28.773     8.798
    37   7 N        2.802    -0.041    22.032     6.971
    38   6 C        3.073     0.043    26.953     8.512
    39   6 C        3.067    -0.017    28.373     8.734
    40   6 C        2.918    -0.043    29.056     8.839
    41   6 C        2.973    -0.001    28.041     8.686
    42   6 C        2.931    -0.039    28.971     8.827
    43   6 C        2.908    -0.054    29.331     8.880
    44   6 C        3.903     0.026    20.081     6.370
    45   6 C        3.761    -0.108    22.603     6.777
    46   6 C        3.762    -0.107    22.588     6.775
    47   6 C        3.762    -0.106    22.564     6.771
    48   6 C        3.063    -0.017    28.365     8.734
    49   6 C        3.079     0.042    26.981     8.516
    50   6 C        2.910    -0.053    29.328     8.880
    51   6 C        2.929    -0.041    29.012     8.833
    52   6 C        2.973     0.001    28.007     8.681
    53   6 C        2.921    -0.038    28.945     8.823
    54   6 C        3.903     0.026    20.086     6.371
    55   6 C        3.761    -0.106    22.563     6.771
    56   6 C        3.762    -0.105    22.552     6.769
    57   6 C        3.762    -0.105    22.559     6.771
    58   1 H        0.925     0.035     2.512     2.478
    59   1 H        0.925     0.035     2.521     2.483
    60   1 H        0.925     0.038     2.470     2.458
    61   1 H        0.925     0.036     2.508     2.476
    62   1 H        0.925     0.037     2.487     2.466
    63   1 H        0.925     0.033     2.541     2.493
    64   1 H        0.925     0.035     2.510     2.477
    65   1 H        0.925     0.036     2.500     2.473
    66   1 H        0.925     0.036     2.498     2.472
    67   1 H        0.926     0.038     2.470     2.458
    68   1 H        0.926     0.026     2.640     2.541
    69   1 H        0.926     0.032     2.560     2.502
    70   1 H        0.926     0.033     2.541     2.493
    71   1 H        0.926     0.036     2.509     2.477
    72   1 H        0.926     0.019     2.748     2.592
    73   1 H        0.925     0.033     2.539     2.492
    74   1 H        0.925     0.039     2.462     2.454
    75   1 H        0.925     0.036     2.508     2.476
    76   1 H        0.925     0.033     2.551     2.498
    77   1 H        0.925     0.033     2.545     2.495
    78   1 H        0.925     0.038     2.472     2.459
    79   1 H        0.925     0.036     2.505     2.475
    80   1 H        0.925     0.032     2.551     2.498
    81   1 H        0.925     0.037     2.487     2.466
    82   1 H        0.926     0.057     2.238     2.339
    83   1 H        0.926     0.060     2.196     2.318
    84   1 H        0.926     0.060     2.202     2.320
    85   1 H        0.926     0.056     2.246     2.344
    86   1 H        0.926     0.060     2.197     2.318
    87   1 H        0.926     0.057     2.240     2.340
    88   1 H        0.926     0.056     2.243     2.342
    89   1 H        0.926     0.060     2.202     2.320
    90   1 H        0.926     0.039     2.468     2.457
    91   1 H        0.926     0.032     2.560     2.502
    92   1 H        0.926     0.026     2.641     2.541
    93   1 H        0.925     0.035     2.519     2.482
    94   1 H        0.925     0.038     2.478     2.462
    95   1 H        0.925     0.035     2.510     2.478
    96   1 H        0.925     0.036     2.509     2.477
    97   1 H        0.925     0.036     2.503     2.474
    98   1 H        0.925     0.036     2.498     2.471
    99   1 H        0.925     0.036     2.507     2.476
   100   1 H        0.925     0.037     2.487     2.466
   101   1 H        0.925     0.033     2.541     2.493
   102   1 H        0.926     0.019     2.754     2.595
   103   1 H        0.926     0.036     2.508     2.477
   104   1 H        0.926     0.033     2.541     2.493
   105   1 H        0.925     0.032     2.554     2.499
   106   1 H        0.925     0.039     2.466     2.456
   107   1 H        0.925     0.033     2.545     2.495
   108   1 H        0.925     0.033     2.537     2.491
   109   1 H        0.925     0.038     2.473     2.459
   110   1 H        0.925     0.036     2.507     2.476
   111   1 H        0.925     0.037     2.488     2.467
   112   1 H        0.925     0.036     2.505     2.475
   113   1 H        0.925     0.033     2.551     2.498

molecular dipole:
                 x           y           z       tot (Debye)
 q only:       -0.076       3.234      -0.041
   full:       -0.065       2.902      -0.036       7.380

 projected vibrational frequencies (cm⁻¹)
eigval :       -0.00    -0.00    -0.00     0.00     0.00     0.00
eigval :       19.03    26.97    28.96    32.54    35.52    39.20
eigval :       42.19    45.58    53.33    55.37    59.97    67.14
eigval :       68.64    71.10    76.58    87.76    89.22    95.50
eigval :      100.40   110.46   125.64   134.07   135.56   140.36
eigval :      158.33   163.54   166.64   167.80   178.91   181.04
eigval :      186.35   188.35   194.79   196.09   203.31   219.34
eigval :      221.52   223.55   223.68   235.63   237.38   248.90
eigval :      250.15   256.88   272.12   272.45   275.77   287.99
eigval :      293.47   304.65   308.22   315.29   319.34   322.73
eigval :      322.97   332.80   335.21   337.75   342.09   353.42
eigval :      356.80   358.31   360.03   373.31   377.99   379.10
eigval :      383.06   394.18   397.75   403.13   406.38   412.93
eigval :      415.25   417.60   422.86   440.37   445.06   445.50
eigval :      446.16   457.23   464.38   465.84   469.49   470.02
eigval :      472.50   485.75   512.74   519.10   523.13   528.95
eigval :      549.97   575.28   575.90   581.78   582.45   587.95
eigval :      590.94   597.64   599.74   628.07   628.53   640.63
eigval :      640.65   664.54   669.92   687.71   688.52   693.12
eigval :      699.37   707.37   707.79   721.14   721.37   744.54
eigval :      747.73   808.80   818.18   822.92   823.21   825.50
eigval :      830.20   833.16   833.60   865.45   872.59   874.67
eigval :      875.01   877.83   879.94   882.97   884.36   905.54
eigval :      909.23   913.26   914.20   918.01   918.54   924.56
eigval :      926.61   926.77   927.03   933.25   935.96   939.87
eigval :      942.02   960.27   960.39   961.34   961.83   962.81
eigval :      962.97   963.49   963.57   963.65   964.53   964.76
eigval :      967.20  1002.52  1004.01  1032.90  1033.09  1035.09
eigval :     1036.10  1036.20  1036.96  1040.21  1040.48  1041.49
eigval :     1041.57  1083.23  1099.76  1112.18  1116.97  1117.94
eigval :     1118.70  1132.25  1132.62  1136.32  1143.68  1146.41
eigval :     1167.62  1173.06  1180.55  1181.59  1213.24  1214.55
eigval :     1227.77  1228.03  1229.13  1229.57  1230.70  1231.14
eigval :     1233.19  1233.26  1236.51  1236.62  1243.31  1244.63
eigval :     1249.22  1249.97  1255.57  1260.38  1260.59  1285.85
eigval :     1286.69  1301.89  1302.24  1306.96  1307.08  1318.96
eigval :     1327.64  1347.09  1347.49  1360.29  1360.66  1369.76
eigval :     1373.88  1394.38  1396.53  1402.26  1403.04  1403.93
eigval :     1404.47  1404.68  1404.73  1407.21  1407.66  1415.09
eigval :     1415.85  1428.30  1428.60  1430.04  1430.33  1436.94
eigval :     1438.22  1469.93  1474.14  1476.03  1478.26  1482.50
eigval :     1482.85  1489.07  1490.97  1492.02  1492.59  1492.76
eigval :     1494.71  1494.78  1496.78  1501.05  1501.68  1502.07
eigval :     1504.83  1505.49  1506.08  1506.44  1506.66  1514.07
eigval :     1514.16  1517.57  1517.97  1522.19  1522.60  1523.25
eigval :     1524.12  1563.46  1566.06  1570.46  1571.43  1573.88
eigval :     1574.61  1586.12  1586.48  1605.19  1605.41  1617.80
eigval :     1618.13  3014.37  3014.82  3019.83  3020.25  3022.48
eigval :     3022.56  3024.23  3024.28  3027.14  3027.51  3027.84
eigval :     3027.96  3028.03  3028.23  3031.18  3031.36  3032.85
eigval :     3033.29  3034.04  3034.30  3035.29  3035.63  3037.34
eigval :     3037.81  3039.58  3040.43  3044.95  3045.44  3046.45
eigval :     3046.75  3050.71  3051.45  3051.57  3051.83  3056.31
eigval :     3058.32  3078.46  3080.02  3081.43  3081.67  3090.60
eigval :     3091.87  3093.54  3093.94  3095.38  3095.85  3096.09
eigval :     3096.18  3103.05  3103.77  3106.90  3107.47  3117.20
eigval :     3117.39  3118.71  3119.09

   temp. (K)  partition function   enthalpy   heat capacity  entropy
                                   cal/mol     cal/K/mol   cal/K/mol   J/K/mol
 298.15  VIB  0.488E+23            32711.545    205.246    200.034
         ROT  0.105E+09              888.752      2.981     39.675
         INT  0.510E+31            33600.297    208.227    239.709
         TR   0.208E+29             1481.254      4.968     45.794
         TOT                       35081.5512   213.1955   285.5029  1194.5440

       T/K    H(0)-H(T)+PV         H(T)/Eh          T*S/Eh         G(T)/Eh
   ------------------------------------------------------------------------
    298.15    0.559060E-01    0.990908E+00    0.135652E+00    0.855256E+00
   ------------------------------------------------------------------------

         :::::::::::::::::::::::::::::::::::::::::::::::::::::
         ::                  THERMODYNAMIC                  ::
         :::::::::::::::::::::::::::::::::::::::::::::::::::::
         :: total free energy        -156.403228879088 Eh   ::
         ::.................................................::
         :: total energy             -157.258485205148 Eh   ::
         :: zero point energy           0.935001942887 Eh   ::
         :: G(RRHO) w/o ZPVE           -0.079745616828 Eh   ::
         :: G(RRHO) contrib.            0.855256326059 Eh   ::
         :::::::::::::::::::::::::::::::::::::::::::::::::::::

           -------------------------------------------------
          | TOTAL ENERGY             -157.258485205148 Eh   |
          | TOTAL ENTHALPY           -156.267577251881 Eh   |
          | TOTAL FREE ENERGY        -156.403228879088 Eh   |
          | GRADIENT NORM               0.000060985368 Eh/α |
          | HOMO-LUMO GAP               2.312456704815 eV   |
           -------------------------------------------------

 * finished run on 2025/06/06 at 22:18:45.837
