   * xtb version 6.7.1 (edcfbbe) compiled by 'albert@albert-system' on 2024-07-22

   ID    Z sym.   atoms
    1    6 C      1-10, 12-27, 31-36, 38-57
    2    7 N      11, 37
    3   16 S      28
    4    8 O      29, 30
    5    1 H      58-113

          program call               : xtb data250606/gas/2TCz-DPS/2TCz-DPS_gas_T1_crest.xyz --gfn 2 --spinpol --tblite --uhf 2 --ohess vtight --parallel 14 --molden --ceasefiles --namespace data250606/gas/2TCz-DPS/2TCz-DPS_gas_T1_finalOpt
 * total energy  :  -157.1649741 Eh     change       -0.6105208E-07 Eh
 * total energy  :  -157.1649964 Eh     change       -0.2227933E-04 Eh
 * total energy  :  -157.1650063 Eh     change       -0.9841711E-05 Eh
 * total energy  :  -157.1650084 Eh     change       -0.2182388E-05 Eh
 * total energy  :  -157.1650103 Eh     change       -0.1892849E-05 Eh
 * total energy  :  -157.1650118 Eh     change       -0.1467154E-05 Eh
 * total energy  :  -157.1650149 Eh     change       -0.3053855E-05 Eh
 * total energy  :  -157.1650163 Eh     change       -0.1426468E-05 Eh
 * total energy  :  -157.1650170 Eh     change       -0.7426004E-06 Eh
 * total energy  :  -157.1650176 Eh     change       -0.5422270E-06 Eh
 * total energy  :  -157.1650182 Eh     change       -0.6398271E-06 Eh
 * total energy  :  -157.1650183 Eh     change       -0.4531532E-07 Eh
 * total energy  :  -157.1650185 Eh     change       -0.2096917E-06 Eh
 * total energy  :  -157.1650188 Eh     change       -0.2859368E-06 Eh
 * total energy  :  -157.1650187 Eh     change        0.9215026E-07 Eh
 * total energy  :  -157.1650188 Eh     change       -0.1759394E-06 Eh
 * total energy  :  -157.1650189 Eh     change       -0.4708386E-07 Eh
   *** GEOMETRY OPTIMIZATION CONVERGED AFTER 17 ITERATIONS ***

 final structure:
================
113
 xtb: 6.7.1 (edcfbbe)
C            5.84088212936926        4.11403668029688       -0.24538011423724
C            6.27206076168476        2.65184661379308       -0.09989296529410
C            7.39118140408894        2.37622545240101       -1.11473764834693
C            6.80645791678397        2.45593657328309        1.32650034179807
C            5.13260125751020        1.67813963868723       -0.35266916702197
C            3.87205104114021        2.09489759744834       -0.76186083146087
C            2.86786756618423        1.16100333153595       -0.96792033115850
C            3.11956561026141       -0.21804657035203       -0.76366069576555
C            4.38686253589432       -0.64872137473136       -0.39794631348352
C            5.36488896127606        0.30373390713896       -0.19273007589219
N            1.98181765216510       -0.94219484241068       -1.05133777461916
C            0.98934629516062       -0.05322832940114       -1.41726922578196
C            1.49947186918269        1.26664686764429       -1.39267300414180
C            0.68397857756364        2.33109980857372       -1.73677578402248
C           -0.65039472047837        2.11192926324090       -2.06885171843113
C           -1.14546471352244        0.80516075607835       -2.02134635736849
C           -0.34595436091418       -0.27936105590775       -1.70681123440068
C           -1.51117472379374        3.29093316861818       -2.49306876485603
C           -1.49231299613046        4.36564763921852       -1.39811195985925
C           -2.96992666487858        2.90064123919214       -2.74460638289587
C           -0.93450378616601        3.86890181256511       -3.79460351294726
C            1.80242715452036       -2.31490350936978       -0.94040061177936
C            1.10027041320268       -3.01283297714189       -1.94837786740539
C            0.76470972274509       -4.32492252194119       -1.77393428644668
C            1.10753674717432       -4.99224535448724       -0.58079717999298
C            1.89785817667041       -4.32690119738139        0.37793866211304
C            2.25426896055706       -3.01939959587200        0.19684842904294
S            0.00723680202611       -6.25919600192098       -0.00952551828265
O           -0.56210222003055       -6.99250765927796       -1.10930869854518
O            0.57912238227993       -6.99444939612241        1.08763563219299
C           -1.09737031614827       -4.99804487290149        0.56615708360330
C           -0.75707906176977       -4.33391283628179        1.76177910522951
C           -1.09618003361633       -3.02333414958544        1.94046695788291
C           -1.79937417164844       -2.32374121660562        0.93429587975754
C           -2.24900121895347       -3.02566676690235       -0.20541794590512
C           -1.88924722532678       -4.33164756783415       -0.39061028356100
N           -1.98141007003559       -0.95175334905168        1.04922132526543
C           -3.11998835329327       -0.22864796988593        0.76214200363405
C           -2.87062804867531        1.15030923485329        0.96997979572109
C           -3.87610364116312        2.08310566052943        0.76517517048598
C           -5.13553431434401        1.66539356701714        0.35347234875458
C           -5.36544111558928        0.29102988743345        0.18975985831267
C           -4.38617973865742       -0.66039716360352        0.39389192459535
C           -6.27630923421115        2.63787079668427        0.10179849251747
C           -5.84819239264934        4.10034357014140        0.25335476352820
C           -6.80746287363035        2.44592375469680       -1.32634931555157
C           -7.39703272081415        2.35664086260408        1.11334453868983
C           -1.50275612816454        1.25705688704563        1.39621403896310
C           -0.99063544769921       -0.06210300144230        1.41814471913104
C            0.34479295817932       -0.28690789948863        1.70813372261346
C            1.14250052237287        0.79809583354359        2.02550558306686
C            0.64550958648752        2.10404669200483        2.07546313656103
C           -0.68902688009086        2.32195702176871        1.74316704339255
C            1.50447625780520        3.28329996904176        2.50268410148022
C            2.96415376950798        2.89492245723580        2.75192261462523
C            1.48295682482531        4.36143762892272        1.41115054721828
C            0.92758708183844        3.85606360343395        3.80642284759166
H            6.68550482116820        4.76318326097395       -0.02427504815766
H            5.51344255325765        4.32863720217708       -1.25998709612901
H            5.03952182904458        4.35615659137960        0.44889511909810
H            7.77758440849749        1.36599519048807       -1.01273506388377
H            8.21269736713274        3.07308790392531       -0.96381369362139
H            7.01727866127450        2.49693130605600       -2.12938130526402
H            7.19602721803287        1.45291760446799        1.47362666995401
H            6.01495396314745        2.62521673379980        2.05327330751231
H            7.61051717652164        3.16208752642556        1.52172349192677
H            3.65681859991368        3.13616739608562       -0.93466187056925
H            4.61462330379725       -1.69807167866438       -0.29293948637817
H            6.34794158066168       -0.03670206477476        0.09204365201997
H            1.09752987252018        3.32733575118830       -1.75113649697926
H           -2.18312332550864        0.61405481172103       -2.23724909206717
H           -0.76047105308460       -1.27490314055638       -1.67577283510172
H           -1.85005885409449        3.94215552556280       -0.46372984282076
H           -0.49198952818585        4.75719712723120       -1.23879841296174
H           -2.13892364306069        5.19514907030779       -1.67770126054185
H           -3.05151763107298        2.18627069244295       -3.56043527647656
H           -3.53742643531686        3.78742536779951       -3.02191177896585
H           -3.41715320511002        2.47434652632982       -1.84895705337638
H            0.08769931760184        4.21030040337011       -3.65576324670625
H           -0.93730947343709        3.11206205794424       -4.57609580862948
H           -1.53496791425236        4.71239865664758       -4.12852523310114
H            0.85787591262873       -2.49618305934462       -2.86531081140388
H            0.22632640460941       -4.87692311341809       -2.52766482281525
H            2.18439023210365       -4.87149999904544        1.26340166205082
H            2.82513024818243       -2.49741232380596        0.95035798459578
H           -0.21757272098611       -4.88703179820621        2.51390261386774
H           -0.85576049649091       -2.50916468111770        2.85931650148490
H           -2.82072737766106       -2.50263949045113       -0.95755405498991
H           -2.17407157793154       -4.87409901102482       -1.27794376210697
H           -3.66276485769588        3.12427120040947        0.94092985231356
H           -6.34757721405834       -0.05023529532506       -0.09717462650936
H           -4.61219267748338       -1.70983678945423        0.28605971580152
H           -5.52290490269952        4.31184212207420        1.26930893266090
H           -5.04614303581068        4.34660835954757       -0.43865763276832
H           -6.69370270145308        4.74864070270385        0.03315683127200
H           -7.19364585602416        1.44228210484602       -1.47811757706243
H           -6.01518721383353        2.62048834571361       -2.05101679002150
H           -7.61332189552971        3.15037942740321       -1.52026585862833
H           -7.78215289592740        1.34644795905007        1.00629489778978
H           -8.21904471858993        3.05321977133973        0.96382843596472
H           -7.02519388898951        2.47343781946927        2.12920067560694
H            0.76082859814866       -1.28174577145997        1.67510718758629
H            2.18030800925153        0.60806203386020        2.24162908762332
H           -1.10404233627524        3.31754740849485        1.75937634263868
H            3.04778086635806        2.17847685047491        3.56571821632945
H            3.41144025055255        2.47195426969202        1.85472044669451
H            3.53027421838053        3.78195943616215        3.03121800210216
H            2.12891333994494        5.19082073251266        1.69258694655797
H            1.84006908268668        3.94131532188432        0.47501553652670
H            0.48199276380636        4.75234368640225        1.25432287477344
H            1.52615640382969        4.70019565812899        4.14213035973394
H           -0.09565921276741        4.19511803371082        3.66948469697772
H            0.93313702701217        3.09704248597200        4.58578360386107

 projected vibrational frequencies (cm⁻¹)
eigval :       -0.00    -0.00     0.00     0.00     0.00     0.00
eigval :       20.22    27.61    30.30    33.24    37.61    40.62
eigval :       43.40    46.71    55.39    55.52    61.59    66.79
eigval :       70.43    71.90    77.31    87.58    90.18   100.86
eigval :      102.53   110.76   128.77   135.59   142.49   147.45
eigval :      160.20   160.78   164.20   166.20   178.59   179.60
eigval :      186.38   187.81   190.10   193.21   202.04   218.71
eigval :      220.88   223.08   223.20   235.10   236.80   245.61
eigval :      246.33   255.49   270.22   270.83   272.28   276.70
eigval :      289.13   306.98   308.14   310.78   319.49   321.77
eigval :      323.82   331.20   334.21   335.18   336.77   342.08
eigval :      352.70   355.79   356.97   359.11   375.94   379.71
eigval :      383.07   390.61   393.35   401.17   402.01   405.42
eigval :      408.19   412.01   416.21   420.83   429.40   440.69
eigval :      441.46   446.38   446.61   464.04   464.18   468.87
eigval :      469.73   488.30   488.81   516.88   517.70   521.38
eigval :      526.55   565.41   569.21   582.04   583.22   587.91
eigval :      588.15   594.42   596.30   614.99   621.37   633.29
eigval :      638.20   639.14   640.46   678.62   680.89   686.83
eigval :      688.30   702.09   702.64   716.10   716.21   726.95
eigval :      736.97   775.32   797.13   819.34   819.90   821.55
eigval :      823.61   831.76   832.15   838.46   840.53   870.35
eigval :      870.58   871.83   873.51   873.91   874.31   894.16
eigval :      898.17   903.66   903.89   905.82   907.18   918.48
eigval :      919.35   920.81   922.10   923.75   924.51   935.01
eigval :      936.29   960.07   960.11   960.91   961.54   962.70
eigval :      962.98   963.46   963.70   963.72   964.98   965.13
eigval :      966.85   967.07   976.03  1004.63  1029.67  1031.03
eigval :     1032.14  1033.52  1034.79  1034.88  1035.42  1039.16
eigval :     1039.24  1040.07  1040.47  1102.25  1111.78  1114.04
eigval :     1118.80  1119.89  1128.95  1129.45  1135.14  1139.37
eigval :     1159.75  1161.38  1165.70  1176.93  1208.09  1210.98
eigval :     1219.48  1224.74  1224.76  1226.30  1226.34  1227.77
eigval :     1227.82  1228.80  1228.96  1230.55  1231.68  1237.47
eigval :     1239.75  1240.66  1245.61  1254.73  1257.16  1277.90
eigval :     1279.65  1287.02  1287.32  1287.79  1295.71  1319.73
eigval :     1326.09  1332.46  1336.73  1344.23  1344.94  1359.39
eigval :     1362.27  1363.11  1397.77  1399.89  1401.91  1402.31
eigval :     1403.72  1404.00  1404.38  1405.53  1406.41  1407.17
eigval :     1408.63  1409.62  1410.39  1427.47  1427.70  1429.97
eigval :     1430.01  1433.05  1442.42  1445.19  1447.63  1453.96
eigval :     1454.15  1472.07  1472.48  1474.68  1488.02  1489.88
eigval :     1490.89  1491.31  1491.41  1493.21  1493.27  1495.51
eigval :     1499.13  1499.90  1500.76  1503.20  1504.30  1504.84
eigval :     1504.97  1505.73  1513.67  1513.70  1516.54  1516.61
eigval :     1521.16  1521.93  1522.64  1523.56  1533.41  1549.14
eigval :     1551.86  1560.40  1565.76  1566.95  1571.31  1576.15
eigval :     1583.92  3017.07  3017.16  3022.76  3023.13  3024.66
eigval :     3024.67  3026.90  3026.92  3028.80  3028.87  3029.09
eigval :     3029.11  3029.73  3030.12  3032.09  3032.18  3033.44
eigval :     3033.61  3034.25  3034.33  3037.28  3037.30  3038.59
eigval :     3038.66  3040.99  3041.18  3046.16  3046.20  3049.30
eigval :     3049.34  3051.39  3051.91  3054.01  3054.03  3055.24
eigval :     3055.64  3079.22  3079.65  3081.03  3081.44  3091.71
eigval :     3091.77  3092.47  3093.30  3096.58  3097.42  3102.33
eigval :     3102.94  3103.31  3103.53  3106.83  3106.91  3116.78
eigval :     3116.95  3124.04  3124.16

   temp. (K)  partition function   enthalpy   heat capacity  entropy
                                   cal/mol     cal/K/mol   cal/K/mol   J/K/mol
 298.15  VIB  0.413E+23            32974.455    207.559    201.222
         ROT  0.516E+08              888.752      2.981     38.274
         INT  0.213E+31            33863.208    210.540    239.495
         TR   0.208E+29             1481.254      4.968     45.794
         TOT                       35344.4615   215.5081   285.2889  1193.6489

       T/K    H(0)-H(T)+PV         H(T)/Eh          T*S/Eh         G(T)/Eh
   ------------------------------------------------------------------------
    298.15    0.563250E-01    0.986455E+00    0.135550E+00    0.850905E+00
   ------------------------------------------------------------------------

         :::::::::::::::::::::::::::::::::::::::::::::::::::::
         ::                  THERMODYNAMIC                  ::
         :::::::::::::::::::::::::::::::::::::::::::::::::::::
         :: total free energy        -156.314114376880 Eh   ::
         ::.................................................::
         :: total energy             -157.165018945275 Eh   ::
         :: zero point energy           0.930129561568 Eh   ::
         :: G(RRHO) w/o ZPVE           -0.079224993173 Eh   ::
         :: G(RRHO) contrib.            0.850904568395 Eh   ::
         :::::::::::::::::::::::::::::::::::::::::::::::::::::

           -------------------------------------------------
          | TOTAL ENERGY             -157.165018945275 Eh   |
          | TOTAL ENTHALPY           -156.178564399061 Eh   |
          | TOTAL FREE ENERGY        -156.314114376880 Eh   |
          | GRADIENT NORM               0.000052764159 Eh/α |
           -------------------------------------------------

 * finished run on 2025/06/06 at 22:43:20.968
