   * xtb version 6.7.1 (edcfbbe) compiled by 'albert@albert-system' on 2024-07-22

   ID    Z sym.   atoms
    1    6 C      1-10, 12-27, 31-36, 38-57
    2    7 N      11, 37
    3   16 S      28
    4    8 O      29, 30
    5    1 H      58-113

          program call               : xtb data250606/gas/2TCz-DPS/2TCz-DPS_gas_S0_finalOpt.xtbopt.xyz --gfn 2 --spinpol --tblite --uhf 2 --ohess vtight --parallel 14 --molden --ceasefiles --namespace data250606/gas/2TCz-DPS/2TCz-DPS_gas_T1_preOpt
 * total energy  :  -157.1608872 Eh     change       -0.5204404E-07 Eh
 * total energy  :  -157.1635140 Eh     change       -0.2626803E-02 Eh
 * total energy  :  -157.1643165 Eh     change       -0.8025676E-03 Eh
 * total energy  :  -157.1644551 Eh     change       -0.1385922E-03 Eh
 * total energy  :  -157.1645561 Eh     change       -0.1009425E-03 Eh
 * total energy  :  -157.1646099 Eh     change       -0.5382659E-04 Eh
 * total energy  :  -157.1646760 Eh     change       -0.6614240E-04 Eh
 * total energy  :  -157.1647326 Eh     change       -0.5652546E-04 Eh
 * total energy  :  -157.1647739 Eh     change       -0.4138220E-04 Eh
 * total energy  :  -157.1648085 Eh     change       -0.3458433E-04 Eh
 * total energy  :  -157.1650171 Eh     change       -0.7466640E-06 Eh
 * total energy  :  -157.1650176 Eh     change       -0.5265256E-06 Eh
 * total energy  :  -157.1650181 Eh     change       -0.4737164E-06 Eh
 * total energy  :  -157.1650185 Eh     change       -0.4183355E-06 Eh
 * total energy  :  -157.1650186 Eh     change       -0.1283658E-06 Eh
 * total energy  :  -157.1650188 Eh     change       -0.2085362E-06 Eh
 * total energy  :  -157.1650188 Eh     change        0.2368753E-07 Eh
 * total energy  :  -157.1650189 Eh     change       -0.1045819E-06 Eh
 * total energy  :  -157.1650189 Eh     change       -0.3803876E-08 Eh
   *** GEOMETRY OPTIMIZATION CONVERGED AFTER 44 ITERATIONS ***

 final structure:
================
113
 xtb: 6.7.1 (edcfbbe)
C            5.72628947865898        4.26574400922908       -0.20630950424280
C            6.19544158899755        2.81768064007208       -0.03860314997940
C            7.33465028209655        2.56148249583928       -1.03603383958563
C            6.71662236509331        2.65264919884817        1.39656770497483
C            5.08641177216424        1.81022839976053       -0.29451814202933
C            3.82116624646846        2.18735560615255       -0.72701691809204
C            2.84535006919286        1.22409954926243       -0.93420025477673
C            3.13081137643952       -0.14480891403017       -0.70728826844266
C            4.40405215370026       -0.53631134231196       -0.31887368091238
C            5.35328676152961        0.44477456800096       -0.11330402394543
N            2.01674497088842       -0.90304875277608       -0.99987430646872
C            1.00615884447966       -0.04605683694536       -1.39164998050254
C            1.48073861358672        1.28719167522835       -1.37911860115254
C            0.64233912418340        2.32452324506964       -1.74997293792630
C           -0.68088205275050        2.06513074096347       -2.09735353121009
C           -1.14198175384770        0.74652027533083       -2.03703287562129
C           -0.31862492890301       -0.31170926729510       -1.69562522626557
C           -1.56624301586445        3.21443631647506       -2.55141724392260
C           -1.59126410222754        4.30549762714836       -1.47286671242901
C           -3.01043469265450        2.78179136242391       -2.81733554686796
C           -0.98639728569249        3.78797288725352       -3.85351415087250
C            1.87225897288444       -2.27835878358425       -0.87171881764091
C            1.20174734531005       -3.00862071866757       -1.87835522555701
C            0.89850673233437       -4.32655531974636       -1.68940022148963
C            1.24347561845127       -4.96792245324716       -0.48277249965126
C            2.00371058896314       -4.26867367354117        0.47612181434556
C            2.32783171596885       -2.95480143376101        0.28095140469288
S            0.16969517115136       -6.25561716686095        0.09267447402426
O           -0.36556000218722       -7.01926698608159       -1.00357408076773
O            0.74644527175049       -6.95986919487935        1.20748824141786
C           -0.97537597878052       -5.01640385018114        0.63609193331291
C           -0.66794756585792       -4.32625975708677        1.82589648238112
C           -1.04399072917072       -3.02279857228142        1.98115117455150
C           -1.75268716503296       -2.35676674344750        0.95622640113238
C           -2.16912455190094       -3.08680373042462       -0.17845348878278
C           -1.77256791770856       -4.38524285045994       -0.33997972847089
N           -1.97234595715784       -0.98856811043344        1.04847814219781
C           -3.12563158563659       -0.30026919392053        0.73567079187330
C           -2.91525334237914        1.08782067492297        0.92498734847408
C           -3.94170211573425        1.99056235744323        0.69163817681351
C           -5.18404371986743        1.53350651679865        0.26993364677057
C           -5.37621367029649        0.15109294686452        0.12664041036610
C           -4.37529004132997       -0.77093471690650        0.35871261914834
C           -6.34583603661250        2.47184357843606       -0.01322234730814
C           -5.95537014677000        3.94736476808594        0.11132946384532
C           -6.85793498557161        2.23726937643929       -1.44196813907759
C           -7.46916431346723        2.18372287090003        0.99346484707880
C           -1.55666719592538        1.23709808766153        1.36778377750883
C           -1.01035874115683       -0.06755535248749        1.41664048815014
C            0.32646447375242       -0.25245108740151        1.72766708987767
C            1.09066046223747        0.85786989728949        2.03988016647714
C            0.55855814577227        2.15064987492224        2.06413423295688
C           -0.77633370259460        2.32818607185061        1.70999850323695
C            1.37958945370201        3.35822556917172        2.48672381572291
C            2.84518482692957        3.01239043995440        2.76245064326442
C            1.34546109775654        4.42021986313019        1.37979774736154
C            0.76858918266877        3.93327285333619        3.77382371979366
H            6.54952545101087        4.94033177629898        0.01925419046304
H            5.40745203774275        4.46038948666689       -1.22765412676551
H            4.90883367848737        4.49299866351563        0.47408209183627
H            7.74720169059536        1.56348857873713       -0.91727571700556
H            8.13473766353864        3.28240950202848       -0.88303767612128
H            6.97065113407347        2.66023136453178       -2.05663726981363
H            7.13162702263142        1.66249753755045        1.56031888928667
H            5.91153686865055        2.80834174469055        2.11136277410478
H            7.49849331929745        3.38280902660341        1.59357587334298
H            3.58069929956962        3.22006537563560       -0.91706062221939
H            4.65839862044463       -1.57766921892518       -0.19674102497481
H            6.34112166317990        0.13470221901623        0.18905351027964
H            1.02955425579072        3.33112428606453       -1.77317529089402
H           -2.17114099313469        0.52479437934587       -2.26404832427662
H           -0.70723552407282       -1.31732018699529       -1.65531808270397
H           -2.25628789980078        5.11278266196941       -1.77350012810142
H           -1.94988915143089        3.88642948911817       -0.53682844559201
H           -0.60414324381338        4.72655060403159       -1.30655900002663
H           -3.06133057619563        2.05329316829214       -3.62310759410435
H           -3.59707135266285        3.64886443328833       -3.11629445278432
H           -3.45918170607522        2.35725863373990       -1.92160763286885
H            0.02464848833756        4.15774197159538       -3.70590075460527
H           -0.95877519041134        3.01991223017620       -4.62349397900534
H           -1.60361132606160        4.61061956950283       -4.20826147563004
H            0.95765526276808       -2.51140056455264       -2.80552062419634
H            0.38436729357071       -4.90298086242357       -2.44177757993750
H            2.29321314601342       -4.79315100342001        1.37269914714833
H            2.87499244218086       -2.40749654703563        1.03407778826479
H           -0.12342445219810       -4.85386849716510        2.59258143144719
H           -0.82897895918524       -2.48926023033892        2.89523636853365
H           -2.74502102817272       -2.59012848926412       -0.94512861422614
H           -2.03176388619716       -4.94781955437258       -1.22262162248347
H           -3.75795395804617        3.03963702134522        0.85321653663180
H           -6.34545743204517       -0.22040434520402       -0.16649937128622
H           -4.57251639929297       -1.82755121683441        0.26540384494994
H           -5.64798036779998        4.18890783465218        1.12614311815737
H           -5.15098690848226        4.19812724017588       -0.57633698418990
H           -6.81360766009283        4.56974962992386       -0.13306392450977
H           -7.22022055907049        1.22224527514054       -1.57578144566090
H           -6.06238491275651        2.41407883805824       -2.16250686089414
H           -7.67731142755437        2.91903228565766       -1.65896680266306
H           -7.82666835517042        1.16162382265260        0.90506025090396
H           -8.30738466091909        2.85514956113139        0.82068121302307
H           -7.11082808314941        2.33237327537895        2.01001716081990
H            0.76917298716307       -1.23617988041411        1.71480937152498
H            2.13003198929441        0.69868376022842        2.27275717640152
H           -1.21768276641180        3.31251058727535        1.70568000997995
H            2.93563356904484        2.30952350625012        3.58728805420127
H            3.31677039448415        2.58934777521634        1.87781692800299
H            3.38341222491254        3.91790866779760        3.03754937114132
H            1.96561377171942        5.27005263084888        1.65825527087413
H            1.72647687661126        3.99668626193638        0.45469046641881
H            0.33697934529489        4.78257521428224        1.20371900205480
H            1.33949518607037        4.79769858478782        4.10605510302566
H           -0.26120649555206        4.24283394256923        3.61750045154347
H            0.78290867449751        3.18549008634998        4.56386680855395

 projected vibrational frequencies (cm⁻¹)
eigval :       -0.00    -0.00     0.00     0.00     0.00     0.00
eigval :       20.56    27.78    30.32    33.31    37.60    40.66
eigval :       43.33    46.57    55.52    55.64    61.64    66.67
eigval :       70.41    71.94    77.31    87.57    90.20   100.91
eigval :      102.51   110.78   128.77   135.69   142.42   147.40
eigval :      159.84   160.22   164.14   166.81   178.73   179.62
eigval :      186.49   187.89   190.14   193.21   201.95   218.72
eigval :      220.91   223.09   223.20   234.98   236.66   245.68
eigval :      246.49   255.36   270.16   270.84   272.14   276.43
eigval :      289.06   306.89   308.28   310.79   319.19   321.61
eigval :      323.79   331.34   334.20   335.33   336.89   342.11
eigval :      352.52   355.79   356.89   359.18   375.94   379.68
eigval :      383.13   390.68   393.31   401.41   401.99   405.44
eigval :      408.13   412.00   416.27   421.12   429.43   440.71
eigval :      441.44   446.34   446.53   463.99   464.09   468.94
eigval :      469.79   488.25   488.81   516.93   517.66   521.57
eigval :      526.45   565.46   569.22   582.05   583.21   587.79
eigval :      588.19   594.38   596.26   614.91   621.38   633.41
eigval :      638.19   639.11   640.48   678.59   680.82   686.81
eigval :      688.29   702.08   702.63   716.07   716.19   726.75
eigval :      736.88   775.60   797.08   819.31   819.85   821.59
eigval :      823.59   831.77   832.14   838.47   840.32   870.35
eigval :      870.57   871.81   873.49   873.85   874.27   894.12
eigval :      898.19   903.67   903.89   905.82   907.23   918.60
eigval :      919.37   920.84   922.12   923.77   924.50   934.93
eigval :      936.41   960.04   960.09   960.93   961.54   962.66
eigval :      962.98   963.47   963.69   963.72   964.97   965.18
eigval :      966.69   967.04   975.96  1004.54  1029.62  1031.00
eigval :     1032.13  1033.56  1034.80  1034.89  1035.41  1039.14
eigval :     1039.26  1040.10  1040.46  1102.50  1111.76  1114.04
eigval :     1118.71  1119.78  1128.95  1129.46  1135.03  1139.38
eigval :     1159.76  1161.37  1165.59  1176.91  1208.14  1210.97
eigval :     1219.52  1224.71  1224.74  1226.29  1226.35  1227.82
eigval :     1227.84  1228.80  1228.98  1230.57  1231.72  1237.58
eigval :     1239.78  1240.62  1245.66  1254.59  1257.17  1277.89
eigval :     1279.66  1287.02  1287.32  1287.80  1295.75  1319.75
eigval :     1326.08  1332.49  1336.72  1344.19  1345.03  1359.38
eigval :     1362.26  1363.06  1397.79  1399.94  1401.93  1402.31
eigval :     1403.74  1403.89  1404.39  1405.75  1406.42  1407.29
eigval :     1408.62  1409.63  1410.46  1427.61  1427.82  1430.04
eigval :     1430.07  1433.27  1442.43  1445.16  1447.65  1453.92
eigval :     1454.13  1472.01  1472.46  1474.71  1488.01  1489.91
eigval :     1490.94  1491.32  1491.41  1493.26  1493.32  1495.41
eigval :     1499.16  1499.93  1500.73  1503.24  1504.38  1504.91
eigval :     1505.03  1505.77  1513.69  1513.72  1516.55  1516.63
eigval :     1521.26  1522.04  1522.72  1523.63  1533.09  1549.06
eigval :     1551.91  1560.46  1565.68  1566.95  1571.24  1576.11
eigval :     1583.79  3017.11  3017.20  3022.80  3023.18  3024.69
eigval :     3024.71  3026.92  3026.92  3028.80  3028.86  3029.15
eigval :     3029.17  3029.75  3030.15  3032.12  3032.21  3033.49
eigval :     3033.65  3034.32  3034.38  3037.30  3037.33  3038.63
eigval :     3038.70  3041.10  3041.29  3046.20  3046.24  3049.28
eigval :     3049.31  3051.36  3051.90  3054.11  3054.16  3055.27
eigval :     3055.68  3079.23  3079.71  3081.10  3081.48  3091.72
eigval :     3091.79  3092.50  3093.33  3096.57  3097.43  3102.36
eigval :     3103.03  3103.31  3103.60  3106.86  3106.92  3116.80
eigval :     3116.96  3124.06  3124.21

   temp. (K)  partition function   enthalpy   heat capacity  entropy
                                   cal/mol     cal/K/mol   cal/K/mol   J/K/mol
 298.15  VIB  0.403E+23            32974.184    207.566    201.208
         ROT  0.516E+08              888.752      2.981     38.273
         INT  0.208E+31            33862.936    210.547    239.482
         TR   0.208E+29             1481.254      4.968     45.794
         TOT                       35344.1904   215.5149   285.2754  1193.5924

       T/K    H(0)-H(T)+PV         H(T)/Eh          T*S/Eh         G(T)/Eh
   ------------------------------------------------------------------------
    298.15    0.563246E-01    0.986460E+00    0.135544E+00    0.850916E+00
   ------------------------------------------------------------------------

         :::::::::::::::::::::::::::::::::::::::::::::::::::::
         ::                  THERMODYNAMIC                  ::
         :::::::::::::::::::::::::::::::::::::::::::::::::::::
         :: total free energy        -156.314102610592 Eh   ::
         ::.................................................::
         :: total energy             -157.165018940351 Eh   ::
         :: zero point energy           0.930135335351 Eh   ::
         :: G(RRHO) w/o ZPVE           -0.079219005592 Eh   ::
         :: G(RRHO) contrib.            0.850916329759 Eh   ::
         :::::::::::::::::::::::::::::::::::::::::::::::::::::

           -------------------------------------------------
          | TOTAL ENERGY             -157.165018940351 Eh   |
          | TOTAL ENTHALPY           -156.178559052456 Eh   |
          | TOTAL FREE ENERGY        -156.314102610592 Eh   |
          | GRADIENT NORM               0.000042473633 Eh/α |
           -------------------------------------------------

 * finished run on 2025/06/06 at 22:19:23.585
