   * xtb version 6.7.1 (edcfbbe) compiled by 'albert@albert-system' on 2024-07-22

   ID    Z sym.   atoms
    1    6 C      1-10, 12-27, 31-36, 38-57
    2    7 N      11, 37
    3   16 S      28
    4    8 O      29, 30
    5    1 H      58-113

          program call               : xtb data250606/gas/2TCz-DPS/2TCz-DPS.xyz --gfn 2 --ohess vtight --parallel 14 --molden --ceasefiles --namespace data250606/gas/2TCz-DPS/2TCz-DPS_gas_S0_preOpt
          :  Hamiltonian                  GFN2-xTB          :
 * total energy  :  -157.2257483 Eh     change       -0.4016641E-08 Eh
 * total energy  :  -157.2432736 Eh     change       -0.1752529E-01 Eh
 * total energy  :  -157.2484040 Eh     change       -0.5130326E-02 Eh
 * total energy  :  -157.2496859 Eh     change       -0.1281944E-02 Eh
 * total energy  :  -157.2502393 Eh     change       -0.5533438E-03 Eh
 * total energy  :  -157.2503820 Eh     change       -0.1427890E-03 Eh
 * total energy  :  -157.2504635 Eh     change       -0.8141238E-04 Eh
 * total energy  :  -157.2505217 Eh     change       -0.5821916E-04 Eh
 * total energy  :  -157.2505731 Eh     change       -0.5145312E-04 Eh
 * total energy  :  -157.2506273 Eh     change       -0.5414766E-04 Eh
 * total energy  :  -157.2510916 Eh     change       -0.7885152E-06 Eh
 * total energy  :  -157.2510924 Eh     change       -0.8105546E-06 Eh
 * total energy  :  -157.2510934 Eh     change       -0.9987291E-06 Eh
 * total energy  :  -157.2510945 Eh     change       -0.1105531E-05 Eh
 * total energy  :  -157.2510959 Eh     change       -0.1381930E-05 Eh
 * total energy  :  -157.2510974 Eh     change       -0.1491370E-05 Eh
 * total energy  :  -157.2510991 Eh     change       -0.1694004E-05 Eh
 * total energy  :  -157.2511012 Eh     change       -0.2128848E-05 Eh
 * total energy  :  -157.2511012 Eh     change       -0.6804044E-08 Eh
   *** GEOMETRY OPTIMIZATION CONVERGED AFTER 122 ITERATIONS ***

 final structure:
================
113
 xtb: 6.7.1 (edcfbbe)
C            5.36915535800199        3.76001770981455        4.31457045814316
C            5.60087214035775        3.90102638223810        2.80342014673726
C            4.64512778866046        4.95457203428934        2.22606244989607
C            7.03516928528412        4.39172758088091        2.58781817946851
C            5.33456727449769        2.56149236155306        2.13237680406200
C            6.29674098902557        1.88992784465770        1.39585283055231
C            5.99258568201493        0.66372933113450        0.82049418321287
C            4.71661367019683        0.08866748720734        0.98688101273716
C            3.73492009684772        0.76709515330387        1.69143395040766
C            4.06380777790256        1.98462287302733        2.25320632449910
N            4.65925015584951       -1.11463555797019        0.30311398073421
C            5.89046504069142       -1.32479525479128       -0.29825361579829
C            6.74799579049569       -0.24519190790411        0.00119670602108
C            8.05043774709037       -0.23350326532030       -0.47096653167439
C            8.52291842229601       -1.29285905807771       -1.23470294060300
C            7.66369335803140       -2.36482266069150       -1.48909078295283
C            6.35903386968737       -2.40194870925155       -1.03005751372443
C            9.95458000752498       -1.25225479072418       -1.75029007440629
C           10.91537339606537       -1.17626222909750       -0.55517997204966
C           10.13037809888276       -0.01201295570414       -2.63819103457770
C           10.32499879117818       -2.48486205910308       -2.57944860927122
C            3.56846720886003       -1.97878360806426        0.25144271734867
C            2.87729063760705       -2.30819648040210        1.41974701721163
C            1.80623912323086       -3.17824132871775        1.36634836792984
C            1.43144520683364       -3.72684930052425        0.15395921763317
C            2.10251343723526       -3.40807619669995       -1.01139669441561
C            3.16899471542230       -2.53141420921543       -0.96729770057421
S            0.03757014412239       -4.85469912046905        0.09270536236785
O            0.11995533499769       -5.61306959421307       -1.12784425977353
O           -0.03313762814810       -5.56398734730710        1.34315125963836
C           -1.37380280156611       -3.75229802318714       -0.01331431649553
C           -1.77383839587840       -3.27995840634228       -1.24945954851843
C           -2.85844324327540       -2.42957681802256       -1.33679813803375
C           -3.53735074299302       -2.04246474614867       -0.17907451351795
C           -3.11217750934055       -2.51781025422341        1.06337711645491
C           -2.03275064502628       -3.37593975911659        1.14181051676164
N           -4.64146810495636       -1.19806775921322       -0.26344351010581
C           -4.72679442313489       -0.03668043610334       -1.01353774436770
C           -6.00800952648564        0.52996945190027       -0.85884149484845
C           -6.33840802846430        1.71747811958654       -1.49743402866434
C           -5.39749294837570        2.35884133247383       -2.28648416678611
C           -4.12096234767881        1.79255844510611       -2.39598904866231
C           -3.76615838478054        0.61326610470382       -1.77189401754900
C           -5.69271710851560        3.65523729484311       -3.02660320211902
C           -4.74301288464350        4.75158963683285       -2.52375262908367
C           -5.48209489115799        3.43357809846932       -4.53113693525858
C           -7.13025262339942        4.13839997575364       -2.81562046776534
C           -6.73741061102495       -0.34077041398443        0.02314694553972
C           -5.85989079953580       -1.38992502715538        0.36926269672852
C           -6.30123533724275       -2.42966833374142        1.16895251856417
C           -7.59895953078223       -2.38411638906088        1.64646493036392
C           -8.47754321577843       -1.34029569559203        1.34544806759041
C           -8.03231405323050       -0.31974810480571        0.51535455459789
C           -9.90137368928437       -1.28980840678540        1.88145949329641
C          -10.24222690771995       -2.48032273298889        2.78176411070759
C          -10.07937167310686       -0.00553102664958        2.70391577534966
C          -10.88208097490813       -1.29064681120143        0.70020308547258
H            5.57563358212297        4.70367869350674        4.81521277151147
H            4.34393721065246        3.47616992375700        4.53483994424530
H            6.02933109567451        2.99920182090340        4.72595464028386
H            4.78881857997741        5.04285567351490        1.15111805781911
H            4.83721890803735        5.92403344872238        2.68107886622439
H            3.60691102586211        4.69286062798879        2.40993926909054
H            7.24248595240103        4.54351574896269        1.53105554119070
H            7.75520353409168        3.68640423634350        2.99627223717005
H            7.17253621981139        5.34397840286790        3.09628182952819
H            7.28334001896713        2.29678479636894        1.25051109594800
H            2.73586104653665        0.37013911673721        1.79230050779555
H            3.29628671380749        2.50603991583233        2.80448927027437
H            8.68514480512886        0.60483700872761       -0.22903493039133
H            8.01204151744727       -3.20956525530500       -2.05956727588988
H            5.73773869864996       -3.26176969909789       -1.23001691890910
H           10.74833186033962       -0.27743511172029        0.03167952773327
H           10.77543335557841       -2.03787563356976        0.09432613238944
H           11.94645990315273       -1.16928510527086       -0.90246604993113
H            9.43966518381157       -0.05062023235589       -3.47804320400586
H           11.14543469731050        0.02999941114871       -3.02764277703956
H            9.94076287452658        0.90293491922695       -2.08402498689464
H           10.25320978541624       -3.39323440287237       -1.98586652331779
H            9.68425633097300       -2.57663776316371       -3.45340424226634
H           11.35254264171242       -2.39178157772207       -2.92558272849307
H            3.20540524247073       -1.90110564826926        2.36373823099115
H            1.27409404047661       -3.46818147322090        2.25846367533179
H            1.78572038752760       -3.86469359732126       -1.93577713771251
H            3.69144092080042       -2.25882208084575       -1.87128366715742
H           -1.24973570965839       -3.61379017070856       -2.13095757025261
H           -3.20620869641915       -2.08272809989126       -2.29766066079049
H           -3.62532447944495       -2.20021376040838        1.95795236936939
H           -1.69703271071524       -3.77430074769714        2.08621570869800
H           -7.32819518936769        2.11896274246049       -1.35897010058034
H           -3.36975329514041        2.29177485445235       -2.98872984468634
H           -2.76343774141059        0.22421354652852       -1.86699332525572
H           -4.87189277481204        4.89787219504485       -1.45326731772307
H           -3.70416192311732        4.49333219311954       -2.70895057742833
H           -4.95508755869949        5.69159697195548       -3.02892380932549
H           -4.45631670359800        3.15212155795218       -4.75184379947343
H           -5.71001285329750        4.34500564487930       -5.07988964048168
H           -6.13726133390812        2.64204047851362       -4.88908509331308
H           -7.84653775568802        3.40209970977891       -3.17278633453196
H           -7.28857751675933        5.05902616829644       -3.37379982346067
H           -7.32353959988355        4.34603938066699       -1.76572248023749
H           -5.66445122075140       -3.26807932097584        1.40740090645731
H           -7.92600449748572       -3.19945066287531        2.26987922712118
H           -8.68267081284902        0.49496894715560        0.23701879748592
H          -10.16563405592612       -3.41860392381784        2.23732850856612
H           -9.58805498677473       -2.51560858151977        3.64984841361408
H          -11.26604914566602       -2.38258751599723        3.13751307430447
H           -9.91263688340121        0.88025642146857        2.09745599562488
H          -11.08791131937562        0.04405011876833        3.10909171633666
H           -9.37349119490103        0.01093492664793        3.53180580709028
H          -10.74196398269240       -2.18504020465746        0.09668021303883
H          -11.90745253592766       -1.27637825239205        1.06380888245746
H          -10.73573517405983       -0.42364422011671        0.06219231333781

          :  Hamiltonian                  GFN2-xTB          :
         :: gradient norm              0.000061806479 Eh/a0 ::
         :: HOMO-LUMO gap              2.565059850142 eV    ::
         :: SCC energy              -159.882712645408 Eh    ::
         :: -> dispersion             -0.142253471713 Eh    ::
         :: repulsion energy           2.631611400952 Eh    ::

    * Orbital Energies and Occupations

         #    Occupation            Energy/Eh            Energy/eV
      -------------------------------------------------------------
         1        2.0000           -0.7649313             -20.8148
       ...           ...                  ...                  ...
       134        2.0000           -0.4190474             -11.4029
       135        2.0000           -0.4182481             -11.3811
       136        2.0000           -0.4116911             -11.2027
       137        2.0000           -0.4116679             -11.2021
       138        2.0000           -0.4098776             -11.1533
       139        2.0000           -0.4096442             -11.1470
       140        2.0000           -0.4018222             -10.9341
       141        2.0000           -0.3988860             -10.8542
       142        2.0000           -0.3984131             -10.8414
       143        2.0000           -0.3774297             -10.2704
       144        2.0000           -0.3774219             -10.2702
       145        2.0000           -0.3628446              -9.8735
       146        2.0000           -0.3619292              -9.8486 (HOMO)
       147                         -0.2676649              -7.2835 (LUMO)
       148                         -0.2524647              -6.8699
       149                         -0.2486266              -6.7655
       150                         -0.2476405              -6.7386
       151                         -0.2432106              -6.6181
       152                         -0.2416673              -6.5761
       153                         -0.2213059              -6.0220
       154                         -0.2213015              -6.0219
       155                         -0.1954626              -5.3188
       156                         -0.1930157              -5.2522
       157                         -0.1860660              -5.0631
       ...                                ...                  ...
       289                          1.2054263              32.8013
      -------------------------------------------------------------
                  HL-Gap            0.0942642 Eh            2.5651 eV

     #   Z          covCN         q      C6AA      α(0)
     1   6 C        3.762    -0.106    22.567     6.772
     2   6 C        3.903     0.026    20.086     6.371
     3   6 C        3.761    -0.106    22.565     6.772
     4   6 C        3.761    -0.107    22.600     6.777
     5   6 C        2.973    -0.000    28.032     8.685
     6   6 C        2.918    -0.043    29.067     8.841
     7   6 C        3.065    -0.018    28.387     8.737
     8   6 C        3.074     0.042    26.993     8.519
     9   6 C        2.909    -0.054    29.342     8.882
    10   6 C        2.931    -0.039    28.965     8.826
    11   7 N        2.801    -0.042    22.047     6.974
    12   6 C        3.072     0.042    26.991     8.518
    13   6 C        3.065    -0.018    28.382     8.736
    14   6 C        2.920    -0.039    28.970     8.826
    15   6 C        2.972     0.000    28.023     8.683
    16   6 C        2.929    -0.043    29.062     8.841
    17   6 C        2.909    -0.054    29.345     8.883
    18   6 C        3.903     0.026    20.086     6.371
    19   6 C        3.762    -0.106    22.565     6.772
    20   6 C        3.762    -0.106    22.565     6.772
    21   6 C        3.761    -0.108    22.605     6.778
    22   6 C        2.912     0.072    26.384     8.423
    23   6 C        2.924    -0.041    29.020     8.834
    24   6 C        2.956    -0.027    28.679     8.784
    25   6 C        2.970    -0.082    30.036     8.990
    26   6 C        2.955    -0.027    28.666     8.782
    27   6 C        2.924    -0.042    29.032     8.836
    28  16 S        3.815     0.939   108.424    17.525
    29   8 O        0.860    -0.540    24.695     6.663
    30   8 O        0.860    -0.540    24.696     6.663
    31   6 C        2.970    -0.082    30.036     8.990
    32   6 C        2.956    -0.027    28.679     8.784
    33   6 C        2.924    -0.041    29.019     8.834
    34   6 C        2.912     0.072    26.384     8.423
    35   6 C        2.924    -0.042    29.033     8.836
    36   6 C        2.955    -0.027    28.667     8.782
    37   7 N        2.801    -0.042    22.047     6.974
    38   6 C        3.074     0.042    26.993     8.519
    39   6 C        3.065    -0.018    28.387     8.737
    40   6 C        2.918    -0.043    29.067     8.841
    41   6 C        2.973    -0.000    28.032     8.685
    42   6 C        2.931    -0.039    28.964     8.826
    43   6 C        2.909    -0.054    29.343     8.882
    44   6 C        3.903     0.026    20.086     6.371
    45   6 C        3.761    -0.106    22.565     6.772
    46   6 C        3.762    -0.106    22.567     6.772
    47   6 C        3.761    -0.107    22.600     6.777
    48   6 C        3.065    -0.018    28.382     8.736
    49   6 C        3.072     0.042    26.992     8.518
    50   6 C        2.909    -0.054    29.346     8.883
    51   6 C        2.929    -0.043    29.062     8.841
    52   6 C        2.972     0.000    28.023     8.683
    53   6 C        2.920    -0.039    28.970     8.826
    54   6 C        3.903     0.026    20.086     6.371
    55   6 C        3.761    -0.108    22.605     6.778
    56   6 C        3.762    -0.106    22.565     6.771
    57   6 C        3.762    -0.106    22.565     6.772
    58   1 H        0.925     0.037     2.491     2.468
    59   1 H        0.925     0.036     2.507     2.476
    60   1 H        0.925     0.034     2.532     2.489
    61   1 H        0.925     0.033     2.538     2.491
    62   1 H        0.925     0.037     2.490     2.468
    63   1 H        0.925     0.036     2.509     2.477
    64   1 H        0.925     0.036     2.509     2.477
    65   1 H        0.925     0.036     2.503     2.474
    66   1 H        0.925     0.036     2.504     2.475
    67   1 H        0.926     0.039     2.460     2.453
    68   1 H        0.926     0.024     2.675     2.558
    69   1 H        0.926     0.031     2.576     2.510
    70   1 H        0.926     0.033     2.550     2.497
    71   1 H        0.926     0.039     2.459     2.452
    72   1 H        0.926     0.028     2.619     2.531
    73   1 H        0.925     0.036     2.502     2.473
    74   1 H        0.925     0.034     2.534     2.490
    75   1 H        0.925     0.037     2.492     2.469
    76   1 H        0.925     0.033     2.541     2.493
    77   1 H        0.925     0.037     2.493     2.469
    78   1 H        0.925     0.036     2.501     2.473
    79   1 H        0.925     0.036     2.504     2.475
    80   1 H        0.925     0.036     2.509     2.477
    81   1 H        0.925     0.036     2.500     2.473
    82   1 H        0.926     0.057     2.233     2.337
    83   1 H        0.926     0.059     2.213     2.326
    84   1 H        0.926     0.063     2.166     2.301
    85   1 H        0.926     0.057     2.233     2.337
    86   1 H        0.926     0.059     2.206     2.323
    87   1 H        0.926     0.057     2.233     2.337
    88   1 H        0.926     0.057     2.233     2.337
    89   1 H        0.926     0.062     2.171     2.304
    90   1 H        0.926     0.039     2.460     2.453
    91   1 H        0.926     0.031     2.576     2.510
    92   1 H        0.926     0.024     2.675     2.557
    93   1 H        0.925     0.033     2.538     2.491
    94   1 H        0.925     0.036     2.509     2.477
    95   1 H        0.925     0.037     2.490     2.467
    96   1 H        0.925     0.036     2.506     2.476
    97   1 H        0.925     0.037     2.491     2.468
    98   1 H        0.925     0.034     2.532     2.489
    99   1 H        0.925     0.036     2.503     2.474
   100   1 H        0.925     0.036     2.504     2.475
   101   1 H        0.925     0.036     2.509     2.477
   102   1 H        0.926     0.028     2.620     2.531
   103   1 H        0.926     0.039     2.459     2.452
   104   1 H        0.926     0.033     2.550     2.497
   105   1 H        0.925     0.036     2.504     2.475
   106   1 H        0.925     0.036     2.509     2.477
   107   1 H        0.925     0.036     2.500     2.473
   108   1 H        0.925     0.036     2.501     2.473
   109   1 H        0.925     0.037     2.493     2.469
   110   1 H        0.925     0.033     2.541     2.493
   111   1 H        0.925     0.034     2.534     2.489
   112   1 H        0.925     0.037     2.492     2.469
   113   1 H        0.925     0.036     2.502     2.473

molecular dipole:
                 x           y           z       tot (Debye)
 q only:       -0.020       2.703      -0.057
   full:       -0.019       2.518      -0.053       6.402

 projected vibrational frequencies (cm⁻¹)
eigval :       -0.00    -0.00    -0.00     0.00     0.00     0.00
eigval :       -2.23     4.57     5.17    19.19    22.66    28.83
eigval :       30.64    31.19    31.43    32.26    32.28    52.18
eigval :       54.65    70.33    72.41    74.97    79.52    91.32
eigval :       93.46   105.38   110.17   112.39   134.30   135.89
eigval :      141.00   158.32   158.97   163.44   176.13   177.09
eigval :      179.54   183.68   188.00   194.47   194.55   217.47
eigval :      217.53   221.41   221.79   236.76   238.11   247.51
eigval :      248.96   256.71   267.71   268.53   280.64   281.55
eigval :      292.28   305.21   306.73   314.52   319.28   319.41
eigval :      325.81   326.19   328.06   335.24   338.94   354.24
eigval :      356.74   357.42   359.08   371.90   377.17   378.69
eigval :      379.53   390.60   397.58   403.79   406.31   411.19
eigval :      412.44   414.48   415.01   442.10   442.61   443.83
eigval :      444.31   456.82   463.33   464.49   467.00   469.53
eigval :      469.80   489.58   498.05   518.84   519.14   529.48
eigval :      549.94   572.53   573.29   582.60   582.61   586.95
eigval :      592.12   600.24   601.71   627.64   627.98   640.48
eigval :      640.48   675.59   678.96   683.16   688.38   688.40
eigval :      694.29   707.90   707.91   720.91   721.13   744.41
eigval :      753.12   810.40   814.45   821.68   822.01   825.25
eigval :      827.50   832.88   832.92   870.66   871.13   873.90
eigval :      873.93   877.63   878.95   882.67   883.89   907.25
eigval :      907.77   912.05   912.47   918.51   920.27   923.40
eigval :      924.92   926.73   927.02   931.13   932.70   941.11
eigval :      942.38   960.17   960.17   960.51   960.51   962.83
eigval :      962.83   962.87   962.89   963.15   963.17   963.30
eigval :      963.31  1004.93  1007.53  1032.61  1032.64  1035.85
eigval :     1035.86  1035.88  1035.90  1035.93  1035.94  1039.92
eigval :     1039.95  1085.93  1109.44  1114.95  1116.63  1119.84
eigval :     1120.55  1131.24  1131.81  1131.83  1144.26  1144.68
eigval :     1171.47  1175.45  1179.26  1179.31  1213.27  1213.76
eigval :     1228.02  1228.03  1228.39  1228.42  1229.35  1229.36
eigval :     1232.74  1232.78  1235.10  1235.16  1238.02  1245.68
eigval :     1249.41  1249.64  1253.17  1259.51  1259.60  1285.03
eigval :     1285.09  1300.62  1300.72  1307.09  1307.12  1323.56
eigval :     1324.77  1347.19  1347.28  1359.35  1359.45  1370.75
eigval :     1373.88  1396.35  1397.50  1404.00  1404.35  1404.83
eigval :     1404.84  1406.04  1406.07  1406.29  1406.33  1414.80
eigval :     1415.02  1429.58  1429.60  1429.68  1429.70  1436.84
eigval :     1438.07  1474.55  1474.92  1475.90  1478.62  1483.13
eigval :     1483.16  1492.21  1492.22  1492.31  1492.31  1494.83
eigval :     1494.85  1494.91  1494.96  1501.53  1501.55  1502.46
eigval :     1502.49  1505.60  1505.62  1505.87  1505.88  1515.03
eigval :     1515.03  1515.44  1515.45  1520.40  1520.41  1520.55
eigval :     1520.56  1568.36  1569.09  1574.47  1575.99  1576.94
eigval :     1578.36  1584.82  1584.96  1605.28  1605.31  1618.00
eigval :     1618.16  3021.81  3021.82  3022.13  3022.13  3023.69
eigval :     3023.71  3023.75  3023.76  3027.32  3027.33  3027.58
eigval :     3027.61  3030.44  3030.45  3030.76  3030.88  3031.42
eigval :     3031.44  3031.62  3031.73  3036.03  3036.06  3036.45
eigval :     3036.49  3038.48  3038.54  3038.98  3039.02  3047.22
eigval :     3047.24  3047.39  3047.39  3050.58  3050.61  3051.00
eigval :     3051.05  3078.76  3078.88  3085.52  3085.54  3091.07
eigval :     3091.09  3093.49  3093.55  3096.48  3097.01  3097.12
eigval :     3097.79  3107.00  3107.29  3108.95  3109.15  3119.00
eigval :     3119.03  3121.64  3121.68

   temp. (K)  partition function   enthalpy   heat capacity  entropy
                                   cal/mol     cal/K/mol   cal/K/mol   J/K/mol
 298.15  VIB  0.144E+28            33258.656    202.460    209.205
         ROT  0.237E+09              888.752      2.981     41.300
         INT  0.342E+36            34147.408    205.441    250.505
         TR   0.208E+29             1481.254      4.968     45.794
         TOT                       35628.6620   210.4090   296.2989  1239.7147

       T/K    H(0)-H(T)+PV         H(T)/Eh          T*S/Eh         G(T)/Eh
   ------------------------------------------------------------------------
    298.15    0.567779E-01    0.990684E+00    0.140781E+00    0.849903E+00
   ------------------------------------------------------------------------

         :::::::::::::::::::::::::::::::::::::::::::::::::::::
         ::                  THERMODYNAMIC                  ::
         :::::::::::::::::::::::::::::::::::::::::::::::::::::
         :: total free energy        -156.401198723112 Eh   ::
         ::.................................................::
         :: total energy             -157.251101244465 Eh   ::
         :: zero point energy           0.933905809378 Eh   ::
         :: G(RRHO) w/o ZPVE           -0.084003288025 Eh   ::
         :: G(RRHO) contrib.            0.849902521353 Eh   ::
         :::::::::::::::::::::::::::::::::::::::::::::::::::::

           -------------------------------------------------
          | TOTAL ENERGY             -157.251101244465 Eh   |
          | TOTAL ENTHALPY           -156.260417548152 Eh   |
          | TOTAL FREE ENERGY        -156.401198723112 Eh   |
          | GRADIENT NORM               0.000061807075 Eh/α |
          | HOMO-LUMO GAP               2.565059753293 eV   |
           -------------------------------------------------

 * finished run on 2025/06/06 at 21:57:31.440
