   * xtb version 6.7.1 (edcfbbe) compiled by 'albert@albert-system' on 2024-07-22

   ID    Z sym.   atoms
    1    6 C      1, 3-14, 16-22, 24, 25, 27-30, 32, 33
    2    8 O      2
    3    7 N      15, 23, 26, 31
    4    1 H      34-53

          program call               : xtb data2507/toluene/Me-MOC/Me-MOC_toluene_S0_finalOpt.xtbopt.xyz --gfn 2 --uhf 2 --gbsa toluene --ohess vtight --parallel 40 --molden --ceasefiles --namespace data2507/toluene/Me-MOC/Me-MOC_toluene_T1_preOpt
      * Solvation model:               GBSA
        Solvent                        toluene
        Solvent mass                       9.2140E+01 g/mol
          :  Hamiltonian                  GFN2-xTB          :
 * total energy  :   -85.8415300 Eh     change        0.3376499E-10 Eh
 * total energy  :   -85.8448148 Eh     change       -0.3284803E-02 Eh
 * total energy  :   -85.8462119 Eh     change       -0.1397076E-02 Eh
 * total energy  :   -85.8465958 Eh     change       -0.3839357E-03 Eh
 * total energy  :   -85.8473552 Eh     change       -0.7593530E-03 Eh
 * total energy  :   -85.8477397 Eh     change       -0.3845304E-03 Eh
 * total energy  :   -85.8479798 Eh     change       -0.2401011E-03 Eh
 * total energy  :   -85.8480769 Eh     change       -0.9705374E-04 Eh
 * total energy  :   -85.8482511 Eh     change       -0.1742435E-03 Eh
 * total energy  :   -85.8483667 Eh     change       -0.1155772E-03 Eh
 * total energy  :   -85.8491455 Eh     change        0.2731484E-05 Eh
 * total energy  :   -85.8491500 Eh     change       -0.4527909E-05 Eh
 * total energy  :   -85.8491507 Eh     change       -0.6286730E-06 Eh
 * total energy  :   -85.8491515 Eh     change       -0.7904279E-06 Eh
 * total energy  :   -85.8491518 Eh     change       -0.3435215E-06 Eh
 * total energy  :   -85.8491523 Eh     change       -0.4870726E-06 Eh
 * total energy  :   -85.8491525 Eh     change       -0.2051307E-06 Eh
 * total energy  :   -85.8491525 Eh     change       -0.9597983E-08 Eh
 * total energy  :   -85.8491526 Eh     change       -0.9871421E-07 Eh
   *** GEOMETRY OPTIMIZATION CONVERGED AFTER 66 ITERATIONS ***

 final structure:
================
53
 xtb: 6.7.1 (edcfbbe)
C           -7.54261698318323       -2.53118859242495        0.18150962680216
O           -6.20242893205223       -2.97981159017400        0.23445154270451
C           -5.19953329194538       -2.08573896472992        0.17156000373850
C           -3.90073463301195       -2.63755978913394        0.24550609657859
C           -2.77680648051384       -1.85248841231887        0.18486209892664
C           -2.94373684732997       -0.47346278125866        0.03479504270943
C           -4.24605943818401        0.09583680672005       -0.00043240220989
C           -5.37253659828531       -0.70280181446158        0.06088240985079
C           -4.06181121579833        1.52191952798092       -0.08854306649139
C           -4.93483249236986        2.59388112620669       -0.17122815975807
C           -4.40524332178813        3.87178234473816       -0.28195130450040
C           -3.03054545049110        4.07778132752272       -0.33320307752307
C           -2.13861844247194        3.01907978503238       -0.25344981149813
C           -2.66237009835563        1.74301247261843       -0.10435933999779
N           -2.00579371180166        0.52351633518025       -0.02516404478990
C           -0.63006920033861        0.34929377457320       -0.02053948021690
C           -0.02527111210777       -0.63901382130213       -0.82355197588228
C            1.32832383408033       -0.80783639884809       -0.82008074504370
C            2.18235740089024       -0.00808036297506       -0.00793226382334
C            3.59042272607254       -0.18487629679226       -0.00227660294571
C            4.50872124727198        0.89979593279102        0.24349698210478
C            4.09238211317799        2.23012224584309        0.35391601599942
N            3.82537200609820        3.35216141483522        0.41206042849142
C            5.88324110022911        0.66924995859088        0.24563374944341
C            6.86562985264854        1.77334741740974        0.48349739761847
N            6.40013772595346       -0.53731422811836        0.02710461937180
C            5.60560832788205       -1.57824028434640       -0.20931360792446
C            6.28920631388585       -2.89147828174179       -0.43094556946918
C            4.21686702208543       -1.46213442197046       -0.23893915671100
C            3.49027157352092       -2.64902036706930       -0.37574184143950
N            2.96091592102112       -3.67215855357483       -0.45752602433262
C            1.54802051777196        0.97941707712457        0.79910430447274
C            0.19535245315202        1.15543674892240        0.78955170475025
H           -7.74964101854639       -2.01150401761803       -0.75777127230959
H           -8.15308905644472       -3.43039202725835        0.24106618423515
H           -7.77483698435165       -1.87660747785065        1.02582136732082
H           -3.82059381223759       -3.70648175656946        0.36071453661940
H           -1.79531444314215       -2.29113894316704        0.26760438115156
H           -6.35170089854850       -0.25513068917801        0.03000965021132
H           -6.00224919390353        2.43915957403833       -0.15543597212065
H           -5.06948570081417        4.72025418723488       -0.34438109178115
H           -2.64673819294942        5.08034586713114       -0.44371249083964
H           -1.07508486017438        3.18652964083756       -0.32066733688784
H           -0.63901349131157       -1.21786097533603       -1.49759489481366
H            1.76985860815232       -1.52539645087372       -1.49370883988055
H            6.72610666300040        2.57241595881294       -0.24379048813278
H            6.72442807736178        2.20119901250120        1.47567579057811
H            7.87466228612381        1.37894502628483        0.40159801481065
H            5.99701250354792       -3.31925146051340       -1.38916800764272
H            7.36533842680360       -2.74326260135133       -0.41123255644718
H            6.00854427095773       -3.60109462036012        0.34710334020277
H            2.14848731593169        1.56383429809562        1.47858330085204
H           -0.25952163765735        1.86949308843892        1.45975083137182

          :  Hamiltonian                  GFN2-xTB          :
         :: gradient norm              0.000074726602 Eh/a0 ::
         :: HOMO-LUMO gap              0.390810530535 eV    ::
         :: SCC energy               -87.371648507569 Eh    ::
         :: -> dispersion             -0.068139385922 Eh    ::
         :: -> Gsolv                  -0.049667775862 Eh    ::
         :: repulsion energy           1.522495911310 Eh    ::

    * Orbital Energies and Occupations

         #    Occupation            Energy/Eh            Energy/eV
      -------------------------------------------------------------
         1        2.0000           -0.7401911             -20.1416
       ...           ...                  ...                  ...
        68        2.0000           -0.4370863             -11.8937
        69        2.0000           -0.4362111             -11.8699
        70        2.0000           -0.4265467             -11.6069
        71        2.0000           -0.4255065             -11.5786
        72        2.0000           -0.4195992             -11.4179
        73        2.0000           -0.4170160             -11.3476
        74        2.0000           -0.4123777             -11.2214
        75        2.0000           -0.4038241             -10.9886
        76        2.0000           -0.4033201             -10.9749
        77        2.0000           -0.3961442             -10.7796
        78        1.8837           -0.3784879             -10.2992
        79        1.1163           -0.3746345             -10.1943
        80        0.9995           -0.2854783              -7.7683 (HOMO)
        81        0.0005           -0.2711159              -7.3774 (LUMO)
        82        0.0000           -0.2677843              -7.2868
        83                         -0.2440720              -6.6415
        84                         -0.2309140              -6.2835
        85                         -0.2287450              -6.2245
        86                         -0.2088712              -5.6837
        87                         -0.2051496              -5.5824
        88                         -0.2028352              -5.5194
        89                         -0.2021435              -5.5006
        90                         -0.1977196              -5.3802
        91                         -0.1334943              -3.6326
       ...                                ...                  ...
       152                          1.1525093              31.3614
      -------------------------------------------------------------
                  HL-Gap            0.0143624 Eh            0.3908 eV

     #   Z          covCN         q      C6AA      α(0)
     1   6 C        3.643     0.021    20.560     6.519
     2   8 O        1.706    -0.240    17.976     5.724
     3   6 C        2.864     0.155    24.631     8.135
     4   6 C        2.921    -0.052    29.290     8.875
     5   6 C        2.907    -0.032    28.801     8.800
     6   6 C        3.071     0.039    27.047     8.527
     7   6 C        3.062    -0.002    28.020     8.680
     8   6 C        2.907    -0.062    29.532     8.911
     9   6 C        3.060    -0.008    28.153     8.701
    10   6 C        2.911    -0.024    28.591     8.768
    11   6 C        2.919    -0.027    28.670     8.780
    12   6 C        2.922    -0.027    28.688     8.783
    13   6 C        2.909    -0.032    28.798     8.800
    14   6 C        3.074     0.042    26.979     8.516
    15   7 N        2.799     0.027    20.770     6.769
    16   6 C        2.912     0.036    27.203     8.553
    17   6 C        2.912    -0.039    28.963     8.825
    18   6 C        2.918    -0.041    29.014     8.833
    19   6 C        2.966     0.003    27.962     8.674
    20   6 C        2.972    -0.015    28.385     8.739
    21   6 C        2.965    -0.030    28.746     8.794
    22   6 C        1.917     0.113    28.305     8.592
    23   7 N        0.911    -0.322    28.286     7.692
    24   6 C        2.946     0.106    25.651     8.307
    25   6 C        3.760    -0.113    22.703     6.793
    26   7 N        1.848    -0.272    27.913     7.830
    27   6 C        2.947     0.106    25.651     8.307
    28   6 C        3.760    -0.113    22.701     6.792
    29   6 C        2.965    -0.030    28.744     8.794
    30   6 C        1.917     0.113    28.308     8.592
    31   7 N        0.911    -0.322    28.274     7.690
    32   6 C        2.918    -0.041    29.012     8.833
    33   6 C        2.912    -0.038    28.947     8.822
    34   1 H        0.924     0.064     2.149     2.293
    35   1 H        0.925     0.080     1.978     2.200
    36   1 H        0.924     0.064     2.149     2.293
    37   1 H        0.926     0.067     2.122     2.278
    38   1 H        0.926     0.061     2.181     2.310
    39   1 H        0.926     0.069     2.097     2.264
    40   1 H        0.926     0.056     2.249     2.345
    41   1 H        0.926     0.052     2.295     2.369
    42   1 H        0.926     0.050     2.319     2.382
    43   1 H        0.926     0.051     2.308     2.375
    44   1 H        0.926     0.046     2.369     2.407
    45   1 H        0.926     0.032     2.553     2.499
    46   1 H        0.925     0.054     2.276     2.359
    47   1 H        0.925     0.054     2.267     2.355
    48   1 H        0.925     0.065     2.138     2.287
    49   1 H        0.925     0.053     2.282     2.363
    50   1 H        0.925     0.065     2.138     2.286
    51   1 H        0.925     0.055     2.262     2.352
    52   1 H        0.926     0.032     2.558     2.501
    53   1 H        0.926     0.046     2.370     2.407

molecular dipole:
                 x           y           z       tot (Debye)
 q only:       -6.212       0.357       0.009
   full:       -6.075       0.397       0.010      15.473

 projected vibrational frequencies (cm⁻¹)
eigval :       -0.00    -0.00     0.00     0.00     0.00     0.00
eigval :        9.26    20.07    25.96    34.90    56.73    61.32
eigval :       65.57    70.92    83.13    86.65    93.00   111.86
eigval :      128.67   148.37   160.75   161.99   167.18   173.35
eigval :      187.04   210.66   226.41   245.14   255.44   257.86
eigval :      270.64   281.51   308.55   331.63   361.91   384.42
eigval :      390.00   391.69   392.69   400.74   413.65   425.03
eigval :      449.95   460.11   461.07   472.40   477.94   490.96
eigval :      500.79   516.76   549.90   569.34   581.44   586.13
eigval :      592.61   605.49   618.67   622.16   644.75   646.35
eigval :      662.34   677.01   683.72   704.04   725.96   770.76
eigval :      796.33   817.97   827.88   840.97   854.82   862.22
eigval :      868.81   881.32   898.78   903.43   911.96   913.89
eigval :      919.62   922.12   925.10   971.85   991.30  1003.19
eigval :     1012.26  1013.92  1022.06  1041.36  1068.14  1092.33
eigval :     1103.29  1105.70  1118.20  1124.70  1142.40  1144.44
eigval :     1167.64  1175.17  1189.01  1210.36  1218.54  1223.59
eigval :     1235.88  1250.06  1262.69  1267.35  1269.38  1316.27
eigval :     1323.41  1336.44  1341.64  1351.87  1360.64  1387.42
eigval :     1389.40  1390.52  1392.82  1402.16  1406.60  1414.26
eigval :     1424.43  1448.68  1453.38  1455.34  1458.10  1460.66
eigval :     1461.64  1462.12  1463.62  1464.10  1478.11  1493.82
eigval :     1527.98  1553.85  1562.75  1566.13  1582.46  2260.95
eigval :     2293.40  2952.71  2961.15  3001.82  3002.29  3016.56
eigval :     3017.05  3032.91  3055.45  3056.38  3082.11  3084.22
eigval :     3088.18  3094.25  3100.81  3101.49  3103.56  3103.83
eigval :     3105.80  3117.50  3121.94

   temp. (K)  partition function   enthalpy   heat capacity  entropy
                                   cal/mol     cal/K/mol   cal/K/mol   J/K/mol
 298.15  VIB  0.692E+13            16810.262    102.485    105.520
         ROT  0.308E+08              888.752      2.981     37.246
         INT  0.213E+21            17699.014    105.466    142.765
         TR   0.858E+28             1481.254      4.968     44.035
         TOT                       19180.2683   110.4337   186.8008   781.5744

       T/K    H(0)-H(T)+PV         H(T)/Eh          T*S/Eh         G(T)/Eh
   ------------------------------------------------------------------------
    298.15    0.305657E-01    0.424507E+00    0.887551E-01    0.335752E+00
   ------------------------------------------------------------------------

         :::::::::::::::::::::::::::::::::::::::::::::::::::::
         ::                  THERMODYNAMIC                  ::
         :::::::::::::::::::::::::::::::::::::::::::::::::::::
         :: total free energy         -85.513400417385 Eh   ::
         ::.................................................::
         :: total energy              -85.849152596937 Eh   ::
         :: zero point energy           0.393941550157 Eh   ::
         :: G(RRHO) w/o ZPVE           -0.058189370605 Eh   ::
         :: G(RRHO) contrib.            0.335752179552 Eh   ::
         :::::::::::::::::::::::::::::::::::::::::::::::::::::

           -------------------------------------------------
          | TOTAL ENERGY              -85.849152596937 Eh   |
          | TOTAL ENTHALPY            -85.424645343654 Eh   |
          | TOTAL FREE ENERGY         -85.513400417385 Eh   |
          | GRADIENT NORM               0.000073853558 Eh/α |
          | HOMO-LUMO GAP               0.390820868255 eV   |
           -------------------------------------------------

 * finished run on 2025/07/18 at 00:18:20.617
