   * xtb version 6.7.1 (edcfbbe) compiled by 'albert@albert-system' on 2024-07-22

   ID    Z sym.   atoms
    1    6 C      1, 3-14, 16-22, 24, 25, 27-30, 32, 33
    2    8 O      2
    3    7 N      15, 23, 26, 31
    4    1 H      34-53

          program call               : xtb data2507/toluene/Me-MOC/Me-MOC.xyz --gfn 2 --gbsa toluene --ohess vtight --parallel 40 --molden --ceasefiles --namespace data2507/toluene/Me-MOC/Me-MOC_toluene_S0_preOpt
      * Solvation model:               GBSA
        Solvent                        toluene
        Solvent mass                       9.2140E+01 g/mol
          :  Hamiltonian                  GFN2-xTB          :
 * total energy  :   -85.9167652 Eh     change       -0.2094126E-08 Eh
 * total energy  :   -85.9279798 Eh     change       -0.1121462E-01 Eh
 * total energy  :   -85.9298400 Eh     change       -0.1860134E-02 Eh
 * total energy  :   -85.9297781 Eh     change        0.6186570E-04 Eh
 * total energy  :   -85.9301196 Eh     change       -0.3415099E-03 Eh
 * total energy  :   -85.9301707 Eh     change       -0.5110755E-04 Eh
 * total energy  :   -85.9301759 Eh     change       -0.5136887E-05 Eh
 * total energy  :   -85.9302489 Eh     change       -0.7303100E-04 Eh
 * total energy  :   -85.9302694 Eh     change       -0.2055691E-04 Eh
 * total energy  :   -85.9302941 Eh     change       -0.2467587E-04 Eh
 * total energy  :   -85.9327692 Eh     change       -0.6800825E-06 Eh
 * total energy  :   -85.9327697 Eh     change       -0.5372771E-06 Eh
 * total energy  :   -85.9327700 Eh     change       -0.3320736E-06 Eh
 * total energy  :   -85.9327703 Eh     change       -0.2688699E-06 Eh
 * total energy  :   -85.9327705 Eh     change       -0.2550277E-06 Eh
 * total energy  :   -85.9327708 Eh     change       -0.2280604E-06 Eh
 * total energy  :   -85.9327709 Eh     change       -0.1706756E-06 Eh
 * total energy  :   -85.9327711 Eh     change       -0.1193266E-06 Eh
 * total energy  :   -85.9327711 Eh     change       -0.5967408E-08 Eh
   *** GEOMETRY OPTIMIZATION CONVERGED AFTER 68 ITERATIONS ***

 final structure:
================
53
 xtb: 6.7.1 (edcfbbe)
C           -7.39834373957032       -2.58503227454414       -0.04103332038354
O           -6.06869601643052       -3.05243442426348       -0.00144344970915
C           -5.05505812779681       -2.13211980666308        0.00810211950089
C           -3.76194754619399       -2.67751158592885        0.04499503647750
C           -2.63706259026969       -1.88206630293467        0.04780687977210
C           -2.81108894512798       -0.50503130938442        0.00048641848660
C           -4.10535697633157        0.05378703927495       -0.00252955817118
C           -5.23456541093345       -0.75866848501921       -0.00428401593108
C           -3.93681244050486        1.48036819394455        0.01169765936864
C           -4.82815020220658        2.54594803579972       -0.00508118500397
C           -4.32413591151953        3.83122333559570       -0.01371483806913
C           -2.94972231250913        4.06002570788745       -0.02542349433290
C           -2.04337320388831        3.01652298002756       -0.00912928438997
C           -2.54350243337630        1.72217234288307        0.03082170797980
N           -1.87065896383918        0.51364198706507        0.02336505908760
C           -0.48602949910408        0.34527770697400        0.02232712750042
C            0.11515045858394       -0.54002012761207       -0.87250682088202
C            1.48271478001377       -0.71359609909726       -0.86679812896454
C            2.28515510170093        0.00897230248031        0.01515322325025
C            3.74047634398617       -0.16544486265138        0.00735736487256
C            4.60781081010530        0.93569895385227       -0.05252854605807
C            4.10939210297351        2.25065098212846       -0.15786110350612
N            3.74830480240483        3.33519293471824       -0.26659724269217
C            5.99980144430434        0.72095534244583       -0.06247123035535
C            6.96107515405696        1.85762221168591       -0.13775167480365
N            6.51044606811764       -0.49720345371706       -0.01281908067513
C            5.72735898142717       -1.56056478890865        0.04485796222653
C            6.39396270036690       -2.89234788205372        0.10495009441690
C            4.32403612976678       -1.44034759449555        0.05589374340389
C            3.53023476466298       -2.60051675234304        0.16848101134974
N            2.92390275371161       -3.56900958946819        0.28133758933148
C            1.68330177140711        0.90051727439765        0.90200963254803
C            0.31379344398089        1.05924592901314        0.91468484601206
H           -7.58734106015244       -1.99381050288083       -0.94260321425396
H           -8.02116904606619       -3.47807146321143       -0.05679787187783
H           -7.63926911736308       -1.98960836656285        0.84527898343861
H           -3.67315570257894       -3.75217787452706        0.07609174478053
H           -1.65590601441296       -2.32801397252287        0.09826200757825
H           -6.21379489923365       -0.30888662550692       -0.00868932545587
H           -5.89299479494432        2.36830402008554       -0.01647314358196
H           -5.00029440429012        4.67335404876476       -0.02332114930845
H           -2.58299575802288        5.07568083181938       -0.05199737702099
H           -0.98175593829830        3.20924221895562       -0.04115659186663
H           -0.49351323674418       -1.07638045778789       -1.58372691398911
H            1.93729256642506       -1.38825781033847       -1.57749636785994
H            6.79997410484147        2.54898685268396        0.68837295539419
H            7.97682792864878        1.47480632921087       -0.10215231381440
H            6.81429314212031        2.41397482294141       -1.06311024501278
H            7.47076833139726       -2.76019428942786        0.05448032700551
H            6.13335282157374       -3.40252270243537        1.03184090171865
H            6.06244742446456       -3.52245091793877       -0.71935733249832
H            2.28974647683278        1.44630223486529        1.61000307371369
H           -0.14493111616729        1.72381670272914        1.63019835125789

          :  Hamiltonian                  GFN2-xTB          :
         :: gradient norm              0.000095501077 Eh/a0 ::
         :: HOMO-LUMO gap              1.707276237512 eV    ::
         :: SCC energy               -87.477263753672 Eh    ::
         :: -> dispersion             -0.068320399620 Eh    ::
         :: -> Gsolv                  -0.040591839197 Eh    ::
         :: repulsion energy           1.544492681557 Eh    ::

    * Orbital Energies and Occupations

         #    Occupation            Energy/Eh            Energy/eV
      -------------------------------------------------------------
         1        2.0000           -0.7150211             -19.4567
       ...           ...                  ...                  ...
        67        2.0000           -0.4420170             -12.0279
        68        2.0000           -0.4382422             -11.9252
        69        2.0000           -0.4355238             -11.8512
        70        2.0000           -0.4278441             -11.6422
        71        2.0000           -0.4274237             -11.6308
        72        2.0000           -0.4251905             -11.5700
        73        2.0000           -0.4225064             -11.4970
        74        2.0000           -0.4196904             -11.4204
        75        2.0000           -0.4166302             -11.3371
        76        2.0000           -0.3989835             -10.8569
        77        2.0000           -0.3971346             -10.8066
        78        2.0000           -0.3802843             -10.3481
        79        2.0000           -0.3608549              -9.8194 (HOMO)
        80                         -0.2981136              -8.1121 (LUMO)
        81                         -0.2966066              -8.0711
        82                         -0.2503651              -6.8128
        83                         -0.2462510              -6.7008
        84                         -0.2389445              -6.5020
        85                         -0.2255026              -6.1362
        86                         -0.2252225              -6.1286
        87                         -0.2221579              -6.0452
        88                         -0.2217162              -6.0332
        89                         -0.1925693              -5.2401
        90                         -0.1881083              -5.1187
       ...                                ...                  ...
       152                          1.1472568              31.2184
      -------------------------------------------------------------
                  HL-Gap            0.0627412 Eh            1.7073 eV

     #   Z          covCN         q      C6AA      α(0)
     1   6 C        3.642     0.037    20.298     6.477
     2   8 O        1.705    -0.294    18.892     5.868
     3   6 C        2.864     0.132    25.107     8.213
     4   6 C        2.925    -0.057    29.423     8.895
     5   6 C        2.909    -0.049    29.225     8.864
     6   6 C        3.072     0.036    27.113     8.538
     7   6 C        3.067    -0.017    28.358     8.732
     8   6 C        2.910    -0.072    29.802     8.952
     9   6 C        3.068    -0.016    28.343     8.730
    10   6 C        2.912    -0.034    28.843     8.807
    11   6 C        2.919    -0.041    29.022     8.834
    12   6 C        2.924    -0.034    28.837     8.806
    13   6 C        2.910    -0.051    29.259     8.870
    14   6 C        3.070     0.046    26.902     8.505
    15   7 N        2.801    -0.038    21.977     6.963
    16   6 C        2.912     0.071    26.419     8.428
    17   6 C        2.921    -0.041    29.017     8.834
    18   6 C        2.923    -0.027    28.671     8.781
    19   6 C        2.977    -0.000    28.025     8.684
    20   6 C        2.989     0.037    27.158     8.548
    21   6 C        2.973    -0.016    28.402     8.742
    22   6 C        1.909     0.121    28.135     8.566
    23   7 N        0.911    -0.264    26.840     7.493
    24   6 C        2.944     0.117    25.416     8.268
    25   6 C        3.760    -0.122    22.884     6.820
    26   7 N        1.849    -0.241    27.150     7.722
    27   6 C        2.944     0.117    25.415     8.268
    28   6 C        3.760    -0.122    22.885     6.820
    29   6 C        2.973    -0.016    28.401     8.742
    30   6 C        1.909     0.121    28.137     8.567
    31   7 N        0.911    -0.264    26.833     7.492
    32   6 C        2.923    -0.027    28.672     8.781
    33   6 C        2.921    -0.041    29.010     8.833
    34   1 H        0.924     0.045     2.385     2.415
    35   1 H        0.925     0.065     2.144     2.290
    36   1 H        0.924     0.045     2.387     2.416
    37   1 H        0.926     0.047     2.363     2.404
    38   1 H        0.926     0.041     2.440     2.443
    39   1 H        0.926     0.043     2.413     2.429
    40   1 H        0.926     0.034     2.529     2.487
    41   1 H        0.926     0.032     2.560     2.502
    42   1 H        0.926     0.034     2.534     2.489
    43   1 H        0.926     0.032     2.554     2.499
    44   1 H        0.926     0.054     2.265     2.353
    45   1 H        0.926     0.041     2.437     2.441
    46   1 H        0.925     0.070     2.088     2.260
    47   1 H        0.925     0.079     1.984     2.203
    48   1 H        0.925     0.071     2.073     2.252
    49   1 H        0.925     0.079     1.984     2.203
    50   1 H        0.925     0.071     2.073     2.252
    51   1 H        0.925     0.070     2.087     2.259
    52   1 H        0.926     0.041     2.437     2.441
    53   1 H        0.926     0.055     2.264     2.353

molecular dipole:
                 x           y           z       tot (Debye)
 q only:        0.567       0.164      -0.019
   full:        0.525       0.226      -0.021       1.454

 projected vibrational frequencies (cm⁻¹)
eigval :       -0.00    -0.00    -0.00     0.00     0.00     0.00
eigval :       16.28    20.32    25.12    44.28    59.60    63.97
eigval :       69.98    84.69    92.48    95.45    95.96   106.40
eigval :      119.48   136.04   143.30   151.64   169.29   174.84
eigval :      198.44   214.33   232.41   236.92   253.66   262.93
eigval :      267.82   278.90   330.92   339.44   364.22   387.82
eigval :      389.86   393.06   397.08   409.37   418.75   427.77
eigval :      470.43   475.77   477.24   489.44   496.58   510.43
eigval :      515.03   532.08   571.46   583.52   585.50   600.30
eigval :      611.74   617.03   620.93   630.59   662.59   668.92
eigval :      685.24   695.47   703.46   717.09   731.78   774.20
eigval :      807.49   818.85   851.53   856.41   867.97   869.26
eigval :      876.44   880.12   902.32   904.26   919.19   921.32
eigval :      926.70   934.65   941.32   988.07  1007.90  1019.49
eigval :     1021.43  1021.89  1035.52  1054.78  1072.19  1108.86
eigval :     1116.46  1117.82  1138.35  1145.08  1153.42  1155.55
eigval :     1175.14  1180.24  1181.33  1204.87  1236.32  1246.96
eigval :     1264.96  1267.43  1269.66  1279.25  1310.65  1316.29
eigval :     1344.51  1351.53  1358.06  1371.79  1387.61  1390.85
eigval :     1394.87  1396.03  1412.09  1412.97  1421.08  1426.62
eigval :     1446.84  1448.66  1449.89  1456.54  1464.89  1471.97
eigval :     1478.92  1487.54  1492.74  1504.56  1527.83  1553.14
eigval :     1570.60  1582.38  1588.34  1599.45  1613.60  2350.85
eigval :     2356.69  2930.26  2943.72  3006.90  3007.30  3022.12
eigval :     3022.32  3023.31  3064.51  3065.60  3074.85  3080.25
eigval :     3080.78  3082.76  3087.55  3090.29  3094.86  3102.88
eigval :     3104.18  3106.32  3111.95

   temp. (K)  partition function   enthalpy   heat capacity  entropy
                                   cal/mol     cal/K/mol   cal/K/mol   J/K/mol
 298.15  VIB  0.210E+13            16559.507    101.448    103.648
         ROT  0.303E+08              888.752      2.981     37.215
         INT  0.636E+20            17448.259    104.429    140.863
         TR   0.858E+28             1481.254      4.968     44.035
         TOT                       18929.5132   109.3969   184.8980   773.6131

       T/K    H(0)-H(T)+PV         H(T)/Eh          T*S/Eh         G(T)/Eh
   ------------------------------------------------------------------------
    298.15    0.301661E-01    0.427669E+00    0.878510E-01    0.339818E+00
   ------------------------------------------------------------------------

         :::::::::::::::::::::::::::::::::::::::::::::::::::::
         ::                  THERMODYNAMIC                  ::
         :::::::::::::::::::::::::::::::::::::::::::::::::::::
         :: total free energy         -85.592953167691 Eh   ::
         ::.................................................::
         :: total energy              -85.932771073884 Eh   ::
         :: zero point energy           0.397502798215 Eh   ::
         :: G(RRHO) w/o ZPVE           -0.057684892021 Eh   ::
         :: G(RRHO) contrib.            0.339817906193 Eh   ::
         :::::::::::::::::::::::::::::::::::::::::::::::::::::

           -------------------------------------------------
          | TOTAL ENERGY              -85.932771073884 Eh   |
          | TOTAL ENTHALPY            -85.505102176152 Eh   |
          | TOTAL FREE ENERGY         -85.592953167691 Eh   |
          | GRADIENT NORM               0.000095492695 Eh/α |
          | HOMO-LUMO GAP               1.707276273511 eV   |
           -------------------------------------------------

 * finished run on 2025/07/18 at 00:16:49.645
