   * xtb version 6.7.1 (edcfbbe) compiled by 'albert@albert-system' on 2024-07-22

   ID    Z sym.   atoms
    1    6 C      1, 3-14, 16-22, 24, 25, 27-30, 32, 33
    2    8 O      2
    3    7 N      15, 23, 26, 31
    4    1 H      34-53

          program call               : xtb data2507/toluene/Me-MOC/Me-MOC_toluene_S0_crest.xyz --gfn 2 --gbsa toluene --ohess vtight --parallel 40 --molden --ceasefiles --namespace data2507/toluene/Me-MOC/Me-MOC_toluene_S0_finalOpt
      * Solvation model:               GBSA
        Solvent                        toluene
        Solvent mass                       9.2140E+01 g/mol
          :  Hamiltonian                  GFN2-xTB          :
 * total energy  :   -85.9326803 Eh     change       -0.2195179E-08 Eh
 * total energy  :   -85.9327199 Eh     change       -0.3966405E-04 Eh
 * total energy  :   -85.9327318 Eh     change       -0.1182079E-04 Eh
 * total energy  :   -85.9327416 Eh     change       -0.9868674E-05 Eh
 * total energy  :   -85.9327503 Eh     change       -0.8700811E-05 Eh
 * total energy  :   -85.9327544 Eh     change       -0.4073641E-05 Eh
 * total energy  :   -85.9327551 Eh     change       -0.7098448E-06 Eh
 * total energy  :   -85.9327562 Eh     change       -0.1137702E-05 Eh
 * total energy  :   -85.9327592 Eh     change       -0.2917213E-05 Eh
 * total energy  :   -85.9327597 Eh     change       -0.5273884E-06 Eh
 * total energy  :   -85.9327618 Eh     change       -0.5258608E-06 Eh
 * total energy  :   -85.9327623 Eh     change       -0.4897660E-06 Eh
 * total energy  :   -85.9327626 Eh     change       -0.2592179E-06 Eh
 * total energy  :   -85.9327628 Eh     change       -0.2002566E-06 Eh
 * total energy  :   -85.9327630 Eh     change       -0.2063328E-06 Eh
 * total energy  :   -85.9327632 Eh     change       -0.2170892E-06 Eh
 * total energy  :   -85.9327634 Eh     change       -0.1746779E-06 Eh
 * total energy  :   -85.9327636 Eh     change       -0.1815932E-06 Eh
 * total energy  :   -85.9327636 Eh     change       -0.4913915E-08 Eh
   *** GEOMETRY OPTIMIZATION CONVERGED AFTER 22 ITERATIONS ***

 final structure:
================
53
 xtb: 6.7.1 (edcfbbe)
C           -7.52915043862641       -2.52464688815239       -0.00544168041496
O           -6.20287658116659       -3.00219862132818        0.02487330611652
C           -5.18207220396764       -2.08978215596662        0.02197044418947
C           -3.89318704097099       -2.64504999913533        0.06032217213357
C           -2.76214731626244       -1.85841719831637        0.05418111415725
C           -2.92575802136802       -0.48055015460693       -0.00357182129259
C           -4.21552684057087        0.08855180766474       -0.01114336560721
C           -5.35097070285441       -0.71513762577962       -0.00373122780107
C           -4.03549850237344        1.51385604224127       -0.00956035918940
C           -4.91773941039873        2.58674836907553       -0.03777854407553
C           -4.40282020770648        3.86760802592534       -0.05685086929500
C           -3.02651296556535        4.08495346853637       -0.06681877313376
C           -2.12899479940035        3.03409632369015       -0.03945304228046
C           -2.64029240822875        1.74446823866702        0.00947335870381
N           -1.97737329830868        0.53062797875716        0.01206906725148
C           -0.59405150008078        0.35145310264645        0.01424020762822
C            0.00225763723057       -0.53833623246121       -0.87932107588009
C            1.36861431211121       -0.72076047453513       -0.87183763256259
C            2.17476321847248       -0.00534509043266        0.01287649562308
C            3.62853083188042       -0.19001790314044        0.00732601503127
C            4.50436698824491        0.90567770434877       -0.02911476127320
C            4.01815548662280        2.22655506199583       -0.11557741867742
N            3.66984678115448        3.31652314722853       -0.21128217074934
C            5.89486891954588        0.68103048719029       -0.03577018743574
C            6.86490687329443        1.81210926178450       -0.07389393307539
N            6.39659964779824       -0.54156765962397       -0.01205967851543
C            5.60560480197800       -1.60007666141641        0.02054948677874
C            6.26235000708259       -2.93784859465511        0.04697597471402
C            4.20314313729632       -1.46982571038550        0.03385761046559
C            3.40307824844788       -2.62736099642270        0.12760247476974
N            2.79450051307722       -3.59591258048806        0.22752248980895
C            1.57712591055253        0.88927029012218        0.89978804737010
C            0.20901020590445        1.05937719322832        0.90843753063011
H           -7.72337390628690       -1.94141555426354       -0.91108745138231
H           -8.15911300198959       -3.41280200228038       -0.00501568409374
H           -7.75561847948333       -1.91808075210127        0.87712702775095
H           -3.81282685659219       -3.72009146367306        0.10036073993830
H           -1.78418327647562       -2.31122225487086        0.10601854617184
H           -6.32668841415444       -0.25782209344993       -0.01092229784443
H           -5.98403130859684        2.41810936703286       -0.05004445713631
H           -5.07185501585504        4.71525496706602       -0.07592861399018
H           -2.65129820677625        5.09727836803473       -0.10089372849692
H           -1.06560681396068        3.21726986355192       -0.06989028135459
H           -0.60919001915729       -1.07073514633761       -1.59118030807443
H            1.81951467181087       -1.39687309312013       -1.58343978970589
H            6.68508826658905        2.43733159236129       -0.94761303788860
H            6.74749909692476        2.44064478196162        0.80833371077962
H            7.87688654033451        1.41917063160100       -0.10668296613899
H            5.95061249528547       -3.53090306608183       -0.81204761755775
H            7.34087535604768       -2.81133471302579        0.03000986247241
H            5.97262093548347       -3.48416232724233        0.94395776753443
H            2.18538847339087        1.42877041358888        1.61096414218903
H           -0.24646158818334        1.72799528109274        1.62231320891466

          :  Hamiltonian                  GFN2-xTB          :
         :: gradient norm              0.000108772077 Eh/a0 ::
         :: HOMO-LUMO gap              1.709543721448 eV    ::
         :: SCC energy               -87.477140427866 Eh    ::
         :: -> dispersion             -0.068317636730 Eh    ::
         :: -> Gsolv                  -0.040552988041 Eh    ::
         :: repulsion energy           1.544376866743 Eh    ::

    * Orbital Energies and Occupations

         #    Occupation            Energy/Eh            Energy/eV
      -------------------------------------------------------------
         1        2.0000           -0.7150312             -19.4570
       ...           ...                  ...                  ...
        67        2.0000           -0.4420329             -12.0283
        68        2.0000           -0.4382275             -11.9248
        69        2.0000           -0.4354677             -11.8497
        70        2.0000           -0.4279694             -11.6456
        71        2.0000           -0.4273795             -11.6296
        72        2.0000           -0.4252047             -11.5704
        73        2.0000           -0.4225721             -11.4988
        74        2.0000           -0.4197514             -11.4220
        75        2.0000           -0.4166854             -11.3386
        76        2.0000           -0.3990202             -10.8579
        77        2.0000           -0.3971281             -10.8064
        78        2.0000           -0.3803189             -10.3490
        79        2.0000           -0.3608889              -9.8203 (HOMO)
        80                         -0.2980643              -8.1107 (LUMO)
        81                         -0.2968823              -8.0786
        82                         -0.2503209              -6.8116
        83                         -0.2464104              -6.7052
        84                         -0.2388000              -6.4981
        85                         -0.2253665              -6.1325
        86                         -0.2251434              -6.1265
        87                         -0.2221840              -6.0459
        88                         -0.2217392              -6.0338
        89                         -0.1926160              -5.2413
        90                         -0.1881432              -5.1196
       ...                                ...                  ...
       152                          1.1469756              31.2108
      -------------------------------------------------------------
                  HL-Gap            0.0628246 Eh            1.7095 eV

     #   Z          covCN         q      C6AA      α(0)
     1   6 C        3.642     0.037    20.298     6.477
     2   8 O        1.705    -0.294    18.892     5.868
     3   6 C        2.864     0.132    25.108     8.213
     4   6 C        2.925    -0.057    29.422     8.895
     5   6 C        2.909    -0.049    29.225     8.864
     6   6 C        3.072     0.036    27.112     8.537
     7   6 C        3.067    -0.017    28.359     8.732
     8   6 C        2.910    -0.072    29.802     8.952
     9   6 C        3.068    -0.016    28.343     8.730
    10   6 C        2.912    -0.034    28.843     8.807
    11   6 C        2.919    -0.041    29.022     8.834
    12   6 C        2.924    -0.034    28.836     8.806
    13   6 C        2.910    -0.051    29.258     8.870
    14   6 C        3.070     0.046    26.901     8.504
    15   7 N        2.801    -0.038    21.978     6.963
    16   6 C        2.912     0.071    26.417     8.428
    17   6 C        2.921    -0.041    29.014     8.833
    18   6 C        2.923    -0.027    28.669     8.781
    19   6 C        2.976     0.000    28.022     8.683
    20   6 C        2.988     0.037    27.160     8.549
    21   6 C        2.973    -0.016    28.404     8.742
    22   6 C        1.909     0.121    28.135     8.566
    23   7 N        0.911    -0.264    26.846     7.494
    24   6 C        2.944     0.117    25.417     8.269
    25   6 C        3.760    -0.122    22.885     6.820
    26   7 N        1.849    -0.241    27.151     7.723
    27   6 C        2.944     0.117    25.416     8.268
    28   6 C        3.760    -0.122    22.885     6.820
    29   6 C        2.973    -0.016    28.403     8.742
    30   6 C        1.909     0.121    28.137     8.567
    31   7 N        0.911    -0.264    26.839     7.493
    32   6 C        2.923    -0.027    28.671     8.781
    33   6 C        2.921    -0.041    29.007     8.832
    34   1 H        0.924     0.045     2.385     2.415
    35   1 H        0.925     0.065     2.144     2.290
    36   1 H        0.924     0.045     2.387     2.416
    37   1 H        0.926     0.047     2.363     2.404
    38   1 H        0.926     0.041     2.442     2.444
    39   1 H        0.926     0.043     2.413     2.429
    40   1 H        0.926     0.034     2.529     2.487
    41   1 H        0.926     0.032     2.560     2.502
    42   1 H        0.926     0.034     2.534     2.489
    43   1 H        0.926     0.032     2.555     2.500
    44   1 H        0.926     0.054     2.264     2.353
    45   1 H        0.926     0.041     2.434     2.440
    46   1 H        0.925     0.070     2.088     2.260
    47   1 H        0.925     0.071     2.073     2.252
    48   1 H        0.925     0.079     1.985     2.203
    49   1 H        0.925     0.070     2.081     2.256
    50   1 H        0.925     0.079     1.985     2.203
    51   1 H        0.925     0.071     2.080     2.255
    52   1 H        0.926     0.041     2.433     2.439
    53   1 H        0.926     0.055     2.264     2.353

molecular dipole:
                 x           y           z       tot (Debye)
 q only:        0.557       0.162      -0.013
   full:        0.513       0.224      -0.014       1.422

 projected vibrational frequencies (cm⁻¹)
eigval :       -0.00    -0.00    -0.00     0.00     0.00     0.00
eigval :       13.56    16.28    25.23    43.36    45.44    55.91
eigval :       59.97    65.43    69.18    84.89    94.04   104.28
eigval :      119.63   135.86   144.82   152.23   169.31   174.03
eigval :      198.47   213.82   231.48   236.95   254.92   263.16
eigval :      269.08   279.29   331.82   340.18   364.25   388.43
eigval :      390.43   393.70   397.81   409.83   419.32   429.28
eigval :      470.07   474.05   476.80   488.24   496.25   510.21
eigval :      515.17   532.18   571.17   583.76   585.45   600.44
eigval :      611.74   617.28   619.61   630.40   662.58   669.87
eigval :      685.26   695.45   704.14   716.18   731.54   774.26
eigval :      808.71   819.08   852.84   856.38   868.37   869.28
eigval :      876.24   880.36   902.41   905.98   919.14   921.37
eigval :      927.47   935.22   941.32   988.37  1005.54  1019.25
eigval :     1019.82  1021.97  1035.43  1054.64  1071.92  1108.54
eigval :     1115.79  1117.82  1138.52  1143.91  1152.87  1155.48
eigval :     1174.92  1180.10  1181.73  1205.08  1236.13  1246.89
eigval :     1265.36  1267.95  1269.67  1279.22  1310.70  1316.46
eigval :     1344.32  1351.53  1358.12  1371.84  1386.56  1389.92
eigval :     1394.56  1395.75  1412.01  1412.32  1421.09  1426.59
eigval :     1444.69  1448.12  1449.16  1454.73  1464.65  1471.99
eigval :     1478.89  1487.43  1492.84  1504.23  1527.74  1553.06
eigval :     1570.64  1582.50  1588.23  1599.52  1613.65  2350.51
eigval :     2356.34  2930.17  2943.63  3006.88  3007.28  3021.42
eigval :     3021.82  3023.41  3064.86  3065.47  3074.35  3079.74
eigval :     3081.20  3083.21  3087.17  3089.01  3094.24  3102.64
eigval :     3104.00  3106.18  3111.92

   temp. (K)  partition function   enthalpy   heat capacity  entropy
                                   cal/mol     cal/K/mol   cal/K/mol   J/K/mol
 298.15  VIB  0.897E+13            16677.568    100.632    105.298
         ROT  0.303E+08              888.752      2.981     37.215
         INT  0.272E+21            17566.320    103.613    142.513
         TR   0.858E+28             1481.254      4.968     44.035
         TOT                       19047.5742   108.5807   186.5484   780.5183

       T/K    H(0)-H(T)+PV         H(T)/Eh          T*S/Eh         G(T)/Eh
   ------------------------------------------------------------------------
    298.15    0.303542E-01    0.427617E+00    0.886351E-01    0.338982E+00
   ------------------------------------------------------------------------

         :::::::::::::::::::::::::::::::::::::::::::::::::::::
         ::                  THERMODYNAMIC                  ::
         :::::::::::::::::::::::::::::::::::::::::::::::::::::
         :: total free energy         -85.593781827712 Eh   ::
         ::.................................................::
         :: total energy              -85.932763563257 Eh   ::
         :: zero point energy           0.397262637230 Eh   ::
         :: G(RRHO) w/o ZPVE           -0.058280901685 Eh   ::
         :: G(RRHO) contrib.            0.338981735545 Eh   ::
         :::::::::::::::::::::::::::::::::::::::::::::::::::::

           -------------------------------------------------
          | TOTAL ENERGY              -85.932763563257 Eh   |
          | TOTAL ENTHALPY            -85.505146684346 Eh   |
          | TOTAL FREE ENERGY         -85.593781827712 Eh   |
          | GRADIENT NORM               0.000108695486 Eh/α |
          | HOMO-LUMO GAP               1.709543889286 eV   |
           -------------------------------------------------

 * finished run on 2025/07/18 at 00:18:16.250
