   * xtb version 6.7.1 (edcfbbe) compiled by 'albert@albert-system' on 2024-07-22

   ID    Z sym.   atoms
    1    6 C      1, 3-14, 16-22, 24, 25, 27-30, 32, 33
    2    8 O      2
    3    7 N      15, 23, 26, 31
    4    1 H      34-53

          program call               : xtb data2507/toluene/Me-MOC/Me-MOC_toluene_T1_crest.xyz --gfn 2 --uhf 2 --gbsa toluene --ohess vtight --parallel 40 --molden --ceasefiles --namespace data2507/toluene/Me-MOC/Me-MOC_toluene_T1_finalOpt
      * Solvation model:               GBSA
        Solvent                        toluene
        Solvent mass                       9.2140E+01 g/mol
          :  Hamiltonian                  GFN2-xTB          :
 * total energy  :   -85.8489949 Eh     change       -0.1676028E-09 Eh
 * total energy  :   -85.8490977 Eh     change       -0.1028908E-03 Eh
 * total energy  :   -85.8491353 Eh     change       -0.3753038E-04 Eh
 * total energy  :   -85.8491299 Eh     change        0.5377051E-05 Eh
 * total energy  :   -85.8491424 Eh     change       -0.1250569E-04 Eh
 * total energy  :   -85.8491453 Eh     change       -0.2852288E-05 Eh
 * total energy  :   -85.8491454 Eh     change       -0.1429749E-06 Eh
 * total energy  :   -85.8491480 Eh     change       -0.2569993E-05 Eh
 * total energy  :   -85.8491488 Eh     change       -0.7906631E-06 Eh
 * total energy  :   -85.8491493 Eh     change       -0.5621251E-06 Eh
 * total energy  :   -85.8491500 Eh     change       -0.3619353E-06 Eh
 * total energy  :   -85.8491505 Eh     change       -0.5311426E-06 Eh
 * total energy  :   -85.8491512 Eh     change       -0.7062575E-06 Eh
 * total energy  :   -85.8491522 Eh     change       -0.9935061E-06 Eh
 * total energy  :   -85.8491532 Eh     change       -0.9781419E-06 Eh
 * total energy  :   -85.8491538 Eh     change       -0.5762314E-06 Eh
 * total energy  :   -85.8491540 Eh     change       -0.2369836E-06 Eh
 * total energy  :   -85.8491541 Eh     change       -0.1533376E-06 Eh
 * total energy  :   -85.8491542 Eh     change       -0.7359922E-07 Eh
   *** GEOMETRY OPTIMIZATION CONVERGED AFTER 20 ITERATIONS ***

 final structure:
================
53
 xtb: 6.7.1 (edcfbbe)
C           -7.52923658955680       -2.54890103061950        0.28352080802255
O           -6.18646452123600       -2.98909845719277        0.34163818717117
C           -5.18876791567400       -2.09208743014883        0.24581956022158
C           -3.88650118966059       -2.63393966861748        0.33158461344310
C           -2.76734281505531       -1.84476154598095        0.24160967429959
C           -2.94267124888465       -0.47228006509377        0.04763003534400
C           -4.24841486712262        0.08822959303988        0.00094223175120
C           -5.37005344292595       -0.71442691090525        0.09197489719412
C           -4.07303254635254        1.51196621596269       -0.13178340068822
C           -4.95306828527177        2.57569834933057       -0.24203572595457
C           -4.43194706427293        3.85229555073089       -0.39789660943660
C           -3.05883944209618        4.06433993865752       -0.46519816040947
C           -2.16005084454535        3.01393334139079       -0.35749477622045
C           -2.67498679921584        1.74037793716806       -0.16311668971756
N           -2.01080771654145        0.52774975711975       -0.04877676585618
C           -0.63435756519659        0.36048348970318       -0.04310495481331
C           -0.02784396847789       -0.65457885801988       -0.81083280009993
C            1.32579581813607       -0.82209153536841       -0.80001236535401
C            2.17842223655443        0.00577993749847       -0.01493952022780
C            3.58571975752119       -0.17667666427903        0.00341386473987
C            4.50977433558365        0.91137121336184        0.20836950488185
C            4.10115342052743        2.24685363205659        0.27513704059357
N            3.84153979510021        3.37192416024690        0.29762063712666
C            5.88315632792677        0.67353735420991        0.21599698727048
C            6.87204686864938        1.78076138921976        0.40836835283366
N            6.39329858738278       -0.54303012508940        0.04225387405194
C            5.59281004734723       -1.58882467994629       -0.14844321953329
C            6.26911089887440       -2.91422660236064       -0.31326226633732
C            4.20480630026660       -1.46634115149198       -0.17950258358209
C            3.46978635488111       -2.65317914902790       -0.26142427060477
N            2.93187429894273       -3.67455048468926       -0.29441833842855
C            1.54332271354118        1.02469835180565        0.75119791381326
C            0.19034720291672        1.19828096934464        0.73512892514317
H           -7.74537022720404       -2.06119300696997       -0.67075123036436
H           -8.13478617885285       -3.44857319386559        0.37666162217069
H           -7.75884968382000       -1.86823399321428        1.10770420839016
H           -3.79955922613471       -3.69812100739851        0.48073978070470
H           -1.78311802234692       -2.27516771940254        0.33481779427602
H           -6.35177911489306       -0.27324677034482        0.05129369313164
H           -6.01939450175002        2.41526399318322       -0.21403539354356
H           -5.10165019939997        4.69448403229662       -0.48290571734291
H           -2.68176782210184        5.06492250973820       -0.61116457365411
H           -1.09808651109877        3.18543145804887       -0.43773055821328
H           -0.64040959863253       -1.25709543873586       -1.46490914153670
H            1.76879662338086       -1.56265945015859       -1.44740387675907
H            7.87864289671538        1.37573099095488        0.35196717411878
H            6.74348253418941        2.54483830605805       -0.35761300872665
H            6.72744332548165        2.25711269179297        1.37765400367466
H            5.96237383253162       -3.39002170555505       -1.24381521950514
H            7.34588250035360       -2.76933520046626       -0.31534073743281
H            5.99729336239403       -3.58205488845259        0.50397966539194
H            2.14309181849649        1.63638617394477        1.40686466179549
H           -0.26508166987355        1.93671614953009        1.37791525518713

          :  Hamiltonian                  GFN2-xTB          :
         :: gradient norm              0.000083953589 Eh/a0 ::
         :: HOMO-LUMO gap              0.389810030172 eV    ::
         :: SCC energy               -87.371640098653 Eh    ::
         :: -> dispersion             -0.068142155551 Eh    ::
         :: -> Gsolv                  -0.049657034885 Eh    ::
         :: repulsion energy           1.522485880102 Eh    ::

    * Orbital Energies and Occupations

         #    Occupation            Energy/Eh            Energy/eV
      -------------------------------------------------------------
         1        2.0000           -0.7401500             -20.1405
       ...           ...                  ...                  ...
        68        2.0000           -0.4370955             -11.8940
        69        2.0000           -0.4361787             -11.8690
        70        2.0000           -0.4265543             -11.6071
        71        2.0000           -0.4255268             -11.5792
        72        2.0000           -0.4195921             -11.4177
        73        2.0000           -0.4170347             -11.3481
        74        2.0000           -0.4123879             -11.2216
        75        2.0000           -0.4038284             -10.9887
        76        2.0000           -0.4033362             -10.9753
        77        2.0000           -0.3961488             -10.7798
        78        1.8841           -0.3784710             -10.2987
        79        1.1159           -0.3746103             -10.1937
        80        0.9995           -0.2854540              -7.7676 (HOMO)
        81        0.0005           -0.2711287              -7.3778 (LUMO)
        82        0.0000           -0.2677585              -7.2861
        83                         -0.2440493              -6.6409
        84                         -0.2309419              -6.2842
        85                         -0.2288207              -6.2265
        86                         -0.2088508              -5.6831
        87                         -0.2051166              -5.5815
        88                         -0.2028583              -5.5201
        89                         -0.2021494              -5.5008
        90                         -0.1977011              -5.3797
        91                         -0.1334773              -3.6321
       ...                                ...                  ...
       152                          1.1525950              31.3637
      -------------------------------------------------------------
                  HL-Gap            0.0143253 Eh            0.3898 eV

     #   Z          covCN         q      C6AA      α(0)
     1   6 C        3.643     0.021    20.560     6.519
     2   8 O        1.706    -0.240    17.977     5.725
     3   6 C        2.864     0.155    24.631     8.135
     4   6 C        2.921    -0.052    29.291     8.875
     5   6 C        2.907    -0.032    28.801     8.800
     6   6 C        3.071     0.039    27.048     8.528
     7   6 C        3.062    -0.002    28.021     8.680
     8   6 C        2.907    -0.062    29.533     8.911
     9   6 C        3.060    -0.008    28.153     8.701
    10   6 C        2.911    -0.024    28.591     8.768
    11   6 C        2.919    -0.027    28.670     8.781
    12   6 C        2.922    -0.028    28.689     8.784
    13   6 C        2.909    -0.032    28.799     8.800
    14   6 C        3.074     0.042    26.980     8.516
    15   7 N        2.799     0.027    20.768     6.768
    16   6 C        2.912     0.036    27.202     8.552
    17   6 C        2.912    -0.039    28.964     8.825
    18   6 C        2.918    -0.041    29.010     8.832
    19   6 C        2.966     0.003    27.961     8.673
    20   6 C        2.972    -0.015    28.384     8.739
    21   6 C        2.965    -0.030    28.746     8.794
    22   6 C        1.917     0.113    28.306     8.592
    23   7 N        0.911    -0.322    28.286     7.692
    24   6 C        2.946     0.106    25.650     8.307
    25   6 C        3.760    -0.113    22.703     6.793
    26   7 N        1.848    -0.272    27.913     7.830
    27   6 C        2.946     0.106    25.651     8.307
    28   6 C        3.760    -0.113    22.702     6.792
    29   6 C        2.965    -0.030    28.744     8.794
    30   6 C        1.917     0.113    28.308     8.592
    31   7 N        0.911    -0.322    28.270     7.690
    32   6 C        2.918    -0.041    29.013     8.833
    33   6 C        2.912    -0.038    28.947     8.822
    34   1 H        0.924     0.064     2.150     2.293
    35   1 H        0.925     0.080     1.979     2.200
    36   1 H        0.924     0.064     2.150     2.293
    37   1 H        0.926     0.067     2.122     2.278
    38   1 H        0.926     0.062     2.181     2.309
    39   1 H        0.926     0.069     2.097     2.264
    40   1 H        0.926     0.056     2.249     2.345
    41   1 H        0.926     0.052     2.295     2.369
    42   1 H        0.926     0.050     2.320     2.382
    43   1 H        0.926     0.051     2.307     2.375
    44   1 H        0.926     0.046     2.368     2.407
    45   1 H        0.926     0.032     2.555     2.499
    46   1 H        0.925     0.065     2.138     2.287
    47   1 H        0.925     0.054     2.274     2.358
    48   1 H        0.925     0.054     2.270     2.356
    49   1 H        0.925     0.053     2.285     2.364
    50   1 H        0.925     0.065     2.138     2.286
    51   1 H        0.925     0.055     2.260     2.351
    52   1 H        0.926     0.032     2.557     2.501
    53   1 H        0.926     0.046     2.369     2.407

molecular dipole:
                 x           y           z       tot (Debye)
 q only:       -6.206       0.339      -0.012
   full:       -6.068       0.378      -0.017      15.454

 projected vibrational frequencies (cm⁻¹)
eigval :       -0.00    -0.00     0.00     0.00     0.00     0.00
eigval :       13.37    20.06    26.36    36.51    55.92    62.00
eigval :       69.12    71.54    83.55    86.22    93.70   113.33
eigval :      128.94   148.86   161.19   162.16   168.58   173.59
eigval :      197.01   210.91   231.03   243.71   255.53   257.69
eigval :      270.33   280.69   309.53   331.99   361.98   383.73
eigval :      390.68   391.57   392.64   401.09   413.95   426.06
eigval :      449.87   460.62   461.80   472.55   478.08   490.82
eigval :      499.83   516.76   549.31   569.47   582.61   585.48
eigval :      591.49   605.53   618.58   622.24   643.78   646.44
eigval :      661.00   676.85   683.62   706.26   726.13   770.85
eigval :      797.86   816.76   828.79   840.29   855.07   862.09
eigval :      870.17   881.30   899.59   903.27   911.28   913.85
eigval :      919.72   922.03   925.24   971.95   991.40  1002.96
eigval :     1013.03  1014.02  1023.41  1041.32  1068.47  1092.46
eigval :     1105.75  1106.63  1118.25  1125.47  1142.68  1144.39
eigval :     1167.61  1175.33  1189.15  1210.61  1218.38  1223.29
eigval :     1236.14  1250.16  1262.80  1267.47  1269.53  1316.25
eigval :     1323.29  1336.34  1341.60  1351.79  1360.84  1387.92
eigval :     1390.17  1391.10  1393.43  1402.04  1406.62  1414.38
eigval :     1424.28  1448.78  1453.40  1455.13  1460.12  1461.46
eigval :     1462.52  1462.89  1463.61  1465.66  1478.19  1493.79
eigval :     1528.15  1553.76  1562.77  1566.13  1582.43  2261.09
eigval :     2293.56  2953.29  2961.46  3002.21  3002.63  3016.46
eigval :     3018.29  3032.89  3055.34  3056.17  3082.12  3084.65
eigval :     3088.26  3094.47  3101.13  3101.25  3103.03  3104.12
eigval :     3106.04  3117.34  3122.06

   temp. (K)  partition function   enthalpy   heat capacity  entropy
                                   cal/mol     cal/K/mol   cal/K/mol   J/K/mol
 298.15  VIB  0.407E+13            16776.059    102.525    104.880
         ROT  0.308E+08              888.752      2.981     37.246
         INT  0.125E+21            17664.812    105.506    142.126
         TR   0.858E+28             1481.254      4.968     44.035
         TOT                       19146.0657   110.4737   186.1611   778.8979

       T/K    H(0)-H(T)+PV         H(T)/Eh          T*S/Eh         G(T)/Eh
   ------------------------------------------------------------------------
    298.15    0.305112E-01    0.424570E+00    0.884511E-01    0.336119E+00
   ------------------------------------------------------------------------

         :::::::::::::::::::::::::::::::::::::::::::::::::::::
         ::                  THERMODYNAMIC                  ::
         :::::::::::::::::::::::::::::::::::::::::::::::::::::
         :: total free energy         -85.513035517789 Eh   ::
         ::.................................................::
         :: total energy              -85.849154221836 Eh   ::
         :: zero point energy           0.394058638600 Eh   ::
         :: G(RRHO) w/o ZPVE           -0.057939934553 Eh   ::
         :: G(RRHO) contrib.            0.336118704048 Eh   ::
         :::::::::::::::::::::::::::::::::::::::::::::::::::::

           -------------------------------------------------
          | TOTAL ENERGY              -85.849154221836 Eh   |
          | TOTAL ENTHALPY            -85.424584385373 Eh   |
          | TOTAL FREE ENERGY         -85.513035517789 Eh   |
          | GRADIENT NORM               0.000084262399 Eh/α |
          | HOMO-LUMO GAP               0.389811296409 eV   |
           -------------------------------------------------

 * finished run on 2025/07/18 at 00:20:21.857
