   * xtb version 6.7.1 (edcfbbe) compiled by 'albert@albert-system' on 2024-07-22

   ID    Z sym.   atoms
    1    6 C      1-10, 12-21, 23-25, 27-32, 34-39, 41-50, 52-61, 63-71
    2    5 B      11, 51
    3    8 O      22, 40, 62, 72
    4    7 N      26, 33
    5    1 H      73-132

          program call               : xtb data2507/toluene/PzTDBA/PzTDBA_toluene_S0_finalOpt.xtbopt.xyz --gfn 2 --uhf 2 --gbsa toluene --ohess vtight --parallel 40 --molden --ceasefiles --namespace data2507/toluene/PzTDBA/PzTDBA_toluene_T1_preOpt
      * Solvation model:               GBSA
        Solvent                        toluene
        Solvent mass                       9.2140E+01 g/mol
          :  Hamiltonian                  GFN2-xTB          :
 * total energy  :  -192.4182817 Eh     change       -0.1062057E-07 Eh
 * total energy  :  -192.4206877 Eh     change       -0.2406010E-02 Eh
 * total energy  :  -192.4216439 Eh     change       -0.9562188E-03 Eh
 * total energy  :  -192.4217070 Eh     change       -0.6310420E-04 Eh
 * total energy  :  -192.4217390 Eh     change       -0.3193190E-04 Eh
 * total energy  :  -192.4217495 Eh     change       -0.1049908E-04 Eh
 * total energy  :  -192.4217585 Eh     change       -0.9071392E-05 Eh
 * total energy  :  -192.4217641 Eh     change       -0.5538623E-05 Eh
 * total energy  :  -192.4217671 Eh     change       -0.3084241E-05 Eh
 * total energy  :  -192.4217712 Eh     change       -0.4014443E-05 Eh
 * total energy  :  -192.4219130 Eh     change       -0.2571705E-06 Eh
 * total energy  :  -192.4219133 Eh     change       -0.3041798E-06 Eh
 * total energy  :  -192.4219136 Eh     change       -0.3104159E-06 Eh
 * total energy  :  -192.4219139 Eh     change       -0.3195983E-06 Eh
 * total energy  :  -192.4219142 Eh     change       -0.2333335E-06 Eh
 * total energy  :  -192.4219144 Eh     change       -0.2253607E-06 Eh
 * total energy  :  -192.4219146 Eh     change       -0.1767571E-06 Eh
 * total energy  :  -192.4219148 Eh     change       -0.1886067E-06 Eh
 * total energy  :  -192.4219148 Eh     change       -0.3097057E-08 Eh
   *** GEOMETRY OPTIMIZATION CONVERGED AFTER 113 ITERATIONS ***

 final structure:
================
132
 xtb: 6.7.1 (edcfbbe)
C          -11.53889076132329       -4.28436065296174        0.03631212540385
C          -11.02051684064583       -3.29540952214354        1.09102237285613
C          -11.14395816814346       -3.91713562351139        2.49029438277802
C          -11.90433921743531       -2.04532402125386        1.04677751031684
C           -9.55475553826910       -2.99168101759206        0.81188355016965
C           -8.62654536142460       -4.03456820285816        0.83079814523695
C           -7.28553127143072       -3.79298637672059        0.61926194959831
C           -6.83662054004468       -2.50093604200997        0.36705117825720
C           -7.73505675882634       -1.42226269324667        0.28916402112193
C           -9.08425014601852       -1.71923846273305        0.53979248709606
B           -7.14331737446382       -0.02814085464025       -0.02926906665283
C           -7.77683210550663        1.34619093711081       -0.35298347324048
C           -9.13285749895812        1.59963083811665       -0.61430731863525
C           -9.64175899285411        2.85615763917195       -0.89112544584056
C          -11.11458473984223        3.11239780406766       -1.18085022608759
C          -11.95656267451058        1.83332002481847       -1.14972485201668
C          -11.24828334178684        3.73656397228267       -2.57807247395487
C          -11.67358624986807        4.07844647993036       -0.12567461703998
C           -8.74727372548640        3.92827471843023       -0.90352056856704
C           -7.40087428449648        3.72989915010408       -0.68150149743301
C           -6.91280698995974        2.45301724884418       -0.42467180157269
O           -5.54888120904054        2.39034945420038       -0.26411404413473
C           -4.90742274143964        1.20328815927391       -0.14051128360580
C           -3.51920954666370        1.23735249565797       -0.12916240414090
C           -2.81812495870610        0.04091540750735       -0.01401751586332
N           -1.39236545575148        0.06116063577039       -0.01132862616789
C           -0.71798864069959        0.29702253079932       -1.18294534146706
C           -1.39494866006572        0.50171751063308       -2.39036852483033
C           -0.70210918092983        0.77449207293521       -3.54696900868911
C            0.69555616038937        0.85694958019272       -3.52910790885229
C            1.38765077034513        0.63121397822797       -2.36231855390720
C            0.70953259482970        0.32636100509138       -1.17649963913202
N            1.38491920597886        0.05967189271384       -0.01245358172481
C            2.81039709726093        0.03553011525674       -0.01956509077718
C            3.51559781103129        1.08471546966284        0.56161746104622
C            4.90378004885774        1.04911424353139        0.54818387108610
C            5.61073551313213       -0.01829947921035       -0.03204443045809
C            4.85811551267447       -1.05732984182350       -0.60631571954249
C            3.46969031720025       -1.03929736277613       -0.60781876602218
O            5.45652067016878       -2.12256030627910       -1.19132166213910
C            6.81886168894877       -2.29668549024013       -1.13970281893535
C            7.26261061396382       -3.49412138144640       -1.69099900640340
C            8.60351100263804       -3.81463633624733       -1.67132884123590
C            9.53642488246174       -2.95682041976514       -1.08546143933538
C           11.00302745446707       -3.36463045794697       -1.05050295276894
C           11.89148791541553       -2.32663298624573       -0.35833988711242
C           11.13645195411635       -4.69056681714173       -0.28648912158807
C           11.50747128587446       -3.54117563188624       -2.49050167133626
C            9.07039310860158       -1.76430750210200       -0.56099503452710
C            7.72167654038073       -1.37430113254894       -0.58215464550420
B            7.13639288133202       -0.04834916507825       -0.03794107408123
C            7.77746317286447        1.25296292609987        0.50262626590117
C            9.14055516540843        1.58852354512294        0.47280521637854
C            9.65779043646542        2.75993524001696        0.99679082630546
C           11.13977653806925        3.10697006085533        0.95494202362384
C           11.32441804666567        4.43108241988239        0.19850117397014
C           11.65912850688045        3.25301123794133        2.39307693185118
C           11.98025869246315        2.03731649824811        0.25108040349698
C            8.76397291183278        3.65338960196967        1.59027247777917
C            7.41127744302001        3.38743613178705        1.61771017668115
C            6.91598421454069        2.20993055505068        1.06733930153672
O            5.54810652984062        2.09016189235812        1.12803374000712
C            0.71065462988368       -0.19547856198980        1.15508536740797
C            1.38812816074828       -0.49567777240805        2.34206606486738
C            0.69573591317374       -0.71387122980476        3.51041417725693
C           -0.70186249283500       -0.63082216006997        3.52774175073147
C           -1.39435161987586       -0.36448748106238        2.36972849574803
C           -0.71686214689308       -0.16478419019012        1.16137708464496
C           -3.48176741030487       -1.17707468501878        0.09735307005479
C           -4.87027350138884       -1.18751194337763        0.09855716271209
C           -5.61796188839174       -0.00372155682272       -0.02366703847450
O           -5.47421584325287       -2.39457981507606        0.21731042221909
H          -12.58856839350773       -4.50829532439918        0.21616130424441
H          -11.44242489775369       -3.85666490094982       -0.95984195354985
H          -10.98285617080657       -5.21764226656980        0.06082647282024
H          -10.74711903367911       -3.23576329691849        3.24066124039669
H          -10.59675260576650       -4.85345398944659        2.55786290246142
H          -12.18858128459073       -4.11604589538848        2.72175936957329
H          -11.59224064446820       -1.31982555366332        1.79473272797878
H          -11.87628647482056       -1.58202519130864        0.06351683042195
H          -12.93550016325603       -2.32315946646757        1.25710801198041
H           -8.94203669567601       -5.04811319267950        1.02602522475128
H           -6.56311216451205       -4.59539488415550        0.65618962759993
H           -9.77071851598647       -0.89153253222540        0.53374295523340
H           -9.79242834033125        0.75031952880914       -0.61280324997217
H          -11.61322296429873        1.12177350074324       -1.89743832257316
H          -12.99438906150992        2.07746179430639       -1.36895673113198
H          -11.92256217377788        1.36707848393491       -0.16806112560322
H          -10.82187185188515        3.07312949531441       -3.32826365380267
H          -12.29732365938121        3.89995440254891       -2.81720485045403
H          -10.73385374442164        4.69184455735386       -2.63687625301902
H          -12.72796716312452        4.27074215888997       -0.31444023706780
H          -11.57340179474436        3.64812044137916        0.86896544554775
H          -11.14646681495682        5.02859890511481       -0.13959713458869
H           -9.09370900144628        4.93110302588126       -1.10167597006770
H           -6.70404253308954        4.55482463502007       -0.71353985007286
H           -3.00098927498636        2.17937968442561       -0.21228767293127
H           -2.47121287390596        0.44503393345177       -2.40214201792865
H           -1.23957793879763        0.93105619783161       -4.46836876333148
H            1.23321337545334        1.09120692442997       -4.43377370412041
H            2.46406912323130        0.68566784862081       -2.34876096943675
H            3.00037779073842        1.91802511715484        1.01220868438780
H            2.91903695231332       -1.85173253670260       -1.05463646444338
H            6.53579532501574       -4.16666977074119       -2.12285240619387
H            8.91516106272941       -4.75132317423435       -2.10765758409571
H           11.86262959391165       -1.37513976684081       -0.88372159914426
H           12.92212810065895       -2.67657814951662       -0.35508227390904
H           11.58436792349674       -2.17638832639869        0.67424515975202
H           10.57693221467007       -5.48620655295562       -0.77078221909004
H           12.18122905578440       -4.99107790669188       -0.23633995344413
H           10.75988298215941       -4.57858502838307        0.72863688963471
H           11.39800970300208       -2.61022369057974       -3.04365603898082
H           12.55932622178634       -3.82035639261555       -2.48809368365812
H           10.95118486884576       -4.31465773429115       -3.01308288108802
H            9.76219423885158       -1.08940335674442       -0.09005067966282
H            9.80138625282210        0.88727366142951       -0.00404644383789
H           12.38075541077865        4.68681641773335        0.14273078860496
H           10.80317268941042        5.24678718735341        0.69202706504472
H           10.93635149447983        4.34222906683770       -0.81458372267640
H           11.51390412834126        2.32389814001482        2.94106114440751
H           11.13848462707640        4.04568458710698        2.92359613347219
H           12.72168007747688        3.48799218090045        2.38631795397719
H           11.91518106694680        1.08460532097776        0.77097554139687
H           11.66095428393665        1.90623532940884       -0.78043623399801
H           13.02447527232116        2.34430380990306        0.24347331744272
H            9.11602583827534        4.57557064291317        2.02677196920104
H            6.71520668866595        4.08822349416945        2.05535727131271
H            2.46445452075710       -0.55174643950011        2.32940552133666
H            1.23340435217065       -0.94294904493586        4.41638233551970
H           -1.23933808099414       -0.78202782562910        4.45004865986774
H           -2.47067780756696       -0.30806439726839        2.38039333000595
H           -2.93444023591079       -2.10213560255128        0.18433384195512

          :  Hamiltonian                  GFN2-xTB          :
         :: gradient norm              0.000103143155 Eh/a0 ::
         :: HOMO-LUMO gap              0.001533212552 eV    ::
         :: SCC energy              -195.553747501812 Eh    ::
         :: -> dispersion             -0.175711954343 Eh    ::
         :: -> Gsolv                  -0.074668805388 Eh    ::
         :: repulsion energy           3.131832735679 Eh    ::

    * Orbital Energies and Occupations

         #    Occupation            Energy/Eh            Energy/eV
      -------------------------------------------------------------
         1        2.0000           -0.7238843             -19.6979
       ...           ...                  ...                  ...
       167        2.0000           -0.3953263             -10.7574
       168        2.0000           -0.3908829             -10.6365
       169        2.0000           -0.3907976             -10.6341
       170        2.0000           -0.3843904             -10.4598
       171        2.0000           -0.3841824             -10.4541
       172        2.0000           -0.3793560             -10.3228
       173        2.0000           -0.3792416             -10.3197
       174        2.0000           -0.3758103             -10.2263
       175        2.0000           -0.3757889             -10.2257
       176        1.9983           -0.3642583              -9.9120
       177        1.9982           -0.3641870              -9.9100
       178        1.0035           -0.3528243              -9.6008
       179        0.3995           -0.2653201              -7.2197 (HOMO)
       180        0.3854           -0.2652638              -7.2182 (LUMO)
       181        0.2151           -0.2644771              -7.1968
       182                         -0.2465448              -6.7088
       183                         -0.2329584              -6.3391
       184                         -0.2305431              -6.2734
       185                         -0.2304465              -6.2708
       186                         -0.2297053              -6.2506
       187                         -0.2242379              -6.1018
       188                         -0.2145810              -5.8390
       189                         -0.2117958              -5.7633
       190                         -0.2117913              -5.7631
       ...                                ...                  ...
       348                          0.7031590              19.1339
      -------------------------------------------------------------
                  HL-Gap            0.0000563 Eh            0.0015 eV

     #   Z          covCN         q      C6AA      α(0)
     1   6 C        3.761    -0.105    22.549     6.769
     2   6 C        3.902     0.024    20.109     6.374
     3   6 C        3.761    -0.105    22.547     6.769
     4   6 C        3.761    -0.107    22.592     6.776
     5   6 C        2.968    -0.002    28.078     8.692
     6   6 C        2.927    -0.040    28.987     8.829
     7   6 C        2.913    -0.061    29.529     8.911
     8   6 C        2.875     0.126    25.236     8.235
     9   6 C        2.881    -0.094    30.368     9.034
    10   6 C        2.931    -0.051    29.271     8.873
    11   5 B        2.723     0.187    18.576     7.222
    12   6 C        2.881    -0.094    30.368     9.034
    13   6 C        2.931    -0.051    29.271     8.873
    14   6 C        2.968    -0.002    28.078     8.692
    15   6 C        3.902     0.024    20.110     6.374
    16   6 C        3.761    -0.107    22.592     6.776
    17   6 C        3.761    -0.105    22.548     6.769
    18   6 C        3.761    -0.105    22.549     6.769
    19   6 C        2.927    -0.040    28.987     8.829
    20   6 C        2.913    -0.061    29.529     8.911
    21   6 C        2.875     0.126    25.236     8.235
    22   8 O        1.711    -0.253    18.184     5.758
    23   6 C        2.872     0.135    25.043     8.203
    24   6 C        2.913    -0.083    30.071     8.992
    25   6 C        2.931     0.041    27.079     8.534
    26   7 N        2.754     0.009    21.097     6.822
    27   6 C        2.931     0.048    26.920     8.509
    28   6 C        2.916    -0.045    29.112     8.848
    29   6 C        2.916    -0.028    28.699     8.785
    30   6 C        2.916    -0.028    28.694     8.784
    31   6 C        2.916    -0.045    29.110     8.847
    32   6 C        2.931     0.048    26.924     8.510
    33   7 N        2.754     0.009    21.096     6.822
    34   6 C        2.932     0.041    27.078     8.534
    35   6 C        2.913    -0.083    30.074     8.993
    36   6 C        2.872     0.135    25.042     8.203
    37   6 C        2.886    -0.125    31.179     9.154
    38   6 C        2.872     0.135    25.042     8.203
    39   6 C        2.913    -0.083    30.070     8.992
    40   8 O        1.711    -0.252    18.179     5.757
    41   6 C        2.875     0.126    25.236     8.235
    42   6 C        2.913    -0.062    29.530     8.911
    43   6 C        2.927    -0.040    28.987     8.829
    44   6 C        2.968    -0.002    28.079     8.692
    45   6 C        3.902     0.024    20.109     6.374
    46   6 C        3.761    -0.107    22.592     6.776
    47   6 C        3.761    -0.105    22.548     6.769
    48   6 C        3.761    -0.105    22.548     6.769
    49   6 C        2.931    -0.051    29.274     8.873
    50   6 C        2.881    -0.094    30.367     9.034
    51   5 B        2.723     0.187    18.579     7.223
    52   6 C        2.881    -0.094    30.367     9.034
    53   6 C        2.931    -0.051    29.274     8.873
    54   6 C        2.968    -0.002    28.079     8.692
    55   6 C        3.902     0.024    20.110     6.374
    56   6 C        3.761    -0.105    22.548     6.769
    57   6 C        3.761    -0.105    22.548     6.769
    58   6 C        3.761    -0.107    22.592     6.776
    59   6 C        2.927    -0.040    28.987     8.829
    60   6 C        2.913    -0.062    29.530     8.911
    61   6 C        2.875     0.126    25.236     8.235
    62   8 O        1.711    -0.252    18.177     5.756
    63   6 C        2.931     0.048    26.920     8.509
    64   6 C        2.916    -0.045    29.112     8.848
    65   6 C        2.916    -0.028    28.699     8.785
    66   6 C        2.916    -0.028    28.694     8.784
    67   6 C        2.916    -0.045    29.110     8.847
    68   6 C        2.931     0.048    26.923     8.509
    69   6 C        2.913    -0.083    30.069     8.992
    70   6 C        2.872     0.135    25.043     8.203
    71   6 C        2.887    -0.125    31.181     9.155
    72   8 O        1.711    -0.253    18.185     5.758
    73   1 H        0.925     0.038     2.477     2.461
    74   1 H        0.925     0.032     2.552     2.498
    75   1 H        0.925     0.035     2.519     2.482
    76   1 H        0.925     0.032     2.563     2.504
    77   1 H        0.925     0.035     2.517     2.481
    78   1 H        0.925     0.038     2.480     2.463
    79   1 H        0.925     0.035     2.510     2.477
    80   1 H        0.925     0.037     2.483     2.464
    81   1 H        0.925     0.037     2.492     2.469
    82   1 H        0.926     0.029     2.594     2.519
    83   1 H        0.926     0.031     2.578     2.511
    84   1 H        0.926     0.044     2.396     2.421
    85   1 H        0.926     0.044     2.396     2.421
    86   1 H        0.925     0.035     2.510     2.478
    87   1 H        0.925     0.037     2.492     2.469
    88   1 H        0.925     0.037     2.483     2.464
    89   1 H        0.925     0.032     2.563     2.504
    90   1 H        0.925     0.038     2.480     2.463
    91   1 H        0.925     0.035     2.516     2.481
    92   1 H        0.925     0.038     2.477     2.461
    93   1 H        0.925     0.032     2.551     2.498
    94   1 H        0.925     0.035     2.519     2.482
    95   1 H        0.926     0.029     2.594     2.519
    96   1 H        0.926     0.031     2.577     2.510
    97   1 H        0.926     0.049     2.330     2.387
    98   1 H        0.926     0.056     2.252     2.347
    99   1 H        0.926     0.056     2.246     2.344
   100   1 H        0.926     0.056     2.245     2.343
   101   1 H        0.926     0.055     2.254     2.348
   102   1 H        0.926     0.049     2.330     2.387
   103   1 H        0.926     0.049     2.336     2.390
   104   1 H        0.926     0.031     2.579     2.511
   105   1 H        0.926     0.029     2.595     2.519
   106   1 H        0.925     0.038     2.481     2.463
   107   1 H        0.925     0.037     2.492     2.469
   108   1 H        0.925     0.035     2.511     2.478
   109   1 H        0.925     0.035     2.518     2.481
   110   1 H        0.925     0.038     2.481     2.463
   111   1 H        0.925     0.032     2.563     2.503
   112   1 H        0.925     0.032     2.552     2.498
   113   1 H        0.925     0.038     2.477     2.461
   114   1 H        0.925     0.035     2.518     2.482
   115   1 H        0.926     0.044     2.394     2.419
   116   1 H        0.926     0.044     2.394     2.419
   117   1 H        0.925     0.038     2.481     2.463
   118   1 H        0.925     0.035     2.518     2.481
   119   1 H        0.925     0.032     2.563     2.503
   120   1 H        0.925     0.032     2.552     2.498
   121   1 H        0.925     0.035     2.518     2.482
   122   1 H        0.925     0.038     2.477     2.461
   123   1 H        0.925     0.038     2.481     2.463
   124   1 H        0.925     0.035     2.511     2.478
   125   1 H        0.925     0.037     2.492     2.469
   126   1 H        0.926     0.029     2.595     2.519
   127   1 H        0.926     0.031     2.578     2.511
   128   1 H        0.926     0.056     2.251     2.346
   129   1 H        0.926     0.056     2.246     2.343
   130   1 H        0.926     0.056     2.245     2.343
   131   1 H        0.926     0.055     2.254     2.348
   132   1 H        0.926     0.049     2.336     2.390

molecular dipole:
                 x           y           z       tot (Debye)
 q only:        0.009       0.044       0.012
   full:        0.009       0.045       0.012       0.121

 projected vibrational frequencies (cm⁻¹)
eigval :       -0.00    -0.00     0.00     0.00     0.00     0.00
eigval :        4.77     6.12    10.34    17.38    20.51    22.21
eigval :       23.33    29.93    30.23    34.98    35.78    44.15
eigval :       46.88    55.76    57.66    60.81    64.27    77.39
eigval :       79.87    84.42    89.90    94.32   105.22   108.54
eigval :      109.44   113.19   125.22   135.14   137.32   139.49
eigval :      156.51   162.16   169.32   173.39   175.64   178.62
eigval :      208.65   213.33   215.70   216.32   217.70   220.36
eigval :      221.30   224.64   225.19   228.37   229.06   231.63
eigval :      233.70   251.85   255.26   260.20   262.24   265.81
eigval :      273.29   279.55   281.11   289.09   292.47   312.97
eigval :      314.88   315.84   318.92   326.70   328.05   331.87
eigval :      334.70   347.82   361.61   362.40   364.14   364.56
eigval :      365.70   366.68   374.39   380.66   383.77   386.76
eigval :      391.14   394.44   406.47   413.75   414.11   420.84
eigval :      423.00   427.25   432.91   433.27   433.40   434.24
eigval :      440.82   445.34   447.83   465.02   467.55   476.71
eigval :      480.63   489.25   492.36   498.34   505.51   515.68
eigval :      516.64   516.79   517.13   523.81   531.34   566.29
eigval :      567.55   568.10   579.73   580.45   584.47   592.11
eigval :      593.72   597.23   614.62   617.82   618.19   642.87
eigval :      643.66   650.38   652.94   654.40   655.96   662.32
eigval :      663.43   680.75   682.99   684.07   687.67   695.62
eigval :      697.19   697.38   707.44   709.72   727.51   727.92
eigval :      758.83   762.70   773.00   810.61   816.81   818.97
eigval :      819.25   819.57   821.16   821.36   824.64   824.73
eigval :      838.53   840.85   842.70   851.24   858.74   860.59
eigval :      864.57   865.80   866.07   866.72   871.79   872.19
eigval :      885.79   887.44   887.89   899.03   900.21   906.04
eigval :      906.47   907.87   907.96   909.12   909.65   923.42
eigval :      936.66   938.04   958.67   958.75   958.98   959.16
eigval :      959.72   960.89   961.76   962.57   962.71   963.50
eigval :      963.62   964.13   967.19   967.86   999.71  1013.72
eigval :     1032.79  1033.97  1034.25  1034.85  1035.15  1035.48
eigval :     1036.00  1037.22  1061.65  1062.02  1073.37  1075.62
eigval :     1079.29  1082.44  1100.60  1131.56  1131.62  1132.97
eigval :     1133.17  1135.21  1135.39  1137.72  1139.87  1169.72
eigval :     1171.09  1171.86  1176.26  1177.11  1177.49  1178.29
eigval :     1207.72  1210.40  1210.73  1211.15  1221.69  1225.45
eigval :     1225.54  1225.86  1226.19  1228.67  1228.90  1229.15
eigval :     1229.47  1236.46  1236.99  1237.83  1239.77  1244.97
eigval :     1246.03  1247.67  1259.08  1273.27  1278.15  1278.87
eigval :     1290.46  1290.81  1293.94  1294.31  1310.30  1316.44
eigval :     1319.38  1319.63  1321.42  1322.74  1333.04  1342.00
eigval :     1347.47  1348.09  1353.39  1366.39  1380.62  1381.38
eigval :     1384.70  1385.17  1395.11  1396.61  1401.51  1401.65
eigval :     1401.81  1401.83  1403.46  1403.52  1404.09  1404.46
eigval :     1407.86  1409.85  1424.34  1425.59  1425.70  1426.10
eigval :     1426.57  1427.68  1430.60  1443.69  1444.51  1455.03
eigval :     1457.18  1459.16  1477.34  1488.47  1488.57  1488.93
eigval :     1488.96  1489.76  1491.78  1492.35  1492.50  1492.94
eigval :     1494.05  1497.18  1497.69  1499.93  1500.50  1500.86
eigval :     1501.25  1501.55  1502.08  1503.98  1510.16  1510.30
eigval :     1510.97  1511.23  1511.30  1511.96  1516.17  1516.44
eigval :     1518.39  1518.72  1519.28  1522.00  1542.24  1542.51
eigval :     1547.34  1547.83  1569.70  1570.22  1576.15  1587.72
eigval :     3017.16  3017.30  3017.35  3017.51  3017.94  3018.64
eigval :     3018.68  3018.89  3022.43  3022.68  3022.83  3022.89
eigval :     3023.32  3023.69  3023.72  3023.83  3025.74  3026.00
eigval :     3026.04  3026.48  3030.57  3030.71  3031.43  3031.45
eigval :     3035.78  3035.94  3037.44  3038.20  3042.39  3042.59
eigval :     3042.65  3043.05  3045.84  3045.87  3046.10  3046.10
eigval :     3074.00  3074.21  3074.44  3075.47  3087.05  3087.20
eigval :     3087.57  3088.02  3101.05  3101.16  3103.87  3104.68
eigval :     3105.75  3105.92  3107.90  3107.93  3116.81  3117.10
eigval :     3119.53  3120.12  3138.25  3140.94  3143.71  3147.13

   temp. (K)  partition function   enthalpy   heat capacity  entropy
                                   cal/mol     cal/K/mol   cal/K/mol   J/K/mol
 298.15  VIB  0.316E+31            39313.900    243.936    243.956
         ROT  0.402E+09              888.752      2.981     42.352
         INT  0.127E+40            40202.653    246.917    286.308
         TR   0.280E+29             1481.254      4.968     46.385
         TOT                       41683.9067   251.8853   332.6931  1391.9877

       T/K    H(0)-H(T)+PV         H(T)/Eh          T*S/Eh         G(T)/Eh
   ------------------------------------------------------------------------
    298.15    0.664275E-01    0.112448E+01    0.158073E+00    0.966411E+00
   ------------------------------------------------------------------------

         :::::::::::::::::::::::::::::::::::::::::::::::::::::
         ::                  THERMODYNAMIC                  ::
         :::::::::::::::::::::::::::::::::::::::::::::::::::::
         :: total free energy        -191.455503391865 Eh   ::
         ::.................................................::
         :: total energy             -192.421914768257 Eh   ::
         :: zero point energy           1.058057047673 Eh   ::
         :: G(RRHO) w/o ZPVE           -0.091645671281 Eh   ::
         :: G(RRHO) contrib.            0.966411376392 Eh   ::
         :::::::::::::::::::::::::::::::::::::::::::::::::::::

           -------------------------------------------------
          | TOTAL ENERGY             -192.421914768257 Eh   |
          | TOTAL ENTHALPY           -191.297430187030 Eh   |
          | TOTAL FREE ENERGY        -191.455503391865 Eh   |
          | GRADIENT NORM               0.000104424389 Eh/α |
          | HOMO-LUMO GAP               0.001532362582 eV   |
           -------------------------------------------------

 * finished run on 2025/07/18 at 13:57:45.386
