   * xtb version 6.7.1 (edcfbbe) compiled by 'albert@albert-system' on 2024-07-22

   ID    Z sym.   atoms
    1    6 C      1-10, 12-21, 23-25, 27-32, 34-39, 41-50, 52-61, 63-71
    2    5 B      11, 51
    3    8 O      22, 40, 62, 72
    4    7 N      26, 33
    5    1 H      73-132

          program call               : xtb data2507/toluene/PzTDBA/PzTDBA_toluene_T1_crest.xyz --gfn 2 --uhf 2 --gbsa toluene --ohess vtight --parallel 40 --molden --ceasefiles --namespace data2507/toluene/PzTDBA/PzTDBA_toluene_T1_finalOpt
      * Solvation model:               GBSA
        Solvent                        toluene
        Solvent mass                       9.2140E+01 g/mol
          :  Hamiltonian                  GFN2-xTB          :
 * total energy  :  -192.4215675 Eh     change       -0.1858069E-07 Eh
 * total energy  :  -192.4216944 Eh     change       -0.1269254E-03 Eh
 * total energy  :  -192.4217532 Eh     change       -0.5884857E-04 Eh
 * total energy  :  -192.4217716 Eh     change       -0.1835908E-04 Eh
 * total energy  :  -192.4217856 Eh     change       -0.1401569E-04 Eh
 * total energy  :  -192.4218032 Eh     change       -0.1759067E-04 Eh
 * total energy  :  -192.4218086 Eh     change       -0.5360177E-05 Eh
 * total energy  :  -192.4218147 Eh     change       -0.6165719E-05 Eh
 * total energy  :  -192.4218204 Eh     change       -0.5632725E-05 Eh
 * total energy  :  -192.4218262 Eh     change       -0.5819966E-05 Eh
 * total energy  :  -192.4219182 Eh     change       -0.1907813E-06 Eh
 * total energy  :  -192.4219184 Eh     change       -0.1924323E-06 Eh
 * total energy  :  -192.4219186 Eh     change       -0.1991823E-06 Eh
 * total energy  :  -192.4219188 Eh     change       -0.2025721E-06 Eh
 * total energy  :  -192.4219190 Eh     change       -0.1980928E-06 Eh
 * total energy  :  -192.4219192 Eh     change       -0.1963242E-06 Eh
 * total energy  :  -192.4219193 Eh     change       -0.1566336E-06 Eh
 * total energy  :  -192.4219194 Eh     change       -0.1044251E-06 Eh
 * total energy  :  -192.4219195 Eh     change       -0.8496659E-07 Eh
   *** GEOMETRY OPTIMIZATION CONVERGED AFTER 83 ITERATIONS ***

 final structure:
================
132
 xtb: 6.7.1 (edcfbbe)
C          -11.57227591756501       -4.22643933831445        0.06486375634221
C          -11.04032755714515       -3.25187253342851        1.12616498430044
C          -11.16283672114823       -3.88529592542493        2.52025882480779
C          -11.91317424615411       -1.99361009166894        1.09785915267959
C           -9.57331859693378       -2.95846391990754        0.84251687813573
C           -8.65343323841195       -4.00887552998963        0.85072317905103
C           -7.31135525326326       -3.77677656270082        0.63516179536839
C           -6.85312146287535       -2.48681680164019        0.38909761282228
C           -7.74339933230887       -1.40079832812445        0.32089214517180
C           -9.09383020887285       -1.68829024730231        0.57568103778780
B           -7.14220047174435       -0.00974409103545        0.00758240085815
C           -7.76653938156591        1.37074572179578       -0.30703671254802
C           -9.12118813956489        1.63493068418723       -0.56463746620126
C           -9.62192388457182        2.89665103825059       -0.83250078302490
C          -11.09334154548536        3.16471848970361       -1.11846997892547
C          -11.94398209240923        1.89124946969692       -1.09387121262770
C          -11.22479228117061        3.79832077692366       -2.51165225601239
C          -11.64402708878031        4.12788612240924       -0.05631856607574
C           -8.72020956756791        3.96274126573677       -0.83895116241061
C           -7.37476645102679        3.75377366956170       -0.62071126960626
C           -6.89492946204300        2.47190041860040       -0.37348210411527
O           -5.53110272432319        2.39843054441786       -0.21646690568901
C           -4.89793805506951        1.20596223212791       -0.10226943770841
C           -3.50949192611344        1.22968657182227       -0.09431808989271
C           -2.81710407743569        0.02749854468498        0.01270630996920
N           -1.39109765160861        0.03850005571752        0.01421649991878
C           -0.71646299172535        0.26983839996638       -1.15799290508500
C           -1.39352172566741        0.47242650768272       -2.36580229208952
C           -0.70045137836329        0.73923067695260       -3.52355561301529
C            0.69755814543887        0.81727014911861       -3.50677281156262
C            1.38960032824108        0.59506458173201       -2.33920987723411
C            0.71114654022214        0.29785558449461       -1.15178501786647
N            1.38580105911098        0.03843962536660        0.01420324289691
C            2.81174590050865        0.02717425314747        0.01086386880797
C            3.50483479357841        1.09480240686507        0.57226162511510
C            4.89338259737545        1.07360110075636        0.56105012314044
C            5.61257010019411        0.00231927172217        0.00351003124425
C            4.87160972443193       -1.05591405403852       -0.55041650197852
C            3.48295133035737       -1.05233110097577       -0.55448331350289
O            5.48179915219175       -2.12681436195474       -1.11217941390785
C            6.84596038397258       -2.28466979611831       -1.05726309200910
C            7.30239984005226       -3.48871659353604       -1.58330311688544
C            8.64686660092236       -3.79333873910592       -1.55951797838031
C            9.57089011236508       -2.91240748020127       -0.99425462498366
C           11.04227271132624       -3.30225395241338       -0.95500030299641
C           11.92093159834994       -2.23830101510015       -0.29032856231269
C           11.19325422653826       -4.60858953192740       -0.16106730726046
C           11.54427402261669       -3.50635321489983       -2.39222898881165
C            9.09192300068666       -1.71500322410229       -0.49309727652058
C            7.73871308496075       -1.34094460837780       -0.51946434452474
B            7.13866483224902       -0.01138491032877       -0.00029403148216
C            7.76498494019118        1.30700036874889        0.51621101993998
C            9.12465970076756        1.65625429425606        0.48388613452270
C            9.62781996435999        2.84402550609325        0.98424099782322
C           11.10612507194366        3.20610932405878        0.93987835230002
C           11.27905221590855        4.51199825659004        0.14971527752782
C           11.61756040340433        3.39557484487665        2.37579854561391
C           11.96156817170160        2.12785359087812        0.26797938420023
C            8.72265634563206        3.74115356515008        1.55450718055285
C            7.37288151680211        3.46140189137043        1.58376053041267
C            6.89203260809247        2.26646451005413        1.05867622596028
O            5.52546548660334        2.13343426759368        1.11962726688604
C            0.71138437556511       -0.21572936020061        1.18158266844161
C            1.38924560373146       -0.51079829388618        2.36969178150942
C            0.69676112016587       -0.72954599885950        3.53778660193836
C           -0.70123506555581       -0.65122181967775        3.55395334075494
C           -1.39385550931780       -0.38765556456880        2.39533780892667
C           -0.71624374497148       -0.18748095628527        1.18724257659772
C           -3.48911298027674       -1.18635506069744        0.11825275220045
C           -4.87769837565430       -1.18665659438710        0.12237514693150
C           -5.61677566875566        0.00339018182842        0.00908435353925
O           -5.49044049483592       -2.38989459073085        0.23509359973317
H          -12.62294791559023       -4.44309243789313        0.24779141672906
H          -11.47698024685950       -3.79029284164896       -0.92772803556936
H          -11.02402895861682       -5.16455876160165        0.07799805309750
H          -10.75603639818155       -3.21455178567745        3.27484556636793
H          -10.62421007548192       -4.82729575273453        2.57664209157642
H          -12.20815095625703       -4.07653874499627        2.75502572534469
H          -11.59007768135335       -1.27731493937569        1.85003292050521
H          -11.88691883690453       -1.52220052076051        0.11842057690327
H          -12.94552116543549       -2.26400655489398        1.31205493328072
H           -8.97637198529915       -5.02108417262332        1.04064167304300
H           -6.59527747010010       -4.58517074428652        0.66411632123023
H           -9.77345547255795       -0.85492412406118        0.57759559196183
H           -9.78630964849390        0.78994649663268       -0.56792608081586
H          -11.60686211664170        1.18207340735915       -1.84664690150425
H          -12.98051520751068        2.14381519067178       -1.30963357644406
H          -11.91135798801996        1.41866306873343       -0.11519471195576
H          -10.70251617297481        4.74960754384958       -2.56579005852945
H          -10.80541648240160        3.13592669104323       -3.26672731555915
H          -12.27293841980462        3.97181253486044       -2.74759537205264
H          -12.69768984801640        4.32753015171047       -0.24137741236273
H          -11.54396286891862        3.69110691815083        0.93552503866528
H          -11.11130425673965        5.07495101020958       -0.06597037243968
H           -9.06018277297730        4.96925374523975       -1.02945786779253
H           -6.67251606188853        4.57425234775940       -0.64828682564706
H           -2.98438695017259        2.16825223652416       -0.17322643533807
H           -2.46995822103538        0.41848461451111       -2.37666981739729
H           -1.23784247785521        0.89411789791112       -4.44528878931696
H            1.23547568153400        1.04542632923457       -4.41283477571072
H            2.46622081026611        0.64607724430834       -2.32639406045274
H            2.98046673785268        1.93143557603283        1.00575661743722
H            2.94133862349708       -1.87900428701738       -0.98590000363434
H            6.58263398951512       -4.17838416152833       -1.99969409591855
H            8.96851296544545       -4.73550341478642       -1.97632800586059
H           11.87703060315429       -1.29891516694858       -0.83607145300453
H           12.95598888521950       -2.57493053739945       -0.28519344391782
H           11.61732182714202       -2.06951989129539        0.74042438997459
H           10.64152141752948       -5.42132181958507       -0.62550063741773
H           12.24155016476958       -4.89591399350213       -0.10716451088854
H           10.81813559200462       -4.47772467440634        0.85233813792678
H           11.42410817926812       -2.58917160888929       -2.96577353179489
H           12.59883218286773       -3.77513664177864       -2.38676769038837
H           10.99420204343557       -4.29674512325063       -2.89573591788095
H            9.77688615805499       -1.02282759777814       -0.03752458886177
H            9.79468227826577        0.95206193419246        0.02453669316565
H           12.33258785434885        4.77849790273673        0.09154461454879
H           10.74610969199916        5.33402414793096        0.61970077912885
H           10.89639018041284        4.39220033694481       -0.86223321843022
H           11.47997118697220        2.47959841991145        2.94736491361692
H           11.08622787943765        4.19614235939157        2.88334853122844
H           12.67755326755428        3.64183101455053        2.36724072661071
H           11.90274019888412        1.18786333769381        0.81125652031163
H           11.64990240960456        1.96778282953179       -0.76176094199264
H           13.00269894461172        2.44511191293871        0.25876022071947
H            9.06348588277474        4.67661586396477        1.97114890399635
H            6.66785117307580        4.16391914380692        2.00389380962633
H            2.46582984862216       -0.56262508049837        2.35750758181009
H            1.23441185302443       -0.95533499546084        4.44459064692454
H           -1.23888328129729       -0.80348833902789        4.47598214281317
H           -2.47032680795657       -0.33395407007845        2.40545265265304
H           -2.94819073505904       -2.11574021750990        0.19893150148486

          :  Hamiltonian                  GFN2-xTB          :
         :: gradient norm              0.000038729148 Eh/a0 ::
         :: HOMO-LUMO gap              0.001519280557 eV    ::
         :: SCC energy              -195.553854674858 Eh    ::
         :: -> dispersion             -0.175697531952 Eh    ::
         :: -> Gsolv                  -0.074655483143 Eh    ::
         :: repulsion energy           3.131935176656 Eh    ::

    * Orbital Energies and Occupations

         #    Occupation            Energy/Eh            Energy/eV
      -------------------------------------------------------------
         1        2.0000           -0.7239214             -19.6989
       ...           ...                  ...                  ...
       167        2.0000           -0.3953630             -10.7584
       168        2.0000           -0.3909007             -10.6370
       169        2.0000           -0.3907676             -10.6333
       170        2.0000           -0.3844257             -10.4608
       171        2.0000           -0.3841831             -10.4542
       172        2.0000           -0.3793700             -10.3232
       173        2.0000           -0.3792360             -10.3195
       174        2.0000           -0.3758069             -10.2262
       175        2.0000           -0.3758026             -10.2261
       176        1.9983           -0.3642689              -9.9123
       177        1.9982           -0.3641961              -9.9103
       178        1.0035           -0.3528311              -9.6010
       179        0.3974           -0.2653084              -7.2194 (HOMO)
       180        0.3834           -0.2652525              -7.2179 (LUMO)
       181        0.2193           -0.2644976              -7.1973
       182                         -0.2465414              -6.7087
       183                         -0.2327939              -6.3346
       184                         -0.2305574              -6.2738
       185                         -0.2304641              -6.2712
       186                         -0.2296290              -6.2485
       187                         -0.2244165              -6.1067
       188                         -0.2146466              -5.8408
       189                         -0.2117981              -5.7633
       190                         -0.2117946              -5.7632
       ...                                ...                  ...
       348                          0.7031925              19.1348
      -------------------------------------------------------------
                  HL-Gap            0.0000558 Eh            0.0015 eV

     #   Z          covCN         q      C6AA      α(0)
     1   6 C        3.761    -0.105    22.549     6.769
     2   6 C        3.902     0.024    20.109     6.374
     3   6 C        3.761    -0.105    22.548     6.769
     4   6 C        3.761    -0.107    22.592     6.776
     5   6 C        2.968    -0.002    28.078     8.692
     6   6 C        2.927    -0.040    28.987     8.829
     7   6 C        2.913    -0.061    29.529     8.911
     8   6 C        2.875     0.126    25.236     8.235
     9   6 C        2.881    -0.094    30.368     9.034
    10   6 C        2.931    -0.051    29.271     8.873
    11   5 B        2.723     0.187    18.575     7.222
    12   6 C        2.881    -0.094    30.368     9.034
    13   6 C        2.931    -0.051    29.271     8.873
    14   6 C        2.968    -0.002    28.078     8.692
    15   6 C        3.902     0.024    20.109     6.374
    16   6 C        3.761    -0.107    22.592     6.776
    17   6 C        3.761    -0.105    22.548     6.769
    18   6 C        3.761    -0.105    22.549     6.769
    19   6 C        2.927    -0.040    28.987     8.829
    20   6 C        2.913    -0.061    29.529     8.911
    21   6 C        2.875     0.126    25.236     8.235
    22   8 O        1.711    -0.253    18.185     5.758
    23   6 C        2.872     0.135    25.042     8.203
    24   6 C        2.913    -0.083    30.070     8.992
    25   6 C        2.931     0.041    27.079     8.534
    26   7 N        2.754     0.009    21.096     6.822
    27   6 C        2.931     0.048    26.921     8.509
    28   6 C        2.916    -0.045    29.111     8.848
    29   6 C        2.916    -0.028    28.698     8.785
    30   6 C        2.916    -0.028    28.695     8.784
    31   6 C        2.916    -0.045    29.109     8.847
    32   6 C        2.931     0.048    26.922     8.509
    33   7 N        2.754     0.009    21.097     6.822
    34   6 C        2.932     0.041    27.077     8.534
    35   6 C        2.913    -0.083    30.073     8.992
    36   6 C        2.872     0.135    25.042     8.203
    37   6 C        2.886    -0.125    31.181     9.155
    38   6 C        2.872     0.135    25.042     8.203
    39   6 C        2.913    -0.083    30.072     8.992
    40   8 O        1.711    -0.252    18.177     5.756
    41   6 C        2.875     0.126    25.236     8.235
    42   6 C        2.913    -0.062    29.530     8.911
    43   6 C        2.927    -0.040    28.987     8.829
    44   6 C        2.968    -0.002    28.079     8.692
    45   6 C        3.902     0.024    20.110     6.374
    46   6 C        3.761    -0.107    22.592     6.776
    47   6 C        3.761    -0.105    22.548     6.769
    48   6 C        3.761    -0.105    22.549     6.769
    49   6 C        2.931    -0.051    29.274     8.873
    50   6 C        2.881    -0.094    30.367     9.034
    51   5 B        2.723     0.187    18.579     7.223
    52   6 C        2.881    -0.094    30.367     9.034
    53   6 C        2.931    -0.051    29.274     8.873
    54   6 C        2.968    -0.002    28.079     8.692
    55   6 C        3.902     0.024    20.110     6.374
    56   6 C        3.761    -0.105    22.548     6.769
    57   6 C        3.761    -0.105    22.548     6.769
    58   6 C        3.761    -0.107    22.592     6.776
    59   6 C        2.927    -0.040    28.987     8.829
    60   6 C        2.913    -0.062    29.530     8.911
    61   6 C        2.875     0.126    25.236     8.235
    62   8 O        1.711    -0.252    18.176     5.756
    63   6 C        2.931     0.048    26.920     8.509
    64   6 C        2.916    -0.045    29.110     8.848
    65   6 C        2.916    -0.028    28.697     8.785
    66   6 C        2.916    -0.028    28.695     8.784
    67   6 C        2.916    -0.045    29.110     8.847
    68   6 C        2.931     0.048    26.923     8.509
    69   6 C        2.913    -0.083    30.069     8.992
    70   6 C        2.872     0.135    25.042     8.203
    71   6 C        2.887    -0.125    31.181     9.155
    72   8 O        1.711    -0.253    18.185     5.758
    73   1 H        0.925     0.038     2.477     2.461
    74   1 H        0.925     0.032     2.551     2.498
    75   1 H        0.925     0.035     2.519     2.482
    76   1 H        0.925     0.032     2.563     2.504
    77   1 H        0.925     0.035     2.516     2.481
    78   1 H        0.925     0.038     2.480     2.463
    79   1 H        0.925     0.035     2.510     2.478
    80   1 H        0.925     0.037     2.483     2.464
    81   1 H        0.925     0.037     2.492     2.469
    82   1 H        0.926     0.029     2.594     2.519
    83   1 H        0.926     0.031     2.578     2.511
    84   1 H        0.926     0.044     2.396     2.421
    85   1 H        0.926     0.044     2.396     2.421
    86   1 H        0.925     0.035     2.510     2.478
    87   1 H        0.925     0.037     2.492     2.469
    88   1 H        0.925     0.037     2.483     2.464
    89   1 H        0.925     0.035     2.516     2.481
    90   1 H        0.925     0.032     2.563     2.504
    91   1 H        0.925     0.038     2.480     2.463
    92   1 H        0.925     0.038     2.477     2.461
    93   1 H        0.925     0.032     2.551     2.498
    94   1 H        0.925     0.035     2.519     2.482
    95   1 H        0.926     0.029     2.594     2.519
    96   1 H        0.926     0.031     2.578     2.511
    97   1 H        0.926     0.049     2.332     2.388
    98   1 H        0.926     0.055     2.253     2.347
    99   1 H        0.926     0.056     2.246     2.343
   100   1 H        0.926     0.056     2.245     2.343
   101   1 H        0.926     0.055     2.254     2.348
   102   1 H        0.926     0.049     2.332     2.388
   103   1 H        0.926     0.049     2.336     2.390
   104   1 H        0.926     0.031     2.578     2.511
   105   1 H        0.926     0.029     2.595     2.519
   106   1 H        0.925     0.038     2.481     2.463
   107   1 H        0.925     0.037     2.492     2.469
   108   1 H        0.925     0.035     2.511     2.478
   109   1 H        0.925     0.035     2.518     2.481
   110   1 H        0.925     0.038     2.480     2.463
   111   1 H        0.925     0.032     2.563     2.503
   112   1 H        0.925     0.032     2.552     2.498
   113   1 H        0.925     0.038     2.477     2.461
   114   1 H        0.925     0.035     2.518     2.482
   115   1 H        0.926     0.044     2.394     2.419
   116   1 H        0.926     0.044     2.394     2.419
   117   1 H        0.925     0.038     2.480     2.463
   118   1 H        0.925     0.035     2.518     2.481
   119   1 H        0.925     0.032     2.563     2.503
   120   1 H        0.925     0.032     2.552     2.498
   121   1 H        0.925     0.035     2.518     2.482
   122   1 H        0.925     0.038     2.477     2.461
   123   1 H        0.925     0.038     2.481     2.463
   124   1 H        0.925     0.035     2.511     2.478
   125   1 H        0.925     0.037     2.492     2.469
   126   1 H        0.926     0.029     2.595     2.519
   127   1 H        0.926     0.031     2.578     2.511
   128   1 H        0.926     0.055     2.253     2.347
   129   1 H        0.926     0.056     2.245     2.343
   130   1 H        0.926     0.056     2.246     2.343
   131   1 H        0.926     0.055     2.254     2.348
   132   1 H        0.926     0.049     2.335     2.390

molecular dipole:
                 x           y           z       tot (Debye)
 q only:        0.010       0.022       0.006
   full:        0.009       0.023       0.006       0.064

 projected vibrational frequencies (cm⁻¹)
eigval :       -0.00    -0.00    -0.00    -0.00     0.00     0.00
eigval :        2.14     3.79     9.38    16.55    20.02    20.17
eigval :       25.82    30.34    31.50    34.66    35.30    43.76
eigval :       45.96    55.08    57.75    60.78    64.39    73.30
eigval :       79.01    84.12    89.37    93.95   105.03   107.67
eigval :      108.89   112.34   124.92   134.82   134.86   139.39
eigval :      155.99   162.25   167.04   170.89   173.62   175.74
eigval :      206.28   212.73   214.81   215.14   216.14   217.44
eigval :      219.96   223.79   225.49   227.17   228.89   229.75
eigval :      233.67   251.02   254.57   259.81   261.82   265.00
eigval :      273.05   279.08   280.82   288.44   292.39   313.62
eigval :      314.80   317.36   317.98   326.46   327.93   331.85
eigval :      334.67   347.61   361.79   362.72   364.30   364.64
eigval :      366.18   366.96   374.39   380.28   383.51   386.51
eigval :      390.85   394.35   406.50   412.61   414.32   421.06
eigval :      422.77   426.78   432.88   433.08   433.67   434.45
eigval :      440.56   445.44   447.97   465.37   467.66   476.78
eigval :      480.59   488.92   492.24   497.81   505.45   515.60
eigval :      516.58   516.69   516.97   523.62   531.79   566.22
eigval :      566.90   567.56   579.62   580.44   584.46   591.67
eigval :      593.52   597.22   614.32   617.80   618.03   642.83
eigval :      643.72   650.31   652.99   654.47   656.11   662.49
eigval :      663.92   680.19   682.78   684.10   687.75   695.51
eigval :      697.15   697.34   707.40   709.64   727.19   727.95
eigval :      758.12   761.90   773.14   810.67   816.23   818.07
eigval :      819.24   820.25   821.04   821.28   824.56   824.71
eigval :      838.12   840.07   842.46   851.25   857.98   859.40
eigval :      863.88   865.67   866.38   866.98   871.64   872.25
eigval :      885.78   887.19   887.95   898.25   899.24   905.21
eigval :      905.80   908.59   908.84   909.05   909.14   923.17
eigval :      936.53   937.91   958.66   958.74   959.06   959.33
eigval :      960.53   960.72   962.11   962.56   963.29   963.37
eigval :      963.78   963.88   966.82   967.82   999.46  1013.69
eigval :     1033.66  1033.86  1033.99  1034.06  1034.76  1035.09
eigval :     1036.57  1037.01  1061.54  1062.16  1073.20  1075.54
eigval :     1078.81  1081.74  1100.38  1131.39  1131.59  1133.16
eigval :     1133.17  1134.13  1135.55  1137.67  1140.23  1169.47
eigval :     1171.01  1171.63  1175.79  1176.44  1177.15  1177.91
eigval :     1207.64  1210.34  1210.70  1210.83  1221.38  1225.73
eigval :     1225.77  1225.99  1226.30  1228.80  1228.95  1229.35
eigval :     1229.51  1236.23  1236.48  1238.04  1239.80  1244.80
eigval :     1245.72  1247.98  1258.97  1273.18  1278.25  1279.04
eigval :     1290.39  1290.87  1293.71  1294.35  1310.40  1316.86
eigval :     1319.37  1319.68  1321.44  1322.78  1333.16  1342.21
eigval :     1347.34  1348.00  1353.53  1366.47  1380.46  1381.44
eigval :     1384.65  1385.20  1395.09  1396.50  1401.74  1401.85
eigval :     1401.89  1402.04  1403.58  1403.67  1404.00  1404.49
eigval :     1407.95  1409.70  1425.48  1425.78  1426.00  1426.29
eigval :     1426.33  1427.81  1430.64  1443.62  1444.70  1455.66
eigval :     1457.38  1459.26  1476.69  1488.78  1488.82  1488.84
eigval :     1488.99  1490.06  1491.87  1492.24  1492.79  1492.90
eigval :     1493.63  1497.14  1497.76  1499.90  1499.96  1500.87
eigval :     1501.12  1501.53  1502.33  1505.27  1510.30  1510.67
eigval :     1510.95  1511.10  1511.59  1512.17  1516.35  1516.76
eigval :     1518.98  1519.29  1519.53  1521.98  1542.27  1542.56
eigval :     1547.31  1547.84  1569.71  1570.27  1576.18  1587.79
eigval :     3017.35  3017.44  3017.49  3017.52  3017.79  3017.90
eigval :     3018.76  3018.85  3022.58  3022.81  3022.98  3023.02
eigval :     3023.24  3023.27  3023.73  3023.91  3025.88  3026.14
eigval :     3026.23  3026.48  3030.56  3030.77  3031.40  3031.56
eigval :     3035.84  3035.95  3037.31  3038.17  3042.83  3042.87
eigval :     3042.88  3042.93  3046.05  3046.14  3046.28  3046.34
eigval :     3074.06  3074.47  3074.63  3075.26  3087.32  3087.54
eigval :     3087.63  3087.89  3100.85  3100.97  3104.12  3104.64
eigval :     3105.29  3105.89  3107.67  3107.79  3116.53  3116.82
eigval :     3119.30  3119.93  3138.08  3140.58  3143.50  3146.86

   temp. (K)  partition function   enthalpy   heat capacity  entropy
                                   cal/mol     cal/K/mol   cal/K/mol   J/K/mol
 298.15  VIB  0.159E+32            39370.191    243.943    245.853
         ROT  0.402E+09              888.752      2.981     42.352
         INT  0.639E+40            40258.944    246.924    288.205
         TR   0.280E+29             1481.254      4.968     46.385
         TOT                       41740.1975   251.8920   334.5902  1399.9253

       T/K    H(0)-H(T)+PV         H(T)/Eh          T*S/Eh         G(T)/Eh
   ------------------------------------------------------------------------
    298.15    0.665172E-01    0.112444E+01    0.158975E+00    0.965465E+00
   ------------------------------------------------------------------------

         :::::::::::::::::::::::::::::::::::::::::::::::::::::
         ::                  THERMODYNAMIC                  ::
         :::::::::::::::::::::::::::::::::::::::::::::::::::::
         :: total free energy        -191.456454404397 Eh   ::
         ::.................................................::
         :: total energy             -192.421919498632 Eh   ::
         :: zero point energy           1.057922445864 Eh   ::
         :: G(RRHO) w/o ZPVE           -0.092457351629 Eh   ::
         :: G(RRHO) contrib.            0.965465094235 Eh   ::
         :::::::::::::::::::::::::::::::::::::::::::::::::::::

           -------------------------------------------------
          | TOTAL ENERGY             -192.421919498632 Eh   |
          | TOTAL ENTHALPY           -191.297479814057 Eh   |
          | TOTAL FREE ENERGY        -191.456454404397 Eh   |
          | GRADIENT NORM               0.000037723987 Eh/α |
          | HOMO-LUMO GAP               0.001519077213 eV   |
           -------------------------------------------------

 * finished run on 2025/07/18 at 14:30:20.321
