   * xtb version 6.7.1 (edcfbbe) compiled by 'albert@albert-system' on 2024-07-22

   ID    Z sym.   atoms
    1    6 C      1-10, 12-21, 23-25, 27-32, 34-39, 41-50, 52-61, 63-71
    2    5 B      11, 51
    3    8 O      22, 40, 62, 72
    4    7 N      26, 33
    5    1 H      73-132

          program call               : xtb data2507/toluene/PzTDBA/PzTDBA.xyz --gfn 2 --gbsa toluene --ohess vtight --parallel 40 --molden --ceasefiles --namespace data2507/toluene/PzTDBA/PzTDBA_toluene_S0_preOpt
      * Solvation model:               GBSA
        Solvent                        toluene
        Solvent mass                       9.2140E+01 g/mol
          :  Hamiltonian                  GFN2-xTB          :
 * total energy  :  -192.3256611 Eh     change       -0.4925141E-08 Eh
 * total energy  :  -192.4015464 Eh     change       -0.7588530E-01 Eh
 * total energy  :  -192.4345327 Eh     change       -0.3298638E-01 Eh
 * total energy  :  -192.4486289 Eh     change       -0.1409620E-01 Eh
 * total energy  :  -192.4566094 Eh     change       -0.7980423E-02 Eh
 * total energy  :  -192.4621696 Eh     change       -0.5560264E-02 Eh
 * total energy  :  -192.4668025 Eh     change       -0.4632867E-02 Eh
 * total energy  :  -192.4709602 Eh     change       -0.4157748E-02 Eh
 * total energy  :  -192.4747443 Eh     change       -0.3784017E-02 Eh
 * total energy  :  -192.4780963 Eh     change       -0.3352086E-02 Eh
 * total energy  :  -192.4939308 Eh     change       -0.3898282E-06 Eh
 * total energy  :  -192.4939312 Eh     change       -0.4208363E-06 Eh
 * total energy  :  -192.4939317 Eh     change       -0.4961843E-06 Eh
 * total energy  :  -192.4939322 Eh     change       -0.5719812E-06 Eh
 * total energy  :  -192.4939329 Eh     change       -0.6304410E-06 Eh
 * total energy  :  -192.4939336 Eh     change       -0.6719551E-06 Eh
 * total energy  :  -192.4939343 Eh     change       -0.7180140E-06 Eh
 * total energy  :  -192.4939350 Eh     change       -0.7757232E-06 Eh
 * total energy  :  -192.4939350 Eh     change       -0.2742325E-08 Eh
   *** GEOMETRY OPTIMIZATION CONVERGED AFTER 185 ITERATIONS ***

 final structure:
================
132
 xtb: 6.7.1 (edcfbbe)
C          -11.36375556027144       -1.87273955082716        2.95773229357830
C          -10.89068806547357       -2.95442137618091        1.97501182137663
C          -11.68858995740545       -2.85384353273952        0.66654205904329
C          -11.17346592756125       -4.32413858121652        2.59957366553099
C           -9.41277505644082       -2.73955594666125        1.67920651643283
C           -8.43417762519509       -3.68449473211782        1.98994689946136
C           -7.10420439494932       -3.43295348508310        1.73565424526344
C           -6.71002498212688       -2.23251258775171        1.14781302450148
C           -7.66288325293664       -1.26705975622916        0.77443327180933
C           -8.99691458617997       -1.56102370867624        1.08133035059492
B           -7.13268940995045        0.01265674549066        0.08107192780649
C           -7.82808958255498        1.21228020218988       -0.60860464538533
C           -9.19531288022085        1.32598774391770       -0.90434613002600
C           -9.76038203297825        2.43422747555722       -1.50573910387996
C          -11.24275535246739        2.54074468954204       -1.83370808033070
C          -12.03312087643272        1.29835355583404       -1.41235036358488
C          -11.40359152267477        2.71894781033461       -3.35082941071393
C          -11.83398865833676        3.75450022092420       -1.10123756570332
C           -8.91075731088927        3.49851344848890       -1.82635982355405
C           -7.56041614844375        3.42776826105304       -1.58234787809062
C           -7.01043552598781        2.28847014132096       -0.99295918980278
O           -5.65156975138668        2.32732121843799       -0.84888696173945
C           -4.95641862292740        1.26112158916577       -0.39445665980572
C           -3.56953401106014        1.35964242509415       -0.39769097762168
C           -2.80995139734942        0.28402776369833        0.04641410085778
N           -1.39708731641734        0.36380047748250        0.03036365533329
C           -0.71436159938374        0.36556168048020       -1.18638001654937
C           -1.39347632277073        0.31662349877451       -2.39496541932255
C           -0.71005287959215        0.35732223506638       -3.60342536873083
C            0.66413383174841        0.45437912809608       -3.60999535259203
C            1.35949225765551        0.47042119996095       -2.40792197795271
C            0.69233187170238        0.39518849935924       -1.19398910786275
N            1.39387445722226        0.37015964110928        0.01217548725925
C            2.80683932575512        0.29604279078688       -0.00488413397560
C            3.56288614966815        1.37509000347780        0.43731617192967
C            4.95017156773192        1.28346603559506        0.42913955136375
C            5.60615128308625        0.13527932061268       -0.04080319302377
C            4.81158886847642       -0.92921761211703       -0.49362609287463
C            3.42389285512373       -0.86092239126019       -0.46602185240569
O            5.36386184131320       -2.07070909519101       -0.96079926313554
C            6.71449682106448       -2.19581355555526       -1.13284020219063
C            7.11241894544073       -3.38998812540617       -1.73088459724329
C            8.44141034441799       -3.62788994787623       -2.00249590634463
C            9.41531455204602       -2.67536190233604       -1.69992392444159
C           10.89059058245108       -2.87491733664558       -2.01921180800854
C           11.33769639220963       -1.78609905424686       -3.00626181749502
C           11.70827914032426       -2.77029607057110       -0.72337132530436
C           11.17704693978091       -4.24022905455280       -2.65173014200048
C            8.99631360475668       -1.50440343611953       -1.08946262651056
C            7.66347726257903       -1.22461066200927       -0.76459065610237
B            7.13003074003142        0.04630903247476       -0.05829517582680
C            7.82260549158504        1.24546641154011        0.63491810106116
C            9.18524155533799        1.36613994424413        0.93264155097362
C            9.75096449821045        2.47788910013014        1.53526513456437
C           11.24480376257541        2.49892115573310        1.82872139465734
C           11.70204269659242        3.81427971169335        2.46666752610276
C           11.57667805315434        1.35528229203076        2.79913414197862
C           12.02105128935757        2.31081458390477        0.51696380451042
C            8.90234290827119        3.53868822914739        1.85447996926747
C            7.54944179453855        3.45931639460012        1.60922871726802
C            7.00155548600930        2.32046698581182        1.02189666294672
O            5.64184849761345        2.35344168611168        0.88017328497622
C            0.71101546781437        0.37372050466822        1.22895094397587
C            1.39009867871868        0.33231051395256        2.43778542164576
C            0.70620816782527        0.37408096225189        3.64598331574855
C           -0.66844523413576        0.46432940036562        3.65203146458872
C           -1.36369027145349        0.47246732424083        2.44981430403886
C           -0.69583393454501        0.39657888291890        1.23631689273529
C           -3.42315365990696       -0.87575166511663        0.50543782589562
C           -4.81064780696109       -0.95121497082148        0.52709730067575
C           -5.60893007026585        0.10956726077588        0.07182741630968
O           -5.35853694995142       -2.09627988518201        0.99013643884406
H          -12.41952518202222       -2.00811890694938        3.18320923295320
H          -10.80136814428268       -1.93697912326784        3.88732307148688
H          -11.22676575407482       -0.87627889223941        2.54725175327171
H          -11.33534387837299       -3.59498455497072       -0.04784999594137
H          -11.58986772822922       -1.87110662697912        0.21569794301396
H          -12.74417840368179       -3.03496262615921        0.85799546298332
H          -10.87019116047443       -5.12859532811389        1.93313611733339
H          -10.65968766893444       -4.43549060695815        3.55175632763702
H          -12.24161070017761       -4.42445291702154        2.78233190892630
H           -8.69622660270705       -4.62411885976017        2.44726940597805
H           -6.34254751187507       -4.15287518369285        1.99614398311043
H           -9.73155024737961       -0.80857768418907        0.84922926179493
H           -9.81584857531236        0.48290784501831       -0.65983323388808
H          -11.66766770049698        0.40985501453351       -1.92213353829198
H          -13.08045844323003        1.42949791647752       -1.67707826135513
H          -11.97673283477131        1.14743994572515       -0.33691750315593
H          -10.96979882478479        1.87095286430968       -3.87745920349944
H          -12.45823583150632        2.78404594843227       -3.61039972405004
H          -10.91144841006146        3.62304776431499       -3.69872510297051
H          -11.69540772742870        3.65054093752605       -0.02675692944169
H          -11.36053662199472        4.67979577720779       -1.41752405199563
H          -12.89980685534592        3.83160551999744       -1.30605100027519
H           -9.30415410281128        4.39122870187297       -2.28762951102906
H           -6.90013938496423        4.23900763694070       -1.85074097229458
H           -3.09430590894152        2.26065130794223       -0.75225717891194
H           -2.46945105196161        0.24395235640193       -2.39684909548944
H           -1.26536198826077        0.31983078501290       -4.52820720804998
H            1.20966363538369        0.50990144055023       -4.53963893648295
H            2.43597381091880        0.53858349091267       -2.41783562518791
H            3.08450853905540        2.27392920582041        0.79313554910900
H            2.83666603160241       -1.69718894586329       -0.81110548573979
H            6.35429770316575       -4.11544562776800       -1.98617954826429
H            8.70653075791296       -4.56262919565842       -2.46791525378019
H           10.76451284954995       -1.85619867432278       -3.92875508435481
H           12.39212481555866       -1.90799582954753       -3.24526802118102
H           11.19341991463241       -0.79172413763771       -2.59311991059980
H           11.36865755529397       -3.51124123993582       -0.00220205508733
H           12.76149239461763       -2.94759701529457       -0.93073089328995
H           11.61318251322584       -1.78707949313373       -0.27267272792940
H           10.65030037634352       -4.35368618760880       -3.59653308028161
H           12.24325383156173       -4.32979065889818       -2.85063620450722
H           10.89130170062244       -5.04930676450506       -1.98316127461721
H            9.72607017147769       -0.74529787203428       -0.86273271308805
H            9.81598139566924        0.52709644387040        0.69120764197027
H           12.77423133404993        3.77404555324701        2.64883330453597
H           11.20706043813067        3.98080941525858        3.42072954002930
H           11.50510362956527        4.65791315085782        1.80893886162183
H           11.31100196749957        0.38872261426091        2.38033524491716
H           11.02971860468091        1.48255993513890        3.73140416359458
H           12.64166913267340        1.35067084804918        3.02183641746370
H           11.76157669370252        3.09614183246357       -0.19034860448293
H           13.09155058270682        2.35603891577387        0.70588084648120
H           11.79868316778180        1.35195671786137        0.05858867891153
H            9.28483660860909        4.43535074748348        2.31314817582545
H            6.88755572311336        4.26899877252020        1.87854204210398
H            2.46640699401106        0.26469852478759        2.44014055218282
H            1.26152972917935        0.34268045776314        4.57098579941126
H           -1.21436342626861        0.52039487746343        4.58141804050588
H           -2.44053841548357        0.53489572654139        2.45908305303612
H           -2.83323496140796       -1.70954419651361        0.85189464450413

          :  Hamiltonian                  GFN2-xTB          :
         :: gradient norm              0.000040396303 Eh/a0 ::
         :: HOMO-LUMO gap              1.399964471944 eV    ::
         :: SCC energy              -195.636945357606 Eh    ::
         :: -> dispersion             -0.175782124532 Eh    ::
         :: -> Gsolv                  -0.072836067151 Eh    ::
         :: repulsion energy           3.143010309894 Eh    ::

    * Orbital Energies and Occupations

         #    Occupation            Energy/Eh            Energy/eV
      -------------------------------------------------------------
         1        2.0000           -0.7331594             -19.9503
       ...           ...                  ...                  ...
       166        2.0000           -0.4035543             -10.9813
       167        2.0000           -0.4017396             -10.9319
       168        2.0000           -0.4013742             -10.9219
       169        2.0000           -0.3948342             -10.7440
       170        2.0000           -0.3942019             -10.7268
       171        2.0000           -0.3896240             -10.6022
       172        2.0000           -0.3892095             -10.5909
       173        2.0000           -0.3843272             -10.4581
       174        2.0000           -0.3840941             -10.4517
       175        2.0000           -0.3760586             -10.2331
       176        2.0000           -0.3699406             -10.0666
       177        2.0000           -0.3696510             -10.0587
       178        2.0000           -0.3257114              -8.8631 (HOMO)
       179                         -0.2742637              -7.4631 (LUMO)
       180                         -0.2736379              -7.4461
       181                         -0.2362541              -6.4288
       182                         -0.2361758              -6.4267
       183                         -0.2336429              -6.3577
       184                         -0.2335152              -6.3543
       185                         -0.2299758              -6.2580
       186                         -0.2217490              -6.0341
       187                         -0.2216066              -6.0302
       188                         -0.2213636              -6.0236
       189                         -0.2146205              -5.8401
       ...                                ...                  ...
       348                          0.6964660              18.9518
      -------------------------------------------------------------
                  HL-Gap            0.0514477 Eh            1.4000 eV

     #   Z          covCN         q      C6AA      α(0)
     1   6 C        3.761    -0.107    22.590     6.775
     2   6 C        3.902     0.026    20.088     6.371
     3   6 C        3.761    -0.108    22.603     6.777
     4   6 C        3.761    -0.109    22.627     6.781
     5   6 C        2.968     0.003    27.965     8.674
     6   6 C        2.925    -0.036    28.887     8.814
     7   6 C        2.913    -0.057    29.408     8.892
     8   6 C        2.876     0.132    25.118     8.216
     9   6 C        2.881    -0.092    30.300     9.024
    10   6 C        2.933    -0.040    28.988     8.830
    11   5 B        2.723     0.212    18.208     7.150
    12   6 C        2.882    -0.092    30.308     9.025
    13   6 C        2.930    -0.044    29.093     8.846
    14   6 C        2.968     0.002    27.967     8.674
    15   6 C        3.902     0.026    20.089     6.371
    16   6 C        3.761    -0.109    22.624     6.781
    17   6 C        3.761    -0.107    22.584     6.774
    18   6 C        3.761    -0.107    22.585     6.775
    19   6 C        2.928    -0.031    28.778     8.798
    20   6 C        2.913    -0.056    29.394     8.890
    21   6 C        2.876     0.132    25.110     8.215
    22   8 O        1.711    -0.236    17.909     5.714
    23   6 C        2.873     0.139    24.965     8.191
    24   6 C        2.915    -0.081    30.037     8.987
    25   6 C        2.925     0.071    26.404     8.427
    26   7 N        2.753    -0.079    22.776     7.088
    27   6 C        2.925     0.051    26.859     8.499
    28   6 C        2.924    -0.063    29.579     8.919
    29   6 C        2.918    -0.044    29.081     8.843
    30   6 C        2.918    -0.044    29.085     8.844
    31   6 C        2.924    -0.063    29.559     8.916
    32   6 C        2.926     0.051    26.865     8.500
    33   7 N        2.753    -0.079    22.775     7.088
    34   6 C        2.925     0.071    26.403     8.427
    35   6 C        2.915    -0.081    30.036     8.987
    36   6 C        2.873     0.139    24.960     8.190
    37   6 C        2.888    -0.126    31.217     9.160
    38   6 C        2.873     0.139    24.958     8.190
    39   6 C        2.916    -0.081    30.032     8.987
    40   8 O        1.711    -0.237    17.919     5.715
    41   6 C        2.877     0.132    25.114     8.215
    42   6 C        2.913    -0.057    29.405     8.892
    43   6 C        2.926    -0.036    28.886     8.814
    44   6 C        2.968     0.002    27.968     8.675
    45   6 C        3.902     0.026    20.089     6.371
    46   6 C        3.761    -0.107    22.590     6.775
    47   6 C        3.761    -0.106    22.572     6.773
    48   6 C        3.761    -0.109    22.629     6.781
    49   6 C        2.933    -0.039    28.973     8.828
    50   6 C        2.881    -0.092    30.303     9.025
    51   5 B        2.723     0.213    18.200     7.149
    52   6 C        2.881    -0.092    30.302     9.024
    53   6 C        2.933    -0.039    28.974     8.828
    54   6 C        2.968     0.002    27.967     8.674
    55   6 C        3.902     0.026    20.088     6.371
    56   6 C        3.761    -0.109    22.629     6.781
    57   6 C        3.761    -0.107    22.590     6.775
    58   6 C        3.761    -0.106    22.572     6.773
    59   6 C        2.926    -0.036    28.885     8.814
    60   6 C        2.913    -0.057    29.404     8.892
    61   6 C        2.876     0.132    25.115     8.215
    62   8 O        1.711    -0.236    17.917     5.715
    63   6 C        2.925     0.051    26.860     8.499
    64   6 C        2.923    -0.063    29.578     8.919
    65   6 C        2.918    -0.044    29.081     8.843
    66   6 C        2.918    -0.044    29.085     8.844
    67   6 C        2.924    -0.063    29.559     8.916
    68   6 C        2.926     0.051    26.863     8.500
    69   6 C        2.916    -0.081    30.033     8.987
    70   6 C        2.873     0.139    24.958     8.189
    71   6 C        2.887    -0.126    31.214     9.160
    72   8 O        1.711    -0.237    17.922     5.716
    73   1 H        0.925     0.041     2.437     2.441
    74   1 H        0.925     0.033     2.550     2.497
    75   1 H        0.925     0.039     2.465     2.455
    76   1 H        0.925     0.033     2.539     2.492
    77   1 H        0.925     0.041     2.441     2.443
    78   1 H        0.925     0.041     2.440     2.443
    79   1 H        0.925     0.036     2.498     2.471
    80   1 H        0.925     0.036     2.504     2.475
    81   1 H        0.925     0.039     2.461     2.453
    82   1 H        0.926     0.048     2.349     2.397
    83   1 H        0.926     0.040     2.448     2.447
    84   1 H        0.926     0.048     2.341     2.393
    85   1 H        0.926     0.053     2.279     2.361
    86   1 H        0.925     0.038     2.474     2.460
    87   1 H        0.925     0.040     2.452     2.449
    88   1 H        0.925     0.037     2.484     2.465
    89   1 H        0.925     0.034     2.536     2.490
    90   1 H        0.925     0.041     2.442     2.444
    91   1 H        0.925     0.037     2.495     2.470
    92   1 H        0.925     0.034     2.529     2.487
    93   1 H        0.925     0.037     2.493     2.469
    94   1 H        0.925     0.041     2.442     2.444
    95   1 H        0.926     0.041     2.434     2.440
    96   1 H        0.926     0.040     2.442     2.444
    97   1 H        0.926     0.052     2.296     2.369
    98   1 H        0.926     0.028     2.611     2.527
    99   1 H        0.926     0.030     2.592     2.518
   100   1 H        0.926     0.030     2.593     2.518
   101   1 H        0.926     0.027     2.624     2.533
   102   1 H        0.926     0.052     2.294     2.369
   103   1 H        0.926     0.051     2.313     2.378
   104   1 H        0.926     0.040     2.443     2.444
   105   1 H        0.926     0.048     2.345     2.395
   106   1 H        0.925     0.033     2.547     2.496
   107   1 H        0.925     0.041     2.434     2.440
   108   1 H        0.925     0.039     2.465     2.455
   109   1 H        0.925     0.033     2.537     2.491
   110   1 H        0.925     0.041     2.439     2.442
   111   1 H        0.925     0.038     2.479     2.462
   112   1 H        0.925     0.036     2.500     2.473
   113   1 H        0.925     0.039     2.459     2.452
   114   1 H        0.925     0.037     2.495     2.470
   115   1 H        0.926     0.046     2.370     2.408
   116   1 H        0.926     0.046     2.370     2.407
   117   1 H        0.925     0.039     2.459     2.452
   118   1 H        0.925     0.036     2.500     2.473
   119   1 H        0.925     0.037     2.495     2.470
   120   1 H        0.925     0.039     2.464     2.455
   121   1 H        0.925     0.033     2.547     2.496
   122   1 H        0.925     0.041     2.435     2.440
   123   1 H        0.925     0.034     2.537     2.491
   124   1 H        0.925     0.041     2.439     2.442
   125   1 H        0.925     0.038     2.480     2.462
   126   1 H        0.926     0.048     2.345     2.395
   127   1 H        0.926     0.041     2.441     2.443
   128   1 H        0.926     0.028     2.610     2.527
   129   1 H        0.926     0.030     2.592     2.518
   130   1 H        0.926     0.030     2.593     2.518
   131   1 H        0.926     0.027     2.624     2.533
   132   1 H        0.926     0.050     2.314     2.379

molecular dipole:
                 x           y           z       tot (Debye)
 q only:       -0.031      -0.205      -0.024
   full:       -0.024      -0.176      -0.029       0.457

 projected vibrational frequencies (cm⁻¹)
eigval :       -0.00    -0.00    -0.00     0.00     0.00     0.00
eigval :        3.36     9.07    10.20    16.08    19.85    22.62
eigval :       25.02    26.23    27.68    30.20    34.47    38.07
eigval :       40.00    46.33    56.50    59.84    63.34    78.45
eigval :       79.75    83.39    94.70    95.07   106.40   110.28
eigval :      111.85   117.02   122.84   130.52   132.23   135.55
eigval :      158.95   165.11   168.43   170.60   171.39   173.25
eigval :      203.55   205.57   212.82   215.02   217.76   218.96
eigval :      221.07   222.49   224.36   229.62   236.32   242.15
eigval :      245.67   246.65   257.23   264.10   268.15   270.34
eigval :      271.48   280.95   287.97   291.11   296.89   311.78
eigval :      314.41   315.60   319.23   320.40   322.47   323.26
eigval :      327.70   350.22   355.32   358.65   360.65   361.05
eigval :      361.49   364.14   374.93   386.66   388.53   389.68
eigval :      392.55   393.29   402.82   416.17   416.92   419.27
eigval :      428.04   432.79   435.84   436.12   436.78   437.12
eigval :      445.48   447.44   450.37   454.61   477.13   478.39
eigval :      479.65   492.98   503.11   505.32   508.67   516.49
eigval :      516.76   517.24   518.55   520.04   525.72   568.64
eigval :      569.35   574.54   581.25   582.64   584.44   595.62
eigval :      596.42   611.69   617.13   623.83   632.81   644.31
eigval :      644.51   651.64   655.56   657.15   657.59   665.61
eigval :      668.79   688.11   689.80   690.16   692.57   701.26
eigval :      702.44   702.81   714.28   714.50   728.45   729.03
eigval :      770.04   771.11   782.13   814.10   823.46   824.27
eigval :      826.58   828.14   828.48   829.85   832.78   834.85
eigval :      847.69   852.68   854.41   854.97   863.37   865.00
eigval :      873.07   873.44   875.17   882.00   882.46   884.54
eigval :      887.28   887.59   889.83   892.42   893.25   909.01
eigval :      909.61   913.86   914.70   916.57   922.47   938.47
eigval :      939.33   943.03   958.25   959.31   959.70   959.90
eigval :      960.29   960.52   960.55   961.34   961.98   962.91
eigval :      963.49   964.10   964.63   966.73  1010.02  1033.36
eigval :     1033.37  1034.07  1034.53  1034.76  1035.35  1035.56
eigval :     1036.45  1037.63  1073.00  1073.35  1081.80  1082.40
eigval :     1105.69  1109.45  1111.36  1122.00  1131.57  1132.27
eigval :     1138.08  1139.19  1140.00  1140.77  1144.48  1173.03
eigval :     1177.33  1178.10  1178.81  1180.26  1181.32  1182.15
eigval :     1211.94  1213.78  1214.66  1216.17  1225.40  1225.77
eigval :     1225.94  1226.24  1226.45  1228.12  1228.77  1231.43
eigval :     1234.20  1236.19  1239.51  1239.76  1248.66  1251.20
eigval :     1251.98  1256.66  1264.58  1270.35  1271.00  1278.37
eigval :     1278.78  1291.09  1291.20  1294.84  1295.80  1311.24
eigval :     1322.16  1322.37  1324.30  1330.62  1336.59  1338.05
eigval :     1339.13  1350.32  1358.88  1366.67  1395.49  1395.81
eigval :     1396.74  1397.42  1397.88  1398.21  1401.74  1401.79
eigval :     1402.10  1402.71  1406.11  1406.98  1408.37  1408.70
eigval :     1424.02  1425.71  1425.80  1426.82  1427.31  1434.46
eigval :     1440.20  1444.31  1445.62  1445.93  1461.71  1462.84
eigval :     1487.50  1487.58  1487.60  1487.89  1490.21  1490.51
eigval :     1490.57  1490.83  1491.87  1495.21  1496.62  1497.23
eigval :     1498.02  1500.46  1500.74  1501.35  1502.03  1510.72
eigval :     1510.84  1511.31  1511.62  1512.50  1515.99  1516.55
eigval :     1516.72  1516.80  1533.35  1533.96  1543.87  1545.32
eigval :     1547.25  1547.60  1555.54  1565.71  1572.08  1577.31
eigval :     1587.95  1591.00  1592.13  1595.15  1596.34  1597.45
eigval :     3020.38  3020.63  3020.68  3020.70  3021.29  3021.75
eigval :     3021.83  3021.99  3024.67  3024.94  3025.00  3025.10
eigval :     3025.82  3026.18  3026.56  3026.75  3028.30  3028.91
eigval :     3029.13  3029.26  3031.53  3031.55  3031.61  3032.90
eigval :     3036.62  3036.68  3036.77  3037.13  3044.98  3046.64
eigval :     3047.24  3047.72  3048.32  3051.08  3052.41  3054.15
eigval :     3080.18  3080.26  3081.39  3083.97  3084.05  3084.37
eigval :     3089.51  3089.59  3093.62  3102.83  3102.95  3105.23
eigval :     3105.34  3106.90  3107.13  3107.78  3108.66  3112.41
eigval :     3115.10  3115.53  3116.16  3118.33  3119.15  3146.65

   temp. (K)  partition function   enthalpy   heat capacity  entropy
                                   cal/mol     cal/K/mol   cal/K/mol   J/K/mol
 298.15  VIB  0.678E+31            39243.389    242.189    243.653
         ROT  0.398E+09              888.752      2.981     42.334
         INT  0.270E+40            40132.141    245.169    285.987
         TR   0.280E+29             1481.254      4.968     46.385
         TOT                       41613.3951   250.1375   332.3718  1390.6435

       T/K    H(0)-H(T)+PV         H(T)/Eh          T*S/Eh         G(T)/Eh
   ------------------------------------------------------------------------
    298.15    0.663152E-01    0.112767E+01    0.157921E+00    0.969748E+00
   ------------------------------------------------------------------------

         :::::::::::::::::::::::::::::::::::::::::::::::::::::
         ::                  THERMODYNAMIC                  ::
         :::::::::::::::::::::::::::::::::::::::::::::::::::::
         :: total free energy        -191.524186828327 Eh   ::
         ::.................................................::
         :: total energy             -192.493935044515 Eh   ::
         :: zero point energy           1.061353608565 Eh   ::
         :: G(RRHO) w/o ZPVE           -0.091605392376 Eh   ::
         :: G(RRHO) contrib.            0.969748216189 Eh   ::
         :::::::::::::::::::::::::::::::::::::::::::::::::::::

           -------------------------------------------------
          | TOTAL ENERGY             -192.493935044515 Eh   |
          | TOTAL ENTHALPY           -191.366266269644 Eh   |
          | TOTAL FREE ENERGY        -191.524186828327 Eh   |
          | GRADIENT NORM               0.000040395518 Eh/α |
          | HOMO-LUMO GAP               1.399964102568 eV   |
           -------------------------------------------------

 * finished run on 2025/07/18 at 13:31:20.999
