   * xtb version 6.7.1 (edcfbbe) compiled by 'albert@albert-system' on 2024-07-22

   ID    Z sym.   atoms
    1    6 C      1-10, 12-21, 23-25, 27-32, 34-39, 41-50, 52-61, 63-71
    2    5 B      11, 51
    3    8 O      22, 40, 62, 72
    4    7 N      26, 33
    5    1 H      73-132

          program call               : xtb data2507/toluene/PzTDBA/PzTDBA_toluene_S0_crest.xyz --gfn 2 --gbsa toluene --ohess vtight --parallel 40 --molden --ceasefiles --namespace data2507/toluene/PzTDBA/PzTDBA_toluene_S0_finalOpt
      * Solvation model:               GBSA
        Solvent                        toluene
        Solvent mass                       9.2140E+01 g/mol
          :  Hamiltonian                  GFN2-xTB          :
 * total energy  :  -192.4945940 Eh     change       -0.8031066E-08 Eh
 * total energy  :  -192.4946761 Eh     change       -0.8208116E-04 Eh
 * total energy  :  -192.4947210 Eh     change       -0.4497068E-04 Eh
 * total energy  :  -192.4947405 Eh     change       -0.1947613E-04 Eh
 * total energy  :  -192.4947545 Eh     change       -0.1393690E-04 Eh
 * total energy  :  -192.4947708 Eh     change       -0.1629962E-04 Eh
 * total energy  :  -192.4947761 Eh     change       -0.5303175E-05 Eh
 * total energy  :  -192.4947863 Eh     change       -0.1027748E-04 Eh
 * total energy  :  -192.4947923 Eh     change       -0.5995466E-05 Eh
 * total energy  :  -192.4947986 Eh     change       -0.6296084E-05 Eh
 * total energy  :  -192.4949112 Eh     change       -0.1003672E-05 Eh
 * total energy  :  -192.4949121 Eh     change       -0.9029378E-06 Eh
 * total energy  :  -192.4949128 Eh     change       -0.6171521E-06 Eh
 * total energy  :  -192.4949133 Eh     change       -0.4940802E-06 Eh
 * total energy  :  -192.4949137 Eh     change       -0.4901548E-06 Eh
 * total energy  :  -192.4949143 Eh     change       -0.5075128E-06 Eh
 * total energy  :  -192.4949148 Eh     change       -0.5343759E-06 Eh
 * total energy  :  -192.4949153 Eh     change       -0.5472887E-06 Eh
 * total energy  :  -192.4949153 Eh     change       -0.6037993E-08 Eh
   *** GEOMETRY OPTIMIZATION CONVERGED AFTER 68 ITERATIONS ***

 final structure:
================
132
 xtb: 6.7.1 (edcfbbe)
C          -11.40376213394141       -4.38678586179409        0.24358547163944
C          -10.94019342835950       -3.31597632170439        1.24233964155022
C          -11.07458863724821       -3.84948141586199        2.67655532918004
C          -11.85882072339330       -2.09909402831877        1.09780500662588
C           -9.47915747100759       -2.98464626032309        0.97395979904222
C           -8.51839714718507       -3.99646788434327        1.07557080415757
C           -7.18466404411566       -3.73172309446312        0.87775329434255
C           -6.76377655343246       -2.44061339209360        0.55598581551227
C           -7.69461427096298       -1.40077120122109        0.39254673346660
C           -9.04004151021744       -1.71948801055908        0.63337650646363
B           -7.13602787193808       -0.01601471035551       -0.01903264251109
C           -7.80368646313616        1.31486274334169       -0.44494540494905
C           -9.16598952857540        1.51493413962889       -0.71648745091426
C           -9.70633163461487        2.73725841804410       -1.06779941931508
C          -11.18506816020272        2.93970191736804       -1.36607023438181
C          -11.99140594384485        1.64139376699087       -1.26606251459808
C          -11.33803832452598        3.48783661793915       -2.79281625161484
C          -11.76471578227636        3.94378050020667       -0.35863875853346
C           -8.83577814523524        3.82961570125907       -1.14685208192792
C           -7.48863976891600        3.68211187463794       -0.91953902605570
C           -6.96366560965419        2.43219592673365       -0.58814966179774
O           -5.60512907305024        2.41284360049200       -0.43549827209061
C           -4.93334981240628        1.26142044544941       -0.21363327945723
C           -3.54505275759842        1.33118788834668       -0.18896193329218
C           -2.80915189661036        0.17207776841565        0.02517575918725
N           -1.39510472265741        0.22812058111099        0.03493212050684
C           -0.70233038274391        0.46904342706141       -1.15200271695496
C           -1.37184956657024        0.66971077687514       -2.35011094417488
C           -0.67766579125619        0.94378175513825       -3.52168407823934
C            0.69732137928271        1.02465888472947       -3.50023987292426
C            1.38296387381974        0.79429911261816       -2.31451567088307
C            0.70450685428245        0.48831747013174       -1.14398693109038
N            1.39445522778413        0.22203130674178        0.03881673928839
C            2.80866821155692        0.16226284282845        0.02362309494903
C            3.54827564710829        1.15378605231787        0.65654562890110
C            4.93675687723897        1.08686321498799        0.63339214307205
C            5.60914930226689        0.03698978453826       -0.01081529117542
C            4.83019863610031       -0.94771000182110       -0.63763841339035
C            3.44152772383977       -0.89042170438240       -0.62626468915429
O            5.39949557872404       -1.99164352927134       -1.27951589702705
C            6.74925782686063       -2.20608837035006       -1.24259313099550
C            7.16216752003842       -3.38713908523525       -1.86076284011686
C            8.48940892293833       -3.74280161981444       -1.85845246223541
C            9.45048391945442       -2.94522844434880       -1.22802040182161
C           10.90355006883258       -3.39775934848447       -1.21954079657639
C           11.82004547905140       -2.43022622558341       -0.46487296733523
C           10.99690308900224       -4.77190689801186       -0.53953906994786
C           11.40167591758769       -3.49917287779648       -2.66892619524620
C            9.01991959377831       -1.77067814820194       -0.64106468586146
C            7.68249011001669       -1.34508888111834       -0.64077296591954
B            7.13461287420113       -0.03146162108933       -0.03006137306369
C            7.81235430041561        1.22808374273809        0.56361599276754
C            9.18188879269507        1.53260825272862        0.52758423353504
C            9.73059843223227        2.66517732702170        1.09814394069883
C           11.21737701629337        2.98672174679726        1.04848863699965
C           11.41379460670859        4.34037996615770        0.34961325915132
C           11.76068251072942        3.05829699246851        2.48334854402955
C           12.02513996925785        1.93395524606239        0.28364197428710
C            8.86099681555060        3.54650492680653        1.74952570317436
C            7.50783613021949        3.31034485017369        1.78819961155113
C            6.97523192577574        2.16956715737793        1.18601524598153
O            5.61302720926355        2.07598847226231        1.25834599295027
C            0.70208159335983       -0.02024036338183        1.22522879573224
C            1.37308624091812       -0.30726681564604        2.40475375896884
C            0.68013618509283       -0.51518425813872        3.59049163015935
C           -0.69467240822625       -0.42946299741281        3.60411004467635
C           -1.38156737487958       -0.17195488716201        2.42458923150067
C           -0.70479727201800        0.00476555446944        1.22675987963527
C           -3.44673998138137       -1.04593223880970        0.22818838234672
C           -4.83563777907332       -1.09729181902614        0.22434992379527
C           -5.61049305441884        0.05053286638867       -0.00261954330348
O           -5.40913030694776       -2.30296568680602        0.43300200927266
H          -12.45118203762485       -4.62742266569922        0.41346881270350
H          -11.29410838862082       -4.02351128629730       -0.77639659826996
H          -10.82500914641064       -5.30092893050107        0.34329161280079
H          -10.71792224506194       -3.10810490532999        3.38921707831518
H          -10.50004038599740       -4.76085121462655        2.81729352626377
H          -12.11726574768680       -4.06777252187405        2.89818192163983
H          -11.58503792133423       -1.31678240753732        1.80198733309857
H          -11.82456682354398       -1.70223442012325        0.08617990870328
H          -12.88513343023983       -2.39450074856805        1.30679053306115
H           -8.81123088250747       -5.00430859273336        1.32667591686314
H           -6.43924662713997       -4.50645921930381        0.97914627512577
H           -9.74973880618533       -0.91528252125556        0.56119414277111
H           -9.80384104428455        0.65148726897924       -0.66017809444244
H          -11.62673225589137        0.90002198059048       -1.97342472643812
H          -13.03436006046143        1.84492613884179       -1.50073887826213
H          -11.94932375194617        1.23158471157487       -0.25999282092027
H          -10.89704549516978        2.79855183822790       -3.51048753402098
H          -12.39168414413906        3.61089556197106       -3.03498027270540
H          -10.85069690602789        4.45253904009260       -2.90330379601864
H          -12.82540385623947        4.09419875238778       -0.54886016564339
H          -11.64532010602781        3.57049386997970        0.65661828104561
H          -11.26707910687895        4.90723845111673       -0.42769199032463
H           -9.21032051460486        4.80880697762918       -1.40276647289963
H           -6.81172586815812        4.51924423160719       -1.00407861267116
H           -3.05018922213207        2.27685182314291       -0.34452274981958
H           -2.44847042649258        0.61071402563126       -2.37366430525190
H           -1.22557031236563        1.09776527786819       -4.43878300658032
H            1.25101129411822        1.25751378800260       -4.39696383147957
H            2.46009423320347        0.85164519903547       -2.30350793782284
H            3.05595534867417        1.97232037679854        1.15758259659848
H            2.86654944178948       -1.66005881316939       -1.11655164253400
H            6.41549732607745       -4.01337618056723       -2.32598337834878
H            8.77652027723416       -4.66269118304265       -2.34414075899221
H           11.82177876019075       -1.44862768719914       -0.93213522320552
H           12.83952308983114       -2.81049194860971       -0.48243695127321
H           11.51530630704749       -2.33474813884430        0.57483207322598
H           10.42246398423434       -5.52209603064867       -1.07585089590145
H           12.03342421919813       -5.10084539335139       -0.50251266974020
H           10.61633351417853       -4.71459188607990        0.47855863382548
H           11.31944666022942       -2.53335831901257       -3.16377247970881
H           12.44483986034982       -3.80796380229679       -2.68521794947068
H           10.82393066421960       -4.22296243014779       -3.23725665528521
H            9.72966794019560       -1.14128504475241       -0.13528606757933
H            9.81912646553790        0.84126991116688        0.00645895470528
H           12.47377240010862        4.57775734197192        0.28590673829160
H           10.91867634109620        5.14291589367710        0.88931023166893
H           11.00646827449983        4.30598097400718       -0.65911914483050
H           11.60619628728702        2.10884534419644        2.99232810536358
H           11.26538172074598        3.83675062975992        3.05716074749249
H           12.82723145339812        3.27293937099901        2.46890107851279
H           11.94959834385826        0.96051252694984        0.76178210840688
H           11.68896258719396        1.85667398379712       -0.74785256569200
H           13.07473776483676        2.22117334152262        0.27376297536114
H            9.24136576462874        4.43850092680892        2.22307014154469
H            6.83267963114299        4.00186373275749        2.26999720490099
H            2.44976464668383       -0.37130489964545        2.40102021476779
H            1.22854071846510       -0.73542172631332        4.49366643424312
H           -1.24752151454277       -0.56683798018631        4.52086295092989
H           -2.45844564590887       -0.11125425651155        2.43978692583240
H           -2.87480216324842       -1.94476163845481        0.39672718055811

          :  Hamiltonian                  GFN2-xTB          :
         :: gradient norm              0.000057088953 Eh/a0 ::
         :: HOMO-LUMO gap              1.411362592265 eV    ::
         :: SCC energy              -195.638385826678 Eh    ::
         :: -> dispersion             -0.175808792428 Eh    ::
         :: -> Gsolv                  -0.072933065603 Eh    ::
         :: repulsion energy           3.143470485846 Eh    ::

    * Orbital Energies and Occupations

         #    Occupation            Energy/Eh            Energy/eV
      -------------------------------------------------------------
         1        2.0000           -0.7330327             -19.9468
       ...           ...                  ...                  ...
       166        2.0000           -0.4029003             -10.9635
       167        2.0000           -0.4013793             -10.9221
       168        2.0000           -0.4011770             -10.9166
       169        2.0000           -0.3940952             -10.7239
       170        2.0000           -0.3934926             -10.7075
       171        2.0000           -0.3890475             -10.5865
       172        2.0000           -0.3889313             -10.5834
       173        2.0000           -0.3846491             -10.4668
       174        2.0000           -0.3845849             -10.4651
       175        2.0000           -0.3758901             -10.2285
       176        2.0000           -0.3696405             -10.0584
       177        2.0000           -0.3694227             -10.0525
       178        2.0000           -0.3254325              -8.8555 (HOMO)
       179                         -0.2735660              -7.4441 (LUMO)
       180                         -0.2731015              -7.4315
       181                         -0.2361229              -6.4252
       182                         -0.2360643              -6.4236
       183                         -0.2336966              -6.3592
       184                         -0.2336082              -6.3568
       185                         -0.2297808              -6.2527
       186                         -0.2214987              -6.0273
       187                         -0.2210771              -6.0158
       188                         -0.2209975              -6.0136
       189                         -0.2135369              -5.8106
       ...                                ...                  ...
       348                          0.6970039              18.9664
      -------------------------------------------------------------
                  HL-Gap            0.0518666 Eh            1.4114 eV

     #   Z          covCN         q      C6AA      α(0)
     1   6 C        3.761    -0.107    22.587     6.775
     2   6 C        3.902     0.026    20.089     6.371
     3   6 C        3.761    -0.107    22.582     6.774
     4   6 C        3.761    -0.110    22.649     6.784
     5   6 C        2.968     0.003    27.965     8.674
     6   6 C        2.928    -0.031    28.779     8.798
     7   6 C        2.913    -0.056    29.397     8.891
     8   6 C        2.876     0.132    25.113     8.215
     9   6 C        2.882    -0.092    30.306     9.025
    10   6 C        2.930    -0.044    29.104     8.847
    11   5 B        2.723     0.212    18.215     7.151
    12   6 C        2.882    -0.092    30.306     9.025
    13   6 C        2.930    -0.044    29.105     8.847
    14   6 C        2.968     0.003    27.964     8.674
    15   6 C        3.902     0.026    20.089     6.371
    16   6 C        3.761    -0.110    22.650     6.785
    17   6 C        3.761    -0.107    22.583     6.774
    18   6 C        3.761    -0.107    22.585     6.775
    19   6 C        2.927    -0.031    28.779     8.798
    20   6 C        2.913    -0.056    29.396     8.891
    21   6 C        2.876     0.132    25.113     8.215
    22   8 O        1.711    -0.236    17.915     5.715
    23   6 C        2.873     0.139    24.965     8.191
    24   6 C        2.916    -0.081    30.036     8.987
    25   6 C        2.925     0.071    26.405     8.427
    26   7 N        2.753    -0.079    22.782     7.089
    27   6 C        2.925     0.051    26.859     8.499
    28   6 C        2.923    -0.063    29.579     8.919
    29   6 C        2.918    -0.044    29.085     8.844
    30   6 C        2.918    -0.044    29.086     8.844
    31   6 C        2.924    -0.063    29.565     8.917
    32   6 C        2.926     0.051    26.861     8.499
    33   7 N        2.753    -0.079    22.784     7.089
    34   6 C        2.925     0.071    26.403     8.427
    35   6 C        2.916    -0.081    30.032     8.986
    36   6 C        2.873     0.139    24.963     8.190
    37   6 C        2.887    -0.126    31.210     9.159
    38   6 C        2.873     0.139    24.962     8.190
    39   6 C        2.916    -0.081    30.029     8.986
    40   8 O        1.711    -0.236    17.916     5.715
    41   6 C        2.877     0.132    25.114     8.215
    42   6 C        2.913    -0.056    29.396     8.891
    43   6 C        2.928    -0.031    28.779     8.798
    44   6 C        2.968     0.003    27.964     8.674
    45   6 C        3.902     0.026    20.089     6.371
    46   6 C        3.761    -0.110    22.650     6.784
    47   6 C        3.761    -0.107    22.584     6.774
    48   6 C        3.761    -0.107    22.585     6.775
    49   6 C        2.930    -0.044    29.104     8.847
    50   6 C        2.882    -0.092    30.306     9.025
    51   5 B        2.723     0.212    18.215     7.151
    52   6 C        2.882    -0.092    30.305     9.025
    53   6 C        2.930    -0.044    29.104     8.847
    54   6 C        2.968     0.003    27.963     8.674
    55   6 C        3.902     0.026    20.089     6.371
    56   6 C        3.761    -0.107    22.583     6.774
    57   6 C        3.761    -0.107    22.586     6.775
    58   6 C        3.761    -0.110    22.650     6.784
    59   6 C        2.928    -0.031    28.779     8.798
    60   6 C        2.913    -0.056    29.396     8.891
    61   6 C        2.876     0.132    25.114     8.215
    62   8 O        1.711    -0.236    17.914     5.715
    63   6 C        2.925     0.051    26.858     8.499
    64   6 C        2.923    -0.063    29.579     8.919
    65   6 C        2.918    -0.044    29.083     8.844
    66   6 C        2.918    -0.044    29.088     8.844
    67   6 C        2.924    -0.063    29.565     8.917
    68   6 C        2.925     0.051    26.862     8.500
    69   6 C        2.916    -0.081    30.033     8.987
    70   6 C        2.873     0.139    24.963     8.190
    71   6 C        2.887    -0.126    31.212     9.159
    72   8 O        1.711    -0.236    17.917     5.715
    73   1 H        0.925     0.040     2.442     2.444
    74   1 H        0.925     0.034     2.524     2.485
    75   1 H        0.925     0.036     2.497     2.471
    76   1 H        0.925     0.033     2.541     2.493
    77   1 H        0.925     0.036     2.497     2.471
    78   1 H        0.925     0.040     2.445     2.445
    79   1 H        0.925     0.038     2.481     2.463
    80   1 H        0.925     0.040     2.448     2.447
    81   1 H        0.925     0.040     2.455     2.450
    82   1 H        0.926     0.041     2.438     2.442
    83   1 H        0.926     0.040     2.448     2.447
    84   1 H        0.926     0.055     2.253     2.347
    85   1 H        0.926     0.055     2.252     2.347
    86   1 H        0.925     0.038     2.481     2.463
    87   1 H        0.925     0.040     2.455     2.450
    88   1 H        0.925     0.040     2.448     2.447
    89   1 H        0.925     0.033     2.541     2.493
    90   1 H        0.925     0.040     2.446     2.446
    91   1 H        0.925     0.036     2.496     2.471
    92   1 H        0.925     0.041     2.441     2.443
    93   1 H        0.925     0.034     2.524     2.485
    94   1 H        0.925     0.036     2.498     2.472
    95   1 H        0.926     0.041     2.438     2.442
    96   1 H        0.926     0.040     2.447     2.446
    97   1 H        0.926     0.052     2.299     2.371
    98   1 H        0.926     0.028     2.616     2.529
    99   1 H        0.926     0.029     2.595     2.519
   100   1 H        0.926     0.029     2.595     2.519
   101   1 H        0.926     0.027     2.628     2.535
   102   1 H        0.926     0.052     2.299     2.371
   103   1 H        0.926     0.051     2.313     2.378
   104   1 H        0.926     0.040     2.448     2.447
   105   1 H        0.926     0.041     2.438     2.442
   106   1 H        0.925     0.040     2.447     2.446
   107   1 H        0.925     0.040     2.454     2.450
   108   1 H        0.925     0.038     2.481     2.463
   109   1 H        0.925     0.036     2.497     2.471
   110   1 H        0.925     0.040     2.446     2.446
   111   1 H        0.925     0.033     2.541     2.493
   112   1 H        0.925     0.034     2.524     2.485
   113   1 H        0.925     0.041     2.441     2.443
   114   1 H        0.925     0.036     2.497     2.471
   115   1 H        0.926     0.055     2.253     2.347
   116   1 H        0.926     0.055     2.253     2.347
   117   1 H        0.925     0.040     2.446     2.446
   118   1 H        0.925     0.036     2.497     2.471
   119   1 H        0.925     0.033     2.540     2.493
   120   1 H        0.925     0.034     2.524     2.485
   121   1 H        0.925     0.036     2.497     2.471
   122   1 H        0.925     0.041     2.442     2.444
   123   1 H        0.925     0.040     2.448     2.447
   124   1 H        0.925     0.038     2.482     2.464
   125   1 H        0.925     0.040     2.454     2.450
   126   1 H        0.926     0.041     2.438     2.442
   127   1 H        0.926     0.040     2.447     2.446
   128   1 H        0.926     0.028     2.618     2.530
   129   1 H        0.926     0.029     2.595     2.519
   130   1 H        0.926     0.029     2.595     2.519
   131   1 H        0.926     0.027     2.626     2.534
   132   1 H        0.926     0.050     2.314     2.379

molecular dipole:
                 x           y           z       tot (Debye)
 q only:        0.009      -0.162      -0.044
   full:        0.009      -0.150      -0.039       0.396

 projected vibrational frequencies (cm⁻¹)
eigval :       -0.00    -0.00    -0.00     0.00     0.00     0.00
eigval :        2.86     5.44     9.91    16.70    19.14    21.19
eigval :       23.51    26.07    29.01    33.37    35.28    40.99
eigval :       46.43    48.47    58.28    60.02    63.37    77.16
eigval :       82.60    84.63    92.24    96.83   108.04   109.97
eigval :      114.86   117.64   124.79   136.12   136.36   138.40
eigval :      158.02   167.31   168.89   172.98   179.56   180.85
eigval :      208.32   213.84   214.44   216.50   217.71   218.35
eigval :      219.33   222.37   225.28   229.08   230.16   232.06
eigval :      245.23   253.40   260.23   263.83   268.52   269.48
eigval :      270.49   281.24   282.05   283.70   292.76   314.80
eigval :      318.12   319.32   320.58   327.39   327.53   328.65
eigval :      329.50   348.66   349.05   351.82   364.32   364.95
eigval :      365.25   365.51   375.07   383.95   386.71   389.22
eigval :      392.11   393.52   402.58   415.98   416.22   419.74
eigval :      427.74   432.42   435.25   435.81   435.97   436.64
eigval :      442.23   446.51   446.85   455.20   478.62   479.76
eigval :      481.39   494.20   503.42   505.50   509.52   516.30
eigval :      517.30   517.38   518.66   520.91   525.29   569.70
eigval :      569.85   574.84   580.49   581.98   583.37   596.39
eigval :      597.31   612.97   618.61   623.47   633.41   644.47
eigval :      644.80   651.99   656.72   657.16   658.42   666.21
eigval :      669.24   688.94   690.20   690.85   692.67   701.57
eigval :      702.20   703.08   715.58   715.90   728.40   729.04
eigval :      769.25   770.35   782.06   813.91   825.96   827.98
eigval :      828.28   828.35   830.88   830.96   833.79   835.81
eigval :      847.58   851.91   854.34   854.76   863.61   865.40
eigval :      872.18   872.35   873.08   873.96   875.10   875.21
eigval :      887.06   887.20   889.76   891.43   891.55   908.46
eigval :      909.50   918.70   923.48   923.66   923.97   939.59
eigval :      939.76   943.16   958.76   958.88   959.23   959.82
eigval :      959.88   960.31   961.29   962.14   963.00   963.02
eigval :      963.63   964.64   968.00   968.22  1010.21  1033.33
eigval :     1034.00  1034.23  1034.65  1035.05  1035.31  1035.68
eigval :     1036.10  1037.51  1072.82  1073.53  1081.45  1081.91
eigval :     1106.58  1108.97  1110.70  1121.92  1129.66  1130.55
eigval :     1135.58  1137.21  1138.32  1138.89  1145.28  1172.62
eigval :     1176.16  1176.77  1177.12  1178.65  1181.34  1181.94
eigval :     1210.59  1212.20  1212.52  1214.06  1225.63  1225.69
eigval :     1226.16  1226.20  1226.48  1228.32  1228.43  1230.58
eigval :     1232.01  1236.21  1240.55  1240.75  1245.31  1245.48
eigval :     1250.50  1256.72  1265.63  1270.24  1271.23  1277.25
eigval :     1277.49  1290.94  1291.27  1293.47  1293.76  1311.25
eigval :     1328.16  1329.69  1329.87  1332.95  1338.25  1338.33
eigval :     1339.33  1350.75  1359.59  1367.05  1395.75  1396.62
eigval :     1397.44  1397.96  1398.06  1398.37  1402.79  1402.90
eigval :     1402.91  1403.44  1406.64  1406.71  1408.75  1408.90
eigval :     1423.99  1426.59  1426.82  1427.01  1427.40  1434.79
eigval :     1441.53  1445.03  1445.29  1445.58  1460.21  1461.16
eigval :     1488.08  1488.39  1488.81  1489.08  1490.35  1490.71
eigval :     1491.58  1491.66  1492.37  1496.08  1497.07  1498.74
eigval :     1500.03  1501.11  1501.45  1502.36  1502.90  1510.02
eigval :     1510.19  1510.79  1510.90  1512.77  1514.60  1515.19
eigval :     1517.98  1518.60  1532.94  1533.14  1543.27  1544.47
eigval :     1546.77  1546.92  1555.09  1566.25  1572.78  1577.52
eigval :     1588.00  1594.39  1594.54  1596.52  1597.90  1598.06
eigval :     3020.72  3020.99  3021.25  3021.36  3021.60  3021.69
eigval :     3021.86  3022.04  3024.96  3025.06  3025.31  3025.56
eigval :     3026.24  3026.31  3026.62  3026.70  3028.46  3028.79
eigval :     3028.90  3029.03  3033.13  3033.20  3033.74  3033.91
eigval :     3038.17  3038.28  3040.04  3040.13  3044.42  3044.46
eigval :     3044.50  3045.01  3047.84  3047.92  3047.98  3048.42
eigval :     3080.37  3080.41  3080.49  3080.92  3081.22  3081.46
eigval :     3089.39  3089.42  3092.59  3093.47  3093.56  3093.96
eigval :     3101.55  3101.89  3105.11  3105.37  3105.86  3106.15
eigval :     3107.22  3108.10  3143.84  3144.14  3148.84  3148.87

   temp. (K)  partition function   enthalpy   heat capacity  entropy
                                   cal/mol     cal/K/mol   cal/K/mol   J/K/mol
 298.15  VIB  0.795E+31            39171.629    242.445    243.719
         ROT  0.402E+09              888.752      2.981     42.352
         INT  0.320E+40            40060.381    245.426    286.071
         TR   0.280E+29             1481.254      4.968     46.385
         TOT                       41541.6349   250.3941   332.4554  1390.9934

       T/K    H(0)-H(T)+PV         H(T)/Eh          T*S/Eh         G(T)/Eh
   ------------------------------------------------------------------------
    298.15    0.662008E-01    0.112778E+01    0.157960E+00    0.969823E+00
   ------------------------------------------------------------------------

         :::::::::::::::::::::::::::::::::::::::::::::::::::::
         ::                  THERMODYNAMIC                  ::
         :::::::::::::::::::::::::::::::::::::::::::::::::::::
         :: total free energy        -191.525092545605 Eh   ::
         ::.................................................::
         :: total energy             -192.494915342715 Eh   ::
         :: zero point energy           1.061582275164 Eh   ::
         :: G(RRHO) w/o ZPVE           -0.091759478055 Eh   ::
         :: G(RRHO) contrib.            0.969822797110 Eh   ::
         :::::::::::::::::::::::::::::::::::::::::::::::::::::

           -------------------------------------------------
          | TOTAL ENERGY             -192.494915342715 Eh   |
          | TOTAL ENTHALPY           -191.367132258439 Eh   |
          | TOTAL FREE ENERGY        -191.525092545605 Eh   |
          | GRADIENT NORM               0.000057080706 Eh/α |
          | HOMO-LUMO GAP               1.411361553294 eV   |
           -------------------------------------------------

 * finished run on 2025/07/18 at 13:57:09.212
