   * xtb version 6.7.1 (edcfbbe) compiled by 'albert@albert-system' on 2024-07-22

   ID    Z sym.   atoms
    1    6 C      1-6, 8-22, 24-27, 29-35, 37-42, 44-57
    2    7 N      7, 23, 43
    3   16 S      28
    4    8 O      36
    5    1 H      58-92

          program call               : xtb data2507/gas/2Cz-DMAC-TXO/2Cz-DMAC-TXO_gas_S0_crest.xyz --gfn 2 --ohess vtight --parallel 40 --molden --ceasefiles --namespace data2507/gas/2Cz-DMAC-TXO/2Cz-DMAC-TXO_gas_S0_finalOpt
          :  Hamiltonian                  GFN2-xTB          :
 * total energy  :  -145.4053649 Eh     change       -0.1347445E-08 Eh
 * total energy  :  -145.4053665 Eh     change       -0.1595534E-05 Eh
 * total energy  :  -145.4053683 Eh     change       -0.1802037E-05 Eh
 * total energy  :  -145.4053717 Eh     change       -0.3338493E-05 Eh
 * total energy  :  -145.4053738 Eh     change       -0.2097143E-05 Eh
 * total energy  :  -145.4053762 Eh     change       -0.2387593E-05 Eh
 * total energy  :  -145.4053798 Eh     change       -0.3671345E-05 Eh
 * total energy  :  -145.4053833 Eh     change       -0.3465733E-05 Eh
 * total energy  :  -145.4053853 Eh     change       -0.1966781E-05 Eh
 * total energy  :  -145.4053867 Eh     change       -0.1379947E-05 Eh
 * total energy  :  -145.4054173 Eh     change       -0.4769186E-06 Eh
 * total energy  :  -145.4054178 Eh     change       -0.4540297E-06 Eh
 * total energy  :  -145.4054181 Eh     change       -0.3511093E-06 Eh
 * total energy  :  -145.4054184 Eh     change       -0.2591065E-06 Eh
 * total energy  :  -145.4054187 Eh     change       -0.3237294E-06 Eh
 * total energy  :  -145.4054191 Eh     change       -0.3873992E-06 Eh
 * total energy  :  -145.4054196 Eh     change       -0.4846841E-06 Eh
 * total energy  :  -145.4054201 Eh     change       -0.5194807E-06 Eh
 * total energy  :  -145.4054201 Eh     change       -0.7754124E-08 Eh
   *** GEOMETRY OPTIMIZATION CONVERGED AFTER 44 ITERATIONS ***

 final structure:
================
92
 xtb: 6.7.1 (edcfbbe)
C            0.49579825900840       -3.41413860068171        1.00475914589494
C            0.35716176349697       -2.32111243316014       -0.07063318921403
C            0.40617478435225       -2.94690473366008       -1.47631078068634
C            1.51289744981009       -1.34873819971314        0.06185875345747
C            2.80812398845140       -1.81795716530815       -0.08644511835222
C            3.91002532967875       -0.97533347844865       -0.01879714615904
N            5.20273790785031       -1.49257258881923       -0.19001224124466
C            5.61840631342385       -2.28958744530342       -1.23631150115956
C            4.91579197788921       -2.71885488145152       -2.35361301700964
C            5.58444980119025       -3.50198987216313       -3.27434206399055
C            6.92293239290083       -3.84802319939089       -3.09980948819792
C            7.63368823704692       -3.40458630798282       -2.00275596981300
C            6.98355125615474       -2.61584290623424       -1.06256231495663
C            7.40240026238387       -1.97890177974736        0.15404595601621
C            8.60446437938615       -1.93814693553932        0.84822495602265
C            8.66240518836474       -1.22707038630363        2.02993542136505
C            7.53790813596741       -0.57238429958618        2.52851781750599
C            6.33116451265075       -0.59798654003997        1.85674552031050
C            6.27210034291717       -1.29373306227511        0.65752316564999
C            3.70881342121163        0.38107614681790        0.20462912105116
C            2.42936424864363        0.86290132220149        0.37076920913350
C            1.31947297305815        0.01420167783885        0.31302650577347
N            0.04549114822167        0.53344114597818        0.48198558365918
C           -0.10091618252885        1.91726903124639        0.75674091131784
C            0.20813071651043        2.41391679297004        2.02642035396092
C            0.07271425310280        3.75649183077934        2.28842249162729
C           -0.37729818268527        4.63391288652584        1.29824351606643
S           -0.50286962707362        6.31330546216219        1.76173382304992
C           -1.04390180533179        7.10551937333481        0.29752982561150
C           -1.20103570223649        8.48972811972985        0.37695006990496
C           -1.62370883193986        9.20779728727887       -0.71936184968915
C           -1.89841156601704        8.55269136787726       -1.91587671859166
C           -1.74560613368204        7.18862077361434       -1.99452309970423
C           -1.31596701864267        6.43327008271842       -0.89519017379832
C           -1.18769807420211        4.97898061056336       -1.09372508838866
O           -1.47618225809695        4.46417679988864       -2.16231686296864
C           -0.69796072387561        4.15192315278647        0.02765398449867
C           -0.54660307335609        2.78360139657669       -0.22036189243968
C           -1.08623163918514       -0.26265219508379        0.38852602460283
C           -2.35034407458612        0.29715109988155        0.59640665986037
C           -3.49320794511790       -0.46778416749210        0.52242240575377
C           -3.39721731348930       -1.82245501014568        0.22887735871490
N           -4.54424391469556       -2.62587742187318        0.14914288517981
C           -5.66725840086652       -2.36177440216544       -0.60706837965222
C           -5.92369676840986       -1.30416918168764       -1.46809073961704
C           -7.13646220960288       -1.29131772193596       -2.12932511513978
C           -8.07441864408657       -2.30614071967862       -1.94984144451728
C           -7.81630462344518       -3.37148478383144       -1.11099986224256
C           -6.60381452176865       -3.40740969665895       -0.43475222252627
C           -6.00730794469755       -4.34244745464806        0.47692024037224
C           -6.43370604261156       -5.54118135535288        1.03349404481115
C           -5.59799241782665       -6.19579140834208        1.91585474374422
C           -4.35729658905253       -5.66171598758529        2.25790095215463
C           -3.91087204269756       -4.47111277867000        1.71810555770956
C           -4.73592866302224       -3.82053601310332        0.81118476590680
C           -2.14169892173456       -2.38112154568393        0.02865212393016
C           -0.98005027618763       -1.63088835375587        0.11579507325303
H            0.43741060027402       -2.96862840943138        1.99632407878175
H            1.44856529096489       -3.92834582572320        0.91625106380406
H           -0.29591695497931       -4.15225201638565        0.91110502453430
H            0.32907143771612       -2.16701603275840       -2.23164198946323
H            1.33787274227251       -3.48466049478595       -1.62886931691203
H           -0.41366993519407       -3.64482540056995       -1.62016294654904
H            2.98439671734150       -2.86890097565376       -0.25522067160270
H            3.88472992693244       -2.43780339038398       -2.50766233111690
H            5.05918990277506       -3.85046747962435       -4.15159316380787
H            7.40926912371670       -4.46411425558363       -3.84152347381404
H            8.67520915610785       -3.65923101248990       -1.87597700764540
H            9.47233789208353       -2.45655135793037        0.46909090404919
H            9.58828319194884       -1.18083148200916        2.58391330367559
H            7.61105266968815       -0.03534168144810        3.46297997148142
H            5.46027852864501       -0.10078580782510        2.25708207929563
H            4.55057651535042        1.05572318865876        0.23163519767374
H            2.28614673811223        1.92028322304367        0.52987683542927
H            0.55609746959985        1.73743920836795        2.79229361904935
H            0.30964588684795        4.15250598970895        3.26426049348859
H           -0.98437830567930        8.98433066063799        1.31196333270884
H           -1.74034543391247       10.27837996613816       -0.64632336158153
H           -2.22959963571411        9.11295360554476       -2.77651757723250
H           -1.95155279322488        6.65132846622096       -2.90833598757118
H           -0.79536310346624        2.42291687764135       -1.20785347855922
H           -2.43828209918097        1.34573057934528        0.83373303171347
H           -4.45797460120918       -0.02073184299290        0.70594229479850
H           -5.19620923429277       -0.52207604448145       -1.62496643838009
H           -7.36148914556049       -0.47780113391301       -2.80332497055205
H           -9.01213657877751       -2.25795799927251       -2.48340242090606
H           -8.53731798336796       -4.16486525424802       -0.98271859105175
H           -7.40192133463533       -5.94686629234010        0.78117641481709
H           -5.90948110572625       -7.13073113123485        2.35759811458605
H           -3.73219403999320       -6.18870754091864        2.96400635559835
H           -2.95705766668434       -4.05411894207079        2.00504888912351
H           -2.08749890532853       -3.43257726189913       -0.20693296488612

          :  Hamiltonian                  GFN2-xTB          :
         :: gradient norm              0.000048120395 Eh/a0 ::
         :: HOMO-LUMO gap              1.213954132832 eV    ::
         :: SCC energy              -148.008160641420 Eh    ::
         :: -> dispersion             -0.136380301479 Eh    ::
         :: repulsion energy           2.602740525567 Eh    ::

    * Orbital Energies and Occupations

         #    Occupation            Energy/Eh            Energy/eV
      -------------------------------------------------------------
         1        2.0000           -0.7496928             -20.4002
       ...           ...                  ...                  ...
       123        2.0000           -0.4124979             -11.2246
       124        2.0000           -0.4110832             -11.1861
       125        2.0000           -0.4096746             -11.1478
       126        2.0000           -0.4044831             -11.0065
       127        2.0000           -0.4007060             -10.9038
       128        2.0000           -0.4000149             -10.8850
       129        2.0000           -0.3995938             -10.8735
       130        2.0000           -0.3906384             -10.6298
       131        2.0000           -0.3740530             -10.1785
       132        2.0000           -0.3729593             -10.1487
       133        2.0000           -0.3696915             -10.0598
       134        2.0000           -0.3584094              -9.7528
       135        2.0000           -0.3465689              -9.4306 (HOMO)
       136                         -0.3019569              -8.2167 (LUMO)
       137                         -0.2662963              -7.2463
       138                         -0.2538855              -6.9086
       139                         -0.2479155              -6.7461
       140                         -0.2428528              -6.6084
       141                         -0.2399678              -6.5299
       142                         -0.2350441              -6.3959
       143                         -0.2313649              -6.2958
       144                         -0.2299863              -6.2582
       145                         -0.2185862              -5.9480
       146                         -0.2173638              -5.9148
       ...                                ...                  ...
       268                          0.7519368              20.4612
      -------------------------------------------------------------
                  HL-Gap            0.0446120 Eh            1.2140 eV

     #   Z          covCN         q      C6AA      α(0)
     1   6 C        3.761    -0.103    22.523     6.765
     2   6 C        3.910     0.023    20.126     6.377
     3   6 C        3.761    -0.104    22.528     6.766
     4   6 C        2.979    -0.011    28.286     8.724
     5   6 C        2.931    -0.049    29.229     8.866
     6   6 C        2.911     0.051    26.857     8.498
     7   7 N        2.803    -0.043    22.078     6.979
     8   6 C        3.078     0.046    26.885     8.501
     9   6 C        2.910    -0.052    29.288     8.874
    10   6 C        2.924    -0.034    28.852     8.809
    11   6 C        2.920    -0.042    29.036     8.836
    12   6 C        2.912    -0.033    28.826     8.804
    13   6 C        3.068    -0.018    28.387     8.736
    14   6 C        3.069    -0.018    28.385     8.736
    15   6 C        2.912    -0.033    28.826     8.804
    16   6 C        2.920    -0.042    29.039     8.837
    17   6 C        2.924    -0.034    28.851     8.808
    18   6 C        2.910    -0.051    29.278     8.873
    19   6 C        3.078     0.046    26.882     8.500
    20   6 C        2.921    -0.045    29.124     8.850
    21   6 C        2.924    -0.058    29.443     8.898
    22   6 C        2.928     0.055    26.770     8.485
    23   7 N        2.754    -0.064    22.483     7.042
    24   6 C        2.924     0.067    26.494     8.441
    25   6 C        2.921    -0.032    28.803     8.801
    26   6 C        2.993    -0.038    28.933     8.823
    27   6 C        2.967     0.045    26.980     8.520
    28  16 S        2.161    -0.064   143.696    20.176
    29   6 C        2.968     0.048    26.911     8.509
    30   6 C        2.994    -0.037    28.910     8.820
    31   6 C        2.920    -0.020    28.502     8.755
    32   6 C        2.916    -0.030    28.743     8.791
    33   6 C        2.930    -0.018    28.450     8.747
    34   6 C        2.995    -0.022    28.535     8.763
    35   6 C        2.832     0.221    23.343     7.917
    36   8 O        0.859    -0.393    21.536     6.222
    37   6 C        2.996    -0.022    28.534     8.762
    38   6 C        2.932    -0.030    28.752     8.794
    39   6 C        2.927     0.055    26.770     8.485
    40   6 C        2.924    -0.057    29.414     8.894
    41   6 C        2.921    -0.045    29.110     8.848
    42   6 C        2.911     0.051    26.847     8.496
    43   7 N        2.803    -0.043    22.077     6.978
    44   6 C        3.078     0.046    26.880     8.500
    45   6 C        2.910    -0.051    29.269     8.871
    46   6 C        2.924    -0.034    28.839     8.807
    47   6 C        2.920    -0.042    29.035     8.836
    48   6 C        2.912    -0.033    28.830     8.805
    49   6 C        3.069    -0.018    28.390     8.737
    50   6 C        3.068    -0.018    28.384     8.736
    51   6 C        2.912    -0.033    28.828     8.804
    52   6 C        2.920    -0.042    29.043     8.837
    53   6 C        2.924    -0.035    28.862     8.810
    54   6 C        2.910    -0.052    29.297     8.875
    55   6 C        3.078     0.046    26.890     8.502
    56   6 C        2.931    -0.049    29.228     8.866
    57   6 C        2.979    -0.011    28.287     8.724
    58   1 H        0.925     0.032     2.561     2.503
    59   1 H        0.925     0.042     2.425     2.435
    60   1 H        0.925     0.042     2.420     2.433
    61   1 H        0.925     0.034     2.529     2.487
    62   1 H        0.925     0.042     2.425     2.435
    63   1 H        0.925     0.042     2.421     2.433
    64   1 H        0.926     0.043     2.403     2.424
    65   1 H        0.926     0.027     2.636     2.539
    66   1 H        0.926     0.027     2.622     2.532
    67   1 H        0.926     0.026     2.637     2.540
    68   1 H        0.926     0.029     2.594     2.519
    69   1 H        0.926     0.030     2.593     2.518
    70   1 H        0.926     0.026     2.641     2.541
    71   1 H        0.926     0.027     2.635     2.538
    72   1 H        0.926     0.025     2.662     2.551
    73   1 H        0.926     0.040     2.446     2.446
    74   1 H        0.926     0.029     2.603     2.523
    75   1 H        0.926     0.054     2.265     2.354
    76   1 H        0.926     0.055     2.264     2.353
    77   1 H        0.926     0.049     2.330     2.387
    78   1 H        0.926     0.048     2.350     2.397
    79   1 H        0.926     0.047     2.357     2.401
    80   1 H        0.926     0.073     2.051     2.240
    81   1 H        0.926     0.080     1.981     2.201
    82   1 H        0.926     0.030     2.586     2.515
    83   1 H        0.926     0.041     2.437     2.441
    84   1 H        0.926     0.028     2.618     2.530
    85   1 H        0.926     0.028     2.612     2.528
    86   1 H        0.926     0.026     2.640     2.541
    87   1 H        0.926     0.029     2.598     2.521
    88   1 H        0.926     0.029     2.595     2.519
    89   1 H        0.926     0.026     2.644     2.543
    90   1 H        0.926     0.026     2.637     2.539
    91   1 H        0.926     0.025     2.654     2.548
    92   1 H        0.926     0.044     2.402     2.424

molecular dipole:
                 x           y           z       tot (Debye)
 q only:        0.081       1.385       0.905
   full:        0.070       1.549       0.916       4.579

 projected vibrational frequencies (cm⁻¹)
eigval :       -0.00    -0.00    -0.00    -0.00     0.00     0.00
eigval :        7.72     9.80    13.02    15.15    18.60    22.00
eigval :       27.37    33.81    37.48    43.54    50.95    91.00
eigval :       91.96   103.31   106.30   110.15   114.32   123.43
eigval :      124.02   127.82   129.15   143.82   145.96   154.78
eigval :      176.22   178.61   187.80   197.48   201.03   209.53
eigval :      213.06   240.86   271.61   271.79   277.53   278.66
eigval :      293.53   299.44   313.01   329.20   334.94   340.10
eigval :      352.88   356.02   359.45   372.46   377.19   394.43
eigval :      396.18   403.25   416.64   420.94   421.80   423.60
eigval :      426.26   432.83   435.91   451.07   453.52   454.58
eigval :      466.22   467.05   490.55   508.86   518.01   518.38
eigval :      527.04   528.77   533.21   541.34   541.39   544.80
eigval :      562.77   570.73   583.30   587.95   590.02   603.37
eigval :      606.91   614.63   627.95   636.40   646.64   648.61
eigval :      665.67   673.13   673.74   674.27   680.30   682.56
eigval :      691.19   700.71   708.59   709.62   724.52   726.59
eigval :      753.19   756.27   763.51   769.36   769.57   780.69
eigval :      780.83   787.18   802.00   822.58   823.91   829.00
eigval :      844.58   869.42   869.59   871.73   872.27   883.91
eigval :      891.13   893.20   895.22   895.88   899.56   900.21
eigval :      900.87   901.35   906.11   906.44   913.71   915.84
eigval :      916.36   921.99   922.95   923.17   924.28   925.19
eigval :      925.54   929.64   933.82   958.02   993.22   993.98
eigval :     1007.64  1012.38  1012.73  1014.97  1044.62  1069.58
eigval :     1069.68  1070.40  1073.04  1073.17  1085.39  1089.38
eigval :     1096.40  1121.77  1125.41  1137.87  1147.41  1151.74
eigval :     1151.88  1158.94  1160.75  1161.43  1174.74  1175.83
eigval :     1177.15  1177.67  1181.61  1181.66  1189.91  1190.17
eigval :     1202.97  1221.41  1229.10  1233.67  1236.88  1237.33
eigval :     1239.01  1245.72  1251.32  1258.90  1263.98  1273.85
eigval :     1298.98  1299.90  1305.15  1307.50  1308.63  1324.17
eigval :     1325.42  1332.05  1339.30  1342.02  1357.98  1358.12
eigval :     1363.24  1363.69  1373.41  1383.96  1391.13  1403.69
eigval :     1404.18  1417.05  1421.81  1425.07  1429.02  1429.95
eigval :     1436.64  1442.53  1445.71  1452.94  1477.19  1477.55
eigval :     1482.43  1489.06  1489.21  1489.52  1492.00  1501.09
eigval :     1502.52  1504.08  1539.63  1558.86  1559.67  1571.82
eigval :     1574.47  1577.51  1579.85  1585.21  1588.98  1589.29
eigval :     1597.42  1599.15  1599.25  1603.09  1615.52  1615.91
eigval :     1657.54  3025.75  3029.02  3040.75  3043.34  3050.52
eigval :     3054.44  3073.80  3074.06  3074.80  3075.31  3079.57
eigval :     3079.60  3080.84  3081.11  3086.22  3086.57  3086.64
eigval :     3088.33  3088.80  3090.38  3091.65  3093.17  3093.71
eigval :     3093.75  3094.29  3095.06  3095.57  3095.69  3097.30
eigval :     3098.72  3099.11  3101.33  3104.06  3105.20  3106.57

   temp. (K)  partition function   enthalpy   heat capacity  entropy
                                   cal/mol     cal/K/mol   cal/K/mol   J/K/mol
 298.15  VIB  0.141E+22            26729.971    169.437    165.153
         ROT  0.187E+09              888.752      2.981     40.828
         INT  0.263E+30            27618.724    172.418    205.982
         TR   0.199E+29             1481.254      4.968     45.703
         TOT                       29099.9776   177.3860   251.6846  1053.0484

       T/K    H(0)-H(T)+PV         H(T)/Eh          T*S/Eh         G(T)/Eh
   ------------------------------------------------------------------------
    298.15    0.463738E-01    0.750231E+00    0.119583E+00    0.630647E+00
   ------------------------------------------------------------------------

         :::::::::::::::::::::::::::::::::::::::::::::::::::::
         ::                  THERMODYNAMIC                  ::
         :::::::::::::::::::::::::::::::::::::::::::::::::::::
         :: total free energy        -144.774772806635 Eh   ::
         ::.................................................::
         :: total energy             -145.405420115853 Eh   ::
         :: zero point energy           0.703857023118 Eh   ::
         :: G(RRHO) w/o ZPVE           -0.073209713900 Eh   ::
         :: G(RRHO) contrib.            0.630647309218 Eh   ::
         :::::::::::::::::::::::::::::::::::::::::::::::::::::

           -------------------------------------------------
          | TOTAL ENERGY             -145.405420115853 Eh   |
          | TOTAL ENTHALPY           -144.655189326669 Eh   |
          | TOTAL FREE ENERGY        -144.774772806635 Eh   |
          | GRADIENT NORM               0.000048108963 Eh/α |
          | HOMO-LUMO GAP               1.213954237904 eV   |
           -------------------------------------------------

 * finished run on 2025/07/17 at 21:57:21.286
