   * xtb version 6.7.1 (edcfbbe) compiled by 'albert@albert-system' on 2024-07-22

   ID    Z sym.   atoms
    1    6 C      1-6, 8-22, 24-27, 29-35, 37-42, 44-57
    2    7 N      7, 23, 43
    3   16 S      28
    4    8 O      36
    5    1 H      58-92

          program call               : xtb data2507/gas/2Cz-DMAC-TXO/2Cz-DMAC-TXO_gas_T1_crest.xyz --gfn 2 --spinpol --tblite --uhf 2 --ohess vtight --parallel 40 --molden --ceasefiles --namespace data2507/gas/2Cz-DMAC-TXO/2Cz-DMAC-TXO_gas_T1_finalOpt
 * total energy  :  -145.3326893 Eh     change       -0.3048248E-07 Eh
 * total energy  :  -145.3327226 Eh     change       -0.3328471E-04 Eh
 * total energy  :  -145.3327346 Eh     change       -0.1197635E-04 Eh
 * total energy  :  -145.3327358 Eh     change       -0.1229288E-05 Eh
 * total energy  :  -145.3327370 Eh     change       -0.1248283E-05 Eh
 * total energy  :  -145.3327384 Eh     change       -0.1338472E-05 Eh
 * total energy  :  -145.3327399 Eh     change       -0.1507359E-05 Eh
 * total energy  :  -145.3327410 Eh     change       -0.1116936E-05 Eh
 * total energy  :  -145.3327419 Eh     change       -0.8831061E-06 Eh
 * total energy  :  -145.3327428 Eh     change       -0.9102809E-06 Eh
 * total energy  :  -145.3327442 Eh     change       -0.6172137E-06 Eh
 * total energy  :  -145.3327447 Eh     change       -0.4147274E-06 Eh
 * total energy  :  -145.3327445 Eh     change        0.1876135E-06 Eh
 * total energy  :  -145.3327447 Eh     change       -0.1880595E-06 Eh
 * total energy  :  -145.3327448 Eh     change       -0.1650693E-06 Eh
 * total energy  :  -145.3327450 Eh     change       -0.1875657E-06 Eh
 * total energy  :  -145.3327452 Eh     change       -0.1835967E-06 Eh
 * total energy  :  -145.3327453 Eh     change       -0.1429495E-06 Eh
 * total energy  :  -145.3327454 Eh     change       -0.9234239E-07 Eh
   *** GEOMETRY OPTIMIZATION CONVERGED AFTER 20 ITERATIONS ***

 final structure:
================
92
 xtb: 6.7.1 (edcfbbe)
C            0.89244035158999       -3.35289115056689        0.99398619103989
C            0.63437744279346       -2.26096259125798       -0.06104037892172
C            0.72926595615624       -2.85598706018311       -1.47835118432236
C            1.68782574454922       -1.18108714179261        0.07348982970042
C            3.02011232811526       -1.51390706687895       -0.09900174517084
C            4.03351974036545       -0.56354419620099       -0.03092620940871
N            5.36421936337682       -0.94304803420487       -0.21632005314983
C            5.84319971504132       -1.73537982654030       -1.24263262643929
C            5.17318362278133       -2.26974143359963       -2.33408154874251
C            5.90609073853051       -3.01097669006322       -3.24172058873587
C            7.27476226027277       -3.21116310204549       -3.08029247115950
C            7.95280229236174       -2.65576163956335       -2.01251790127770
C            7.23769740528994       -1.90793899848231       -1.08766039542184
C            7.61040367397564       -1.18137040559033        0.09534842779426
C            8.81438986279315       -0.99340924883864        0.75941760117396
C            8.82097616338655       -0.23566281420401        1.91445598846900
C            7.64482614554630        0.31641634505399        2.41585907571353
C            6.43392180434723        0.14190675125029        1.77268724719596
C            6.42573749529347       -0.59639483029070        0.59800217232615
C            3.69537947126501        0.76794299822383        0.20390782670263
C            2.37870179234149        1.11663793818258        0.38252367981845
C            1.35761812703720        0.15587250559679        0.34341317644581
N            0.04854003609203        0.54041383681018        0.53946033543159
C           -0.24087580827973        1.90937557828428        0.79542824549816
C            0.12716690813999        2.48531844904433        2.01369569026214
C           -0.17549932058946        3.82338363592372        2.23091434065184
C           -0.81901863500583        4.57920964481752        1.26758875835108
S           -1.15696923572079        6.25009092950262        1.69101839027958
C           -1.91077472127526        6.89937944759698        0.23303432363211
C           -2.24379846408270        8.24391538753333        0.27318654979427
C           -2.84137352015424        8.85417097750291       -0.81784166580654
C           -3.10425550663346        8.10420626299531       -1.95668750763377
C           -2.76940695818386        6.76998205361483       -2.00129545902139
C           -2.16746534778337        6.12328724688543       -0.90634429608642
C           -1.84773890644051        4.71521368361638       -1.04314980006377
O           -2.14973905815344        4.10181757978441       -2.11242391999786
C           -1.18722348618401        4.01782634294639        0.02337946852166
C           -0.88347476583016        2.65201672704889       -0.17120858321330
C           -0.99287157670709       -0.35908805439959        0.45229742737614
C           -2.30479948509379        0.06805808565089        0.70503077329723
C           -3.36686375652239       -0.79843053231878        0.62102580864578
C           -3.14669352639448       -2.13445477482802        0.28950607333254
N           -4.21032937267821       -3.03294452173424        0.19587551899869
C           -5.38582978415514       -2.82458648364977       -0.50203783583605
C           -5.76817607502478       -1.74598343468673       -1.28668160625843
C           -7.00163041124942       -1.80684072597298       -1.90755741248417
C           -7.83434936851830       -2.91398901328655       -1.76484289758677
C           -7.44682596026857       -4.00203356308164       -1.00679273400119
C           -6.21305422880531       -3.96331822723992       -0.37259655856237
C           -5.49762947375022       -4.89744666906240        0.45351447515304
C           -5.79665400875002       -6.16076793456829        0.94339053330747
C           -4.87463665733974       -6.79035489988224        1.75727008256917
C           -3.67778761595036       -6.16624621347714        2.09939086615732
C           -3.35858205323557       -4.90808592623417        1.62419975100397
C           -4.26654687364015       -4.28389018279369        0.78048889103029
C           -1.84334262945643       -2.56779598362675        0.06949766680917
C           -0.76027818701437       -1.71010229619958        0.15255551993461
H            0.79320104784700       -2.93441519148917        1.99388120838938
H            1.89317893498499       -3.76260180795730        0.89202261706072
H            0.18226613513813       -4.16810010024701        0.88821940597017
H            0.57369513802617       -2.07463209250926       -2.21972279402289
H            1.70517665771102       -3.30297756078729       -1.64577923042935
H           -0.02360880124692       -3.62444382531129       -1.62784116070568
H            3.29985060498751       -2.54042288510496       -0.27693706892174
H            4.11823446993466       -2.09756007496382       -2.48446806848396
H            5.40669420437026       -3.43919926317551       -4.09814011273467
H            7.81172223275666       -3.79863399260329       -3.80977594305227
H            9.01747376465117       -2.79241317778002       -1.89930277454631
H            9.72308328456232       -1.43552527396607        0.38010809759115
H            9.74750687405988       -0.07437767765082        2.44469573799774
H            7.67848722791088        0.89079366706066        3.32965331805279
H            5.52512145391048        0.55821006959435        2.17986419115890
H            4.46333552452265        1.52545652470138        0.21389755241827
H            2.12382472859525        2.15269969676583        0.53527479383451
H            0.62057198219512        1.89772989428027        2.77098417799133
H            0.07861411141606        4.28751294552907        3.17179243738071
H           -2.02644309843285        8.80817664913594        1.16827377688143
H           -3.09826038507924        9.90120934159598       -0.77488479551815
H           -3.57583159475146        8.56666115080830       -2.81133699851066
H           -2.96380536448879        6.17123991964177       -2.87802856641190
H           -1.15850481225513        2.20974448735337       -1.11633243246991
H           -2.48304431198404        1.09409905643676        0.98232105527698
H           -4.36567140956836       -0.45420057574121        0.83853143442310
H           -5.12296305733793       -0.89151471813358       -1.42106466858088
H           -7.32388150943022       -0.97828934226217       -2.52014375083868
H           -8.79167513442507       -2.92217400603443       -2.26393275424823
H           -8.08441349543672       -4.86771007303006       -0.91076516199302
H           -6.73402208749785       -6.63533751006698        0.69619948823253
H           -5.08643088722129       -7.77490694601946        2.14640835039581
H           -2.98557251157011       -6.67364278041349        2.75494677231404
H           -2.44044674412159       -4.42262866416994        1.91863081337404
H           -1.69113648530212       -3.60288273560781       -0.19321472499142

 projected vibrational frequencies (cm⁻¹)
eigval :       -0.00    -0.00     0.00     0.00     0.00     0.00
eigval :        9.92    10.10    13.49    16.74    22.10    23.16
eigval :       28.94    36.14    38.95    43.95    54.85    88.53
eigval :       90.72   103.46   107.75   112.12   117.53   123.98
eigval :      126.00   128.36   130.32   145.04   147.68   163.38
eigval :      177.06   178.85   188.57   198.73   201.41   215.39
eigval :      219.96   241.15   271.20   271.71   273.34   279.30
eigval :      291.89   300.03   309.88   326.29   332.04   337.97
eigval :      348.77   350.91   353.96   358.10   373.87   393.43
eigval :      395.54   400.90   403.03   419.06   421.04   421.23
eigval :      428.52   434.06   436.84   444.43   448.87   454.79
eigval :      461.39   468.02   501.55   510.93   517.04   517.67
eigval :      527.39   528.56   533.12   540.09   540.27   545.98
eigval :      561.69   566.48   571.68   587.68   587.84   590.66
eigval :      599.69   602.68   618.96   627.90   637.20   643.95
eigval :      650.05   658.03   661.15   673.58   674.29   679.19
eigval :      687.69   697.99   699.33   709.11   710.49   711.30
eigval :      752.24   755.79   762.04   762.25   770.24   770.60
eigval :      779.12   781.07   781.28   800.42   827.67   829.40
eigval :      841.65   844.49   858.53   869.98   870.27   870.57
eigval :      873.13   874.17   884.67   891.94   894.44   896.10
eigval :      899.19   899.59   902.90   903.77   907.80   909.36
eigval :      910.96   912.12   918.53   918.90   924.66   924.75
eigval :      927.80   928.65   933.07   958.64   990.58   992.99
eigval :     1004.67  1012.49  1012.90  1014.50  1028.23  1045.05
eigval :     1070.39  1070.53  1073.56  1073.72  1082.81  1084.77
eigval :     1094.85  1119.63  1123.65  1137.68  1138.85  1149.87
eigval :     1150.09  1155.22  1155.88  1157.41  1170.87  1174.87
eigval :     1176.39  1177.22  1180.61  1180.79  1189.39  1189.60
eigval :     1201.10  1209.73  1228.41  1233.20  1234.01  1234.52
eigval :     1235.92  1237.91  1240.85  1252.25  1256.63  1271.12
eigval :     1294.53  1295.51  1296.32  1299.38  1303.72  1313.34
eigval :     1327.46  1329.08  1334.11  1337.51  1356.45  1357.87
eigval :     1358.26  1358.67  1363.89  1371.04  1377.14  1397.28
eigval :     1403.17  1404.29  1415.65  1417.72  1418.17  1421.08
eigval :     1423.52  1424.55  1437.20  1439.04  1443.95  1467.28
eigval :     1471.10  1472.37  1473.09  1485.80  1486.21  1487.63
eigval :     1490.65  1491.08  1500.67  1501.50  1520.46  1523.97
eigval :     1540.27  1555.36  1568.66  1573.93  1574.33  1579.77
eigval :     1586.73  1587.78  1591.00  1593.54  1594.45  1609.59
eigval :     1610.55  3028.46  3031.74  3042.83  3045.10  3053.00
eigval :     3056.40  3077.72  3078.70  3079.57  3080.28  3081.29
eigval :     3081.78  3084.61  3084.64  3085.81  3087.38  3089.08
eigval :     3091.14  3091.36  3092.90  3094.41  3096.08  3098.27
eigval :     3098.38  3099.39  3100.63  3100.75  3100.87  3101.38
eigval :     3101.77  3102.46  3103.20  3104.15  3116.94  3118.44

   temp. (K)  partition function   enthalpy   heat capacity  entropy
                                   cal/mol     cal/K/mol   cal/K/mol   J/K/mol
 298.15  VIB  0.612E+21            26822.164    170.763    164.919
         ROT  0.185E+09              888.752      2.981     40.810
         INT  0.113E+30            27710.916    173.744    205.729
         TR   0.199E+29             1481.254      4.968     45.703
         TOT                       29192.1700   178.7121   251.4318  1051.9907

       T/K    H(0)-H(T)+PV         H(T)/Eh          T*S/Eh         G(T)/Eh
   ------------------------------------------------------------------------
    298.15    0.465207E-01    0.747656E+00    0.119463E+00    0.628193E+00
   ------------------------------------------------------------------------

         :::::::::::::::::::::::::::::::::::::::::::::::::::::
         ::                  THERMODYNAMIC                  ::
         :::::::::::::::::::::::::::::::::::::::::::::::::::::
         :: total free energy        -144.704552401656 Eh   ::
         ::.................................................::
         :: total energy             -145.332745425859 Eh   ::
         :: zero point energy           0.701135701877 Eh   ::
         :: G(RRHO) w/o ZPVE           -0.072942677674 Eh   ::
         :: G(RRHO) contrib.            0.628193024203 Eh   ::
         :::::::::::::::::::::::::::::::::::::::::::::::::::::

           -------------------------------------------------
          | TOTAL ENERGY             -145.332745425859 Eh   |
          | TOTAL ENTHALPY           -144.585089039938 Eh   |
          | TOTAL FREE ENERGY        -144.704552401656 Eh   |
          | GRADIENT NORM               0.000123107238 Eh/α |
           -------------------------------------------------

 * finished run on 2025/07/17 at 22:05:53.395
