   * xtb version 6.7.1 (edcfbbe) compiled by 'albert@albert-system' on 2024-07-22

   ID    Z sym.   atoms
    1    6 C      1-6, 8-22, 24-27, 29-35, 37-42, 44-57
    2    7 N      7, 23, 43
    3   16 S      28
    4    8 O      36
    5    1 H      58-92

          program call               : xtb data2507/gas/2Cz-DMAC-TXO/2Cz-DMAC-TXO_gas_S0_finalOpt.xtbopt.xyz --gfn 2 --spinpol --tblite --uhf 2 --ohess vtight --parallel 40 --molden --ceasefiles --namespace data2507/gas/2Cz-DMAC-TXO/2Cz-DMAC-TXO_gas_T1_preOpt
 * total energy  :  -145.3278664 Eh     change       -0.4360004E-08 Eh
 * total energy  :  -145.3314426 Eh     change       -0.3576215E-02 Eh
 * total energy  :  -145.3324607 Eh     change       -0.1018088E-02 Eh
 * total energy  :  -145.3325378 Eh     change       -0.7704343E-04 Eh
 * total energy  :  -145.3325685 Eh     change       -0.3070390E-04 Eh
 * total energy  :  -145.3325853 Eh     change       -0.1686167E-04 Eh
 * total energy  :  -145.3326006 Eh     change       -0.1528693E-04 Eh
 * total energy  :  -145.3326092 Eh     change       -0.8523816E-05 Eh
 * total energy  :  -145.3326195 Eh     change       -0.1036443E-04 Eh
 * total energy  :  -145.3326258 Eh     change       -0.6296234E-05 Eh
 * total energy  :  -145.3327400 Eh     change       -0.1908825E-05 Eh
 * total energy  :  -145.3327415 Eh     change       -0.1429999E-05 Eh
 * total energy  :  -145.3327426 Eh     change       -0.1097146E-05 Eh
 * total energy  :  -145.3327433 Eh     change       -0.7444491E-06 Eh
 * total energy  :  -145.3327435 Eh     change       -0.2207343E-06 Eh
 * total energy  :  -145.3327441 Eh     change       -0.5382805E-06 Eh
 * total energy  :  -145.3327442 Eh     change       -0.1333353E-06 Eh
 * total energy  :  -145.3327444 Eh     change       -0.2185358E-06 Eh
 * total energy  :  -145.3327445 Eh     change       -0.8302996E-07 Eh
   *** GEOMETRY OPTIMIZATION CONVERGED AFTER 48 ITERATIONS ***

 final structure:
================
92
 xtb: 6.7.1 (edcfbbe)
C            0.50961848387332       -3.43096891116158        1.00472996138103
C            0.37866840749166       -2.32137332856268       -0.05527868205872
C            0.42308078693125       -2.92793884818044       -1.47018110297262
C            1.53946213477379       -1.35892613561087        0.08675393641683
C            2.83044663887400       -1.83091243889293       -0.07470348285496
C            3.93797530544807       -0.99254158714733       -0.00049309218675
N            5.22263866790975       -1.51048271106901       -0.17443488724981
C            5.62279669957985       -2.35541911864663       -1.19261549371001
C            4.90803337729283       -2.82398767743794       -2.28592292316449
C            5.56522649195293       -3.64448655546167       -3.18330927910382
C            6.90411209528323       -3.98624693191879       -3.01028972843464
C            7.62946092978113       -3.49724734730457       -1.94113664587319
C            6.99050971408828       -2.67194208750441       -1.02650483386398
C            7.42966325198427       -1.97999827404632        0.15444919689404
C            8.64279924578431       -1.91374540862268        0.82511832966666
C            8.72161707014354       -1.15253309620303        1.97519043721582
C            7.60633620111692       -0.47779522297055        2.46546406952487
C            6.38758599566148       -0.52993235075565        1.81557384409605
C            6.30945544448707       -1.27115603105693        0.64528279000128
C            3.74027274148139        0.36782949833082        0.22934948357824
C            2.46657722608381        0.85361211843323        0.39884709199286
C            1.35023164226217        0.00568670612397        0.35372910679168
N            0.08794501581992        0.52648676625056        0.54127929466740
C           -0.05377681106240        1.91718880868960        0.80500249263429
C            0.36140257586786        2.43974647146237        2.03212547663955
C            0.20905641265838        3.80194517221939        2.25653493217360
C           -0.33173269538092        4.63201843379882        1.29126802160810
S           -0.48324969960805        6.32788090815499        1.72346771700741
C           -1.11968405439943        7.07084825964192        0.25436698081714
C           -1.28039779414458        8.44664612133236        0.29432167402181
C           -1.77649429503690        9.12979586736004       -0.80435352137998
C           -2.11259616416353        8.42129649715707       -1.95046948626386
C           -1.94828518795707        7.05553347985070       -1.99497839056469
C           -1.45169581228920        6.33580485687519       -0.89278142726825
C           -1.30662759329301        4.89934044468015       -1.03118857467442
O           -1.66864420172632        4.33045963780669       -2.10635541936126
C           -0.74571891887833        4.12397971031533        0.03854075238047
C           -0.59712328880887        2.73359143715311       -0.16291118083263
C           -1.04232724379345       -0.25671716760934        0.44239813057587
C           -2.30391227726342        0.30784098313463        0.68121275022264
C           -3.45122037611369       -0.44094464558273        0.58601302834135
C           -3.37090503410885       -1.79308050890075        0.25637066793893
N           -4.52254668967762       -2.57423509827710        0.15127182127252
C           -5.66211022684915       -2.24399452655659       -0.55919882607691
C           -5.92168226004690       -1.13047897390003       -1.34528739996618
C           -7.14782933535897       -1.06203642797580       -1.97972626331945
C           -8.09257833898869       -2.07686508871424       -1.84891292421477
C           -7.82851168691360       -3.20034863161050       -1.08953528017845
C           -6.60450449267684       -3.29085009476263       -0.44183835567480
C           -5.99924054848156       -4.29553926288393        0.38948374697678
C           -6.43310573498287       -5.52206628287996        0.87198016599309
C           -5.59064175603959       -6.24543384404650        1.69408455934361
C           -4.33968357805006       -5.74923493229898        2.05169112723000
C           -3.88644733820427       -4.52999044590265        1.58402607535030
C           -4.71498596496183       -3.81353432943104        0.73189779432092
C           -2.11876052005941       -2.36254832042014        0.04925151216801
C           -0.95157715016393       -1.62492424482460        0.14383679893634
H            0.44702364652507       -3.00091443099041        2.00267457889714
H            1.46181209930612       -3.94538444717741        0.91262488108827
H           -0.28262474487975       -4.16605638455816        0.89460930432123
H            0.35878296122254       -2.13697785410580       -2.21488962208254
H            1.34727762554025       -3.47703267299845       -1.62693431545347
H           -0.40588092875759       -3.61234333739060       -1.62535757008852
H            3.00149968949873       -2.88173615776440       -0.24825324753929
H            3.87818191457223       -2.54291576535712       -2.44576698154898
H            5.02945316666887       -4.02389213383760       -4.04076144706211
H            7.38129664349726       -4.63220843809627       -3.73182384398135
H            8.67312062694988       -3.74395716937455       -1.81902513787736
H            9.50267663560728       -2.45071038326617        0.45452623188307
H            9.65688610348607       -1.08451754981969        2.51022665633946
H            7.69420382672576        0.09632025013163        3.37580944229898
H            5.52475221779327       -0.01877225148711        2.21459951286269
H            4.58353023915838        1.04042801253268        0.24281422381968
H            2.32122321346281        1.91101592471392        0.54880128306495
H            0.77660165633828        1.79519469014138        2.78997783440496
H            0.50194878099427        4.22817084138277        3.20403864371619
H           -1.00936485130774        8.97714601682837        1.19540720295780
H           -1.89915431099034       10.20088648780499       -0.76155324686588
H           -2.50713580694923        8.94134000196396       -2.81105244715040
H           -2.20143809783358        6.48798279858138       -2.87745434321683
H           -0.90823123829366        2.33146996848421       -1.11474726065319
H           -2.37465474613971        1.34743302158208        0.95642586161352
H           -4.40995792833166        0.00772318529591        0.79325747385772
H           -5.18981106481577       -0.34745053101210       -1.47053636786023
H           -7.37549377665887       -0.20361147926787       -2.59362571605375
H           -9.03999608703834       -1.98485065846882       -2.35838606659018
H           -8.55347711808252       -3.99535272563747       -1.00276181267002
H           -7.41167220565889       -5.89648221338309        0.61275570605506
H           -5.90762946913209       -7.20359998209301        2.07758676640819
H           -3.71132364414956       -6.32683574339585        2.71344593144715
H           -2.92647559714781       -4.14283705577342        1.89043248357977
H           -2.07483565254371       -3.40812792360293       -0.21231652984083

 projected vibrational frequencies (cm⁻¹)
eigval :       -0.00    -0.00     0.00     0.00     0.00     0.00
eigval :        9.81    10.17    13.55    16.81    22.10    23.20
eigval :       28.84    36.17    39.00    43.96    54.81    88.29
eigval :       90.64   103.46   107.78   112.24   117.38   124.06
eigval :      126.10   128.37   130.11   145.07   147.73   163.08
eigval :      177.11   178.68   189.01   198.69   201.34   215.40
eigval :      219.83   240.99   271.15   271.78   273.34   279.40
eigval :      291.78   300.02   309.82   326.22   331.96   337.98
eigval :      348.87   351.20   354.07   358.29   373.85   393.41
eigval :      395.57   400.98   402.84   418.92   420.85   421.29
eigval :      428.52   434.10   436.89   443.94   449.29   454.64
eigval :      461.26   468.01   501.59   510.95   517.00   517.63
eigval :      527.52   528.61   533.14   540.08   540.24   546.20
eigval :      561.67   566.74   571.74   587.72   587.89   590.66
eigval :      599.81   602.67   618.95   627.89   637.15   643.87
eigval :      650.05   658.17   661.15   673.61   674.31   679.23
eigval :      687.77   697.90   699.11   709.10   710.48   711.11
eigval :      751.97   755.63   762.03   762.27   770.18   770.52
eigval :      778.71   781.00   781.22   800.39   827.85   829.51
eigval :      841.56   844.24   858.52   869.94   870.17   870.45
eigval :      873.08   874.10   884.62   891.90   894.44   896.08
eigval :      899.12   899.51   902.85   903.71   907.81   909.41
eigval :      910.94   912.19   918.51   918.89   924.67   924.74
eigval :      927.93   928.65   933.01   958.58   990.39   992.52
eigval :     1004.17  1012.35  1012.75  1014.41  1027.83  1044.84
eigval :     1070.12  1070.21  1073.16  1073.34  1082.71  1084.49
eigval :     1094.61  1119.58  1123.33  1137.00  1138.97  1149.65
eigval :     1149.93  1155.35  1156.41  1157.36  1170.96  1174.64
eigval :     1176.78  1177.39  1180.55  1180.72  1189.74  1190.02
eigval :     1201.96  1209.40  1228.84  1233.24  1233.89  1234.44
eigval :     1235.85  1238.62  1240.87  1253.02  1257.02  1271.35
eigval :     1294.74  1295.90  1296.98  1299.62  1303.94  1313.91
eigval :     1327.38  1329.12  1334.18  1337.77  1356.49  1357.86
eigval :     1358.26  1358.64  1364.08  1370.89  1377.38  1397.27
eigval :     1403.07  1404.63  1415.96  1417.84  1418.30  1421.28
eigval :     1423.79  1424.79  1437.25  1438.97  1444.07  1467.32
eigval :     1471.29  1472.58  1473.24  1486.14  1486.53  1487.52
eigval :     1490.56  1490.85  1500.60  1501.39  1521.17  1523.85
eigval :     1540.20  1555.36  1568.64  1573.89  1574.31  1579.56
eigval :     1586.82  1587.72  1591.23  1593.45  1594.34  1609.64
eigval :     1610.53  3028.59  3031.88  3042.81  3045.22  3053.17
eigval :     3056.82  3077.91  3079.13  3080.09  3080.80  3081.61
eigval :     3082.25  3085.01  3085.09  3086.40  3087.87  3089.36
eigval :     3091.88  3092.14  3093.79  3095.18  3096.79  3098.68
eigval :     3098.76  3099.70  3100.82  3101.34  3101.38  3101.91
eigval :     3102.49  3102.90  3103.62  3104.47  3117.48  3118.36

   temp. (K)  partition function   enthalpy   heat capacity  entropy
                                   cal/mol     cal/K/mol   cal/K/mol   J/K/mol
 298.15  VIB  0.612E+21            26822.984    170.765    164.925
         ROT  0.185E+09              888.752      2.981     40.811
         INT  0.113E+30            27711.737    173.746    205.737
         TR   0.199E+29             1481.254      4.968     45.703
         TOT                       29192.9905   178.7140   251.4397  1052.0237

       T/K    H(0)-H(T)+PV         H(T)/Eh          T*S/Eh         G(T)/Eh
   ------------------------------------------------------------------------
    298.15    0.465220E-01    0.747697E+00    0.119467E+00    0.628230E+00
   ------------------------------------------------------------------------

         :::::::::::::::::::::::::::::::::::::::::::::::::::::
         ::                  THERMODYNAMIC                  ::
         :::::::::::::::::::::::::::::::::::::::::::::::::::::
         :: total free energy        -144.704514838303 Eh   ::
         ::.................................................::
         :: total energy             -145.332744578458 Eh   ::
         :: zero point energy           0.701174864032 Eh   ::
         :: G(RRHO) w/o ZPVE           -0.072945123877 Eh   ::
         :: G(RRHO) contrib.            0.628229740155 Eh   ::
         :::::::::::::::::::::::::::::::::::::::::::::::::::::

           -------------------------------------------------
          | TOTAL ENERGY             -145.332744578458 Eh   |
          | TOTAL ENTHALPY           -144.585047722764 Eh   |
          | TOTAL FREE ENERGY        -144.704514838303 Eh   |
          | GRADIENT NORM               0.000109929664 Eh/α |
           -------------------------------------------------

 * finished run on 2025/07/17 at 21:57:37.230
