   * xtb version 6.7.1 (edcfbbe) compiled by 'albert@albert-system' on 2024-07-22

   ID    Z sym.   atoms
    1    6 C      1-6, 8-22, 24-27, 29-35, 37-42, 44-57
    2    7 N      7, 23, 43
    3   16 S      28
    4    8 O      36
    5    1 H      58-92

          program call               : xtb data2507/gas/2Cz-DMAC-TXO/2Cz-DMAC-TXO.xyz --gfn 2 --ohess vtight --parallel 40 --molden --ceasefiles --namespace data2507/gas/2Cz-DMAC-TXO/2Cz-DMAC-TXO_gas_S0_preOpt
          :  Hamiltonian                  GFN2-xTB          :
 * total energy  :  -145.3755594 Eh     change       -0.2150955E-08 Eh
 * total energy  :  -145.3947562 Eh     change       -0.1919684E-01 Eh
 * total energy  :  -145.4008228 Eh     change       -0.6066592E-02 Eh
 * total energy  :  -145.4027328 Eh     change       -0.1909925E-02 Eh
 * total energy  :  -145.4040657 Eh     change       -0.1332981E-02 Eh
 * total energy  :  -145.4045653 Eh     change       -0.4995194E-03 Eh
 * total energy  :  -145.4047389 Eh     change       -0.1736445E-03 Eh
 * total energy  :  -145.4048186 Eh     change       -0.7969314E-04 Eh
 * total energy  :  -145.4048643 Eh     change       -0.4570209E-04 Eh
 * total energy  :  -145.4048844 Eh     change       -0.2014052E-04 Eh
 * total energy  :  -145.4053963 Eh     change       -0.5251225E-06 Eh
 * total energy  :  -145.4053968 Eh     change       -0.4905842E-06 Eh
 * total energy  :  -145.4053974 Eh     change       -0.6265043E-06 Eh
 * total energy  :  -145.4053982 Eh     change       -0.8308152E-06 Eh
 * total energy  :  -145.4053994 Eh     change       -0.1202894E-05 Eh
 * total energy  :  -145.4054011 Eh     change       -0.1651133E-05 Eh
 * total energy  :  -145.4054029 Eh     change       -0.1840078E-05 Eh
 * total energy  :  -145.4054044 Eh     change       -0.1512131E-05 Eh
 * total energy  :  -145.4054044 Eh     change       -0.1145040E-07 Eh
   *** GEOMETRY OPTIMIZATION CONVERGED AFTER 94 ITERATIONS ***

 final structure:
================
92
 xtb: 6.7.1 (edcfbbe)
C            0.12503319163196       -3.06394793632292        1.00113099768176
C            0.09258172684047       -1.93902260609316       -0.04950935992408
C            0.06960450597654       -2.53527636699757       -1.46862559064200
C            1.34228732372437       -1.09279263208622        0.09552037906689
C            2.58225371881525       -1.68800454168316       -0.07134250536801
C            3.76458327553778       -0.96391929335811        0.00997572027311
N            4.99718072612292       -1.60597760306779       -0.18085253446759
C            5.32693445602795       -2.41347719607304       -1.24939180090137
C            4.58095639367938       -2.74056764360294       -2.37313884320496
C            5.16377184360756       -3.56395606586855       -3.31678745922262
C            6.46060516307062       -4.04857297740516       -3.15825838966774
C            7.21612196204732       -3.70747465617373       -2.05452781873887
C            6.65244624788498       -2.88075974437189       -1.09142783479118
C            7.13720652310380       -2.32109659686809        0.13866577938723
C            8.33922571986112       -2.41979225527897        0.82708906489396
C            8.47189450021206       -1.74941783684779        2.02644455892323
C            7.42056517632742       -0.99815110620332        2.54800245194778
C            6.21562756437872       -0.88414714969875        1.88223883379577
C            6.08346776989648       -1.53854566008459        0.66569558830438
C            3.70405057804844        0.39992345122943        0.26779652184079
C            2.48109037507946        1.00580040569824        0.45217142330359
C            1.29020354534551        0.27658698261476        0.37865770132472
N            0.07669406980157        0.91919534933840        0.56570243230161
C            0.07419341333102        2.30567667704485        0.86661832282565
C            0.41357029242059        2.74237088745567        2.15037412954194
C            0.42030117913569        4.08681681668135        2.43678953349427
C            0.08647834967616        5.02566600104623        1.45700756111350
S            0.13727635487949        6.70023441867842        1.95114042501606
C           -0.27818447762492        7.57316611979506        0.49178116569638
C           -0.27648981817463        8.96477602027419        0.59366643201403
C           -0.59008173922399        9.74440010836879       -0.49723423833175
C           -0.91278528963466        9.14476880237486       -1.71073074818743
C           -0.91698787844793        7.77360838178571       -1.81141509250853
C           -0.60100294915471        6.95615246331785       -0.71799667931667
C           -0.63792053660001        5.50017677108753       -0.94042806026029
O           -0.96682344170076        5.03911098881327       -2.02177922241636
C           -0.26280667651535        4.60451656346999        0.17242135367856
C           -0.25812432203802        3.23246058983130       -0.09987736192746
C           -1.13078181765552        0.24586984262699        0.46129277583408
C           -2.32992827830809        0.92910687417277        0.68424969492097
C           -3.54559182973255        0.28694127323842        0.60228733961641
C           -3.58976696390840       -1.06504921235659        0.28509539522475
N           -4.81281744936312       -1.74655218342166        0.19913002731916
C           -5.90604047396213       -1.35967095455479       -0.54766746740483
C           -6.05822996377101       -0.26795242281623       -1.39065049368256
C           -7.26566453854195       -0.12351349003624       -2.04595471228932
C           -8.29968809542729       -1.04247480390710       -1.87811951819180
C           -8.14669011133831       -2.14165965246531       -1.05736018839472
C           -6.94178490356595       -2.30932705295075       -0.38743059980944
C           -6.43882891585559       -3.31374707388417        0.50670304131964
C           -6.98081396196665       -4.47286670070920        1.04641030394347
C           -6.21182507950189       -5.22141526754709        1.91465345175563
C           -4.92305686824895       -4.81909188638009        2.25934130667790
C           -4.36181151240342       -3.67047260834306        1.73603999859675
C           -5.12074510593403       -2.92659932135214        0.84320940645873
C           -2.39899853467443       -1.74561422667661        0.06698430358361
C           -1.16625101297823       -1.12029216012200        0.16120972993358
H            0.12229464713292       -2.63673291859370        2.00242192393842
H            1.01783400746151       -3.67293400124472        0.89139494352138
H           -0.74048182807424       -3.71292335120882        0.90067862230562
H            0.06649383233427       -1.73508497207132       -2.20645942796275
H            0.94155783378498       -3.16028344021802       -1.64058697642794
H           -0.81717513360578       -3.14401515015284       -1.62029193845951
H            2.64991947639529       -2.74709131027962       -0.26581691958536
H            3.58328885167239       -2.35251111592993       -2.51421517206446
H            4.60317817304352       -3.83495912004147       -4.19950994928318
H            6.87943141427214       -4.69211961436959       -3.91764322348415
H            8.22670239866758       -4.06979464863958       -1.93990870245764
H            9.14935800148446       -3.01281209286602        0.42997076701202
H            9.39929065353184       -1.81122296240520        2.57634881020995
H            7.55004894321613       -0.49621403242400        3.49577883228876
H            5.40039147864392       -0.31241163661126        2.29990885054323
H            4.61064381567400        0.98384763601246        0.30742466797614
H            2.44697301948030        2.06782417623667        0.63886020907011
H            0.67314889930971        2.01812656752047        2.90756126756943
H            0.68214461768296        4.43719630888957        3.42364915073671
H           -0.02425102971187        9.41592384654115        1.54163863322574
H           -0.58412880359780       10.81997126368194       -0.40676824059584
H           -1.15856806069802        9.75331089344752       -2.56720090167785
H           -1.16425464379142        7.27841106882436       -2.73866249782419
H           -0.52774920551251        2.91850137049868       -1.09778391366532
H           -2.30833508766066        1.97700517619842        0.93949318479530
H           -4.45892333931558        0.82725005368807        0.79779203216877
H           -5.25672768896931        0.44006829138458       -1.53845601410486
H           -7.41042848596903        0.71912320392720       -2.70606127722224
H           -9.22954629685804       -0.89235117546107       -2.40646579379017
H           -8.94293147222915       -2.86108630778907       -0.93820516055577
H           -7.98535314194103       -4.77611768192931        0.79219238564203
H           -6.61361843447950       -6.12758299413569        2.34325731262528
H           -4.35151520320298       -5.41684508734154        2.95438841103196
H           -3.37022327969506       -3.35520638001311        2.02477450913040
H           -2.45417732877241       -2.79238476647724       -0.18848903659923

          :  Hamiltonian                  GFN2-xTB          :
         :: gradient norm              0.000062159062 Eh/a0 ::
         :: HOMO-LUMO gap              1.209185406913 eV    ::
         :: SCC energy              -148.008278954904 Eh    ::
         :: -> dispersion             -0.136355483206 Eh    ::
         :: repulsion energy           2.602874520240 Eh    ::

    * Orbital Energies and Occupations

         #    Occupation            Energy/Eh            Energy/eV
      -------------------------------------------------------------
         1        2.0000           -0.7498246             -20.4038
       ...           ...                  ...                  ...
       123        2.0000           -0.4124935             -11.2245
       124        2.0000           -0.4110395             -11.1850
       125        2.0000           -0.4096574             -11.1473
       126        2.0000           -0.4044615             -11.0060
       127        2.0000           -0.4006427             -10.9020
       128        2.0000           -0.4001273             -10.8880
       129        2.0000           -0.3995845             -10.8732
       130        2.0000           -0.3907286             -10.6323
       131        2.0000           -0.3739881             -10.1767
       132        2.0000           -0.3729506             -10.1485
       133        2.0000           -0.3696295             -10.0581
       134        2.0000           -0.3583644              -9.7516
       135        2.0000           -0.3465263              -9.4295 (HOMO)
       136                         -0.3020895              -8.2203 (LUMO)
       137                         -0.2664265              -7.2498
       138                         -0.2540377              -6.9127
       139                         -0.2480217              -6.7490
       140                         -0.2427946              -6.6068
       141                         -0.2399330              -6.5289
       142                         -0.2350012              -6.3947
       143                         -0.2312958              -6.2939
       144                         -0.2299705              -6.2578
       145                         -0.2187143              -5.9515
       146                         -0.2172967              -5.9129
       ...                                ...                  ...
       268                          0.7519496              20.4616
      -------------------------------------------------------------
                  HL-Gap            0.0444367 Eh            1.2092 eV

     #   Z          covCN         q      C6AA      α(0)
     1   6 C        3.761    -0.103    22.523     6.765
     2   6 C        3.910     0.023    20.126     6.377
     3   6 C        3.761    -0.104    22.528     6.766
     4   6 C        2.979    -0.011    28.287     8.724
     5   6 C        2.931    -0.049    29.228     8.866
     6   6 C        2.911     0.051    26.858     8.498
     7   7 N        2.803    -0.043    22.078     6.979
     8   6 C        3.079     0.046    26.885     8.501
     9   6 C        2.910    -0.052    29.288     8.874
    10   6 C        2.924    -0.034    28.851     8.809
    11   6 C        2.920    -0.042    29.037     8.837
    12   6 C        2.912    -0.033    28.826     8.804
    13   6 C        3.068    -0.018    28.387     8.736
    14   6 C        3.069    -0.018    28.385     8.736
    15   6 C        2.912    -0.033    28.827     8.804
    16   6 C        2.920    -0.042    29.039     8.837
    17   6 C        2.924    -0.034    28.851     8.808
    18   6 C        2.910    -0.051    29.278     8.873
    19   6 C        3.078     0.046    26.882     8.500
    20   6 C        2.921    -0.045    29.123     8.850
    21   6 C        2.924    -0.058    29.444     8.898
    22   6 C        2.928     0.055    26.769     8.485
    23   7 N        2.754    -0.064    22.488     7.043
    24   6 C        2.924     0.067    26.491     8.441
    25   6 C        2.921    -0.032    28.800     8.801
    26   6 C        2.993    -0.038    28.931     8.823
    27   6 C        2.967     0.045    26.978     8.520
    28  16 S        2.161    -0.063   143.689    20.175
    29   6 C        2.968     0.048    26.911     8.509
    30   6 C        2.994    -0.037    28.910     8.820
    31   6 C        2.920    -0.020    28.502     8.755
    32   6 C        2.916    -0.030    28.742     8.791
    33   6 C        2.930    -0.018    28.450     8.747
    34   6 C        2.995    -0.022    28.535     8.763
    35   6 C        2.832     0.221    23.342     7.917
    36   8 O        0.859    -0.393    21.533     6.222
    37   6 C        2.996    -0.022    28.533     8.762
    38   6 C        2.932    -0.030    28.749     8.793
    39   6 C        2.927     0.055    26.769     8.485
    40   6 C        2.924    -0.057    29.415     8.894
    41   6 C        2.921    -0.045    29.110     8.848
    42   6 C        2.911     0.051    26.849     8.497
    43   7 N        2.803    -0.043    22.077     6.979
    44   6 C        3.078     0.046    26.880     8.500
    45   6 C        2.910    -0.051    29.269     8.871
    46   6 C        2.924    -0.034    28.839     8.807
    47   6 C        2.920    -0.042    29.035     8.836
    48   6 C        2.912    -0.033    28.830     8.805
    49   6 C        3.069    -0.018    28.390     8.737
    50   6 C        3.068    -0.018    28.385     8.736
    51   6 C        2.912    -0.033    28.828     8.804
    52   6 C        2.920    -0.042    29.043     8.837
    53   6 C        2.924    -0.035    28.862     8.810
    54   6 C        2.910    -0.052    29.297     8.875
    55   6 C        3.078     0.046    26.890     8.502
    56   6 C        2.931    -0.049    29.226     8.866
    57   6 C        2.979    -0.011    28.288     8.724
    58   1 H        0.925     0.032     2.561     2.503
    59   1 H        0.925     0.042     2.425     2.435
    60   1 H        0.925     0.042     2.420     2.433
    61   1 H        0.925     0.034     2.529     2.487
    62   1 H        0.925     0.042     2.425     2.435
    63   1 H        0.925     0.042     2.421     2.433
    64   1 H        0.926     0.043     2.403     2.424
    65   1 H        0.926     0.027     2.637     2.539
    66   1 H        0.926     0.027     2.623     2.532
    67   1 H        0.926     0.026     2.638     2.540
    68   1 H        0.926     0.029     2.594     2.519
    69   1 H        0.926     0.030     2.593     2.518
    70   1 H        0.926     0.026     2.641     2.541
    71   1 H        0.926     0.027     2.635     2.538
    72   1 H        0.926     0.025     2.662     2.551
    73   1 H        0.926     0.040     2.446     2.446
    74   1 H        0.926     0.029     2.606     2.524
    75   1 H        0.926     0.055     2.264     2.353
    76   1 H        0.926     0.055     2.263     2.352
    77   1 H        0.926     0.049     2.329     2.387
    78   1 H        0.926     0.048     2.349     2.397
    79   1 H        0.926     0.047     2.356     2.400
    80   1 H        0.926     0.073     2.051     2.240
    81   1 H        0.926     0.080     1.981     2.201
    82   1 H        0.926     0.030     2.590     2.516
    83   1 H        0.926     0.041     2.437     2.441
    84   1 H        0.926     0.028     2.620     2.531
    85   1 H        0.926     0.028     2.613     2.528
    86   1 H        0.926     0.026     2.640     2.541
    87   1 H        0.926     0.029     2.598     2.521
    88   1 H        0.926     0.029     2.595     2.519
    89   1 H        0.926     0.026     2.644     2.543
    90   1 H        0.926     0.026     2.637     2.539
    91   1 H        0.926     0.025     2.654     2.548
    92   1 H        0.926     0.043     2.403     2.424

molecular dipole:
                 x           y           z       tot (Debye)
 q only:        0.224       1.364       0.934
   full:        0.230       1.529       0.947       4.609

 projected vibrational frequencies (cm⁻¹)
eigval :       -0.00    -0.00    -0.00     0.00     0.00     0.00
eigval :        6.98     9.96    12.94    15.01    18.26    21.97
eigval :       27.33    33.62    37.41    43.48    50.62    91.02
eigval :       91.78   103.31   106.30   110.11   114.12   123.13
eigval :      123.99   127.83   128.90   143.77   145.87   154.24
eigval :      176.21   178.58   187.80   197.58   200.96   209.33
eigval :      212.97   240.81   271.59   271.77   277.50   278.72
eigval :      293.25   299.32   312.96   329.10   334.87   340.07
eigval :      352.67   356.06   359.40   372.36   377.29   394.40
eigval :      396.18   403.04   416.63   420.91   421.81   423.57
eigval :      426.10   432.81   435.87   451.13   453.47   454.38
eigval :      466.06   467.09   490.21   508.77   518.00   518.37
eigval :      527.03   528.70   533.18   541.35   541.40   544.65
eigval :      562.73   570.75   583.28   587.96   590.02   603.46
eigval :      606.96   614.53   627.94   636.40   646.71   648.65
eigval :      665.71   673.12   673.73   674.38   680.30   682.47
eigval :      691.12   700.67   708.58   709.60   724.51   726.61
eigval :      753.19   756.26   763.55   769.35   769.57   780.68
eigval :      780.82   787.18   802.04   822.51   823.71   828.60
eigval :      844.59   869.43   869.61   871.70   872.22   883.91
eigval :      891.13   893.12   894.85   895.84   899.58   900.23
eigval :      900.85   901.32   906.06   906.40   913.65   915.75
eigval :      916.35   921.74   922.91   923.14   924.27   925.12
eigval :      925.45   929.64   933.80   958.02   993.24   993.92
eigval :     1007.66  1012.40  1012.75  1014.97  1044.64  1069.55
eigval :     1069.63  1070.38  1073.01  1073.12  1085.41  1089.36
eigval :     1096.44  1121.70  1125.33  1137.76  1147.39  1151.69
eigval :     1151.84  1158.81  1160.65  1161.30  1174.55  1175.78
eigval :     1177.10  1177.63  1181.63  1181.68  1189.90  1190.18
eigval :     1203.01  1221.34  1229.09  1233.67  1236.92  1237.34
eigval :     1238.98  1245.64  1251.35  1258.91  1263.90  1273.86
eigval :     1299.12  1299.90  1305.27  1307.60  1308.81  1324.56
eigval :     1325.51  1332.16  1339.28  1341.76  1357.95  1358.11
eigval :     1363.27  1363.72  1373.45  1384.24  1391.14  1403.67
eigval :     1404.19  1417.11  1421.80  1425.18  1429.03  1429.99
eigval :     1436.69  1442.60  1445.87  1453.01  1477.23  1477.59
eigval :     1482.56  1489.09  1489.26  1489.52  1491.97  1501.16
eigval :     1502.59  1504.11  1539.74  1558.95  1559.69  1571.85
eigval :     1574.45  1577.58  1580.01  1585.20  1588.98  1589.30
eigval :     1597.47  1599.15  1599.26  1603.15  1615.53  1615.92
eigval :     1657.66  3025.69  3028.94  3040.80  3043.42  3050.51
eigval :     3054.44  3073.77  3074.03  3074.77  3075.26  3079.53
eigval :     3079.57  3080.81  3081.05  3086.30  3086.50  3086.58
eigval :     3088.27  3088.72  3090.44  3091.69  3093.11  3093.60
eigval :     3093.72  3094.12  3095.11  3095.54  3095.65  3097.35
eigval :     3098.58  3098.92  3101.40  3104.10  3105.11  3106.12

   temp. (K)  partition function   enthalpy   heat capacity  entropy
                                   cal/mol     cal/K/mol   cal/K/mol   J/K/mol
 298.15  VIB  0.163E+22            26736.412    169.431    165.309
         ROT  0.187E+09              888.752      2.981     40.828
         INT  0.304E+30            27625.164    172.412    206.137
         TR   0.199E+29             1481.254      4.968     45.703
         TOT                       29106.4178   177.3801   251.8401  1053.6989

       T/K    H(0)-H(T)+PV         H(T)/Eh          T*S/Eh         G(T)/Eh
   ------------------------------------------------------------------------
    298.15    0.463840E-01    0.750223E+00    0.119657E+00    0.630565E+00
   ------------------------------------------------------------------------

         :::::::::::::::::::::::::::::::::::::::::::::::::::::
         ::                  THERMODYNAMIC                  ::
         :::::::::::::::::::::::::::::::::::::::::::::::::::::
         :: total free energy        -144.774839038979 Eh   ::
         ::.................................................::
         :: total energy             -145.405404434666 Eh   ::
         :: zero point energy           0.703838714646 Eh   ::
         :: G(RRHO) w/o ZPVE           -0.073273318960 Eh   ::
         :: G(RRHO) contrib.            0.630565395686 Eh   ::
         :::::::::::::::::::::::::::::::::::::::::::::::::::::

           -------------------------------------------------
          | TOTAL ENERGY             -145.405404434666 Eh   |
          | TOTAL ENTHALPY           -144.655181690780 Eh   |
          | TOTAL FREE ENERGY        -144.774839038979 Eh   |
          | GRADIENT NORM               0.000062154766 Eh/α |
          | HOMO-LUMO GAP               1.209185387886 eV   |
           -------------------------------------------------

 * finished run on 2025/07/17 at 21:51:30.475
