   * xtb version 6.7.1 (edcfbbe) compiled by 'albert@albert-system' on 2024-07-22

   ID    Z sym.   atoms
    1    6 C      1-20, 22-25, 27-47, 49-62, 64
    2    7 N      21, 26, 48, 63
    3    1 H      65-124

          program call               : xtb data2507/toluene/BDQ-tBuCz/BDQ-tBuCz.xyz --gfn 2 --gbsa toluene --ohess vtight --parallel 40 --molden --ceasefiles --namespace data2507/toluene/BDQ-tBuCz/BDQ-tBuCz_toluene_S0_preOpt
      * Solvation model:               GBSA
        Solvent                        toluene
        Solvent mass                       9.2140E+01 g/mol
          :  Hamiltonian                  GFN2-xTB          :
 * total energy  :  -170.9600688 Eh     change       -0.3049934E-08 Eh
 * total energy  :  -170.9816571 Eh     change       -0.2158827E-01 Eh
 * total energy  :  -170.9886827 Eh     change       -0.7025596E-02 Eh
 * total energy  :  -170.9903505 Eh     change       -0.1667877E-02 Eh
 * total energy  :  -170.9912705 Eh     change       -0.9199564E-03 Eh
 * total energy  :  -170.9916626 Eh     change       -0.3920748E-03 Eh
 * total energy  :  -170.9919413 Eh     change       -0.2787419E-03 Eh
 * total energy  :  -170.9921615 Eh     change       -0.2202052E-03 Eh
 * total energy  :  -170.9923324 Eh     change       -0.1709161E-03 Eh
 * total energy  :  -170.9924551 Eh     change       -0.1226880E-03 Eh
 * total energy  :  -170.9940163 Eh     change       -0.3847426E-06 Eh
 * total energy  :  -170.9940166 Eh     change       -0.3438034E-06 Eh
 * total energy  :  -170.9940169 Eh     change       -0.3174646E-06 Eh
 * total energy  :  -170.9940172 Eh     change       -0.3062134E-06 Eh
 * total energy  :  -170.9940175 Eh     change       -0.3084651E-06 Eh
 * total energy  :  -170.9940179 Eh     change       -0.3258776E-06 Eh
 * total energy  :  -170.9940182 Eh     change       -0.3610590E-06 Eh
 * total energy  :  -170.9940186 Eh     change       -0.4081638E-06 Eh
 * total energy  :  -170.9940186 Eh     change       -0.2610875E-08 Eh
   *** GEOMETRY OPTIMIZATION CONVERGED AFTER 94 ITERATIONS ***

 final structure:
================
124
 xtb: 6.7.1 (edcfbbe)
C            6.59352679446567        2.91124169081642       -3.05276161564521
C            6.75125001108323        1.38714293000963       -3.15860384403188
C            8.17240976649642        1.02525157952608       -2.71544857991548
C            6.58354616320894        0.94659648825192       -4.62066173036736
C            5.68319166759133        0.71558370023727       -2.30553922315935
C            4.33346198965606        0.92923001780323       -2.61700028705484
C            3.29860609674368        0.36021953822420       -1.90175420597958
C            3.61751343603701       -0.44181394988741       -0.81771762006289
C            4.96745089684156       -0.68943509335062       -0.49486008916574
C            5.98942406049775       -0.10970279477220       -1.23540664710099
C            4.96096850360881       -1.59462025580252        0.62313677241554
C            5.96489043526224       -2.17091407179049        1.38504704613660
C            5.64269456721247       -3.01150720650207        2.44345082535364
C            6.76557728420134       -3.63535473328080        3.26230257240649
C            6.25282831500286       -4.54136142475520        4.38603685092985
C            7.65036313804682       -4.48275941071116        2.33560163481874
C            7.60251619627744       -2.51542307117188        3.89883736317980
C            4.29267879124439       -3.24269881711763        2.72189057813033
C            3.26996511945405       -2.68096629550324        1.97796158654626
C            3.60576220834149       -1.86346997503045        0.91261027712533
N            2.79967968431820       -1.16144250617479        0.03390997879763
C            1.40626084507662       -1.15894240508263        0.03283553615367
C            0.68520358068488       -2.33489748954594        0.04427285626467
C           -0.71087135750544       -2.33361425272210        0.07343775994226
C           -1.43006618459002       -1.15696680320178        0.04424075627522
N           -2.82357938751524       -1.15631878935676        0.04155692064790
C           -3.63063586147420       -1.87991082436230       -0.81800608396841
C           -3.29414707139511       -2.73194377351227       -1.85811569576623
C           -4.31878191302263       -3.30523732305735       -2.58444358111244
C           -5.67252124901085       -3.05785306549379       -2.31873104536133
C           -6.72769813559992       -3.74219076550979       -3.17737719119732
C           -6.56950188986203       -5.26512358448979       -3.05472436278179
C           -6.53864286943604       -3.31647305661302       -4.64122513131708
C           -8.15526506633865       -3.37857952981041       -2.75704864015561
C           -5.99476146809926       -2.18744044687213       -1.28969859582866
C           -4.98413826991481       -1.59585817100890       -0.54267028405323
C           -4.99025496244405       -0.65760639802950        0.54724959945164
C           -6.01193227745992       -0.05078652160672        1.26669679372949
C           -5.70494299250956        0.80377384080133        2.31317153461857
C           -6.77245107360174        1.50317417116358        3.14430473656919
C           -6.60592493994723        3.02330292004296        3.00156901129621
C           -6.61282823506152        1.09828393997464        4.61757944573394
C           -8.19395750307226        1.13839625479295        2.70468844740229
C           -4.35506709876252        1.02045594743549        2.62286061689704
C           -3.32070935749511        0.42634962478636        1.92787475957577
C           -3.64022660473199       -0.40662661976931        0.86758403390764
C           -0.72111965853803        0.07023134975926       -0.01353125442293
N           -1.37452531702230        1.22781170896814       -0.20491057179540
C           -0.70633557061936        2.35616525470904       -0.20154564025093
C           -1.44599336886361        3.56123189769642       -0.58777430219684
C           -0.85618105914430        4.54953883767094       -1.37406240636236
C           -1.58020358073590        5.66921278653430       -1.73792172992249
C           -2.89405357470013        5.81644863226749       -1.32204455959826
C           -3.49141616623356        4.82793980077301       -0.55614428267562
C           -2.77663232821450        3.70090279236345       -0.19686769945911
C            0.68669225641970        2.36239104891214        0.14333674270921
C            1.42740997041943        3.58338880947587        0.47244933446083
C            0.83456956437406        4.61552890891024        1.19801168708365
C            1.55752539373698        5.75392316882694        1.50090148413033
C            2.87381848398277        5.87604636294435        1.08451315281572
C            3.47498783952849        4.84373907368453        0.38186014824104
C            2.76091172016816        3.69878019596310        0.08294702397875
N            1.35336444201764        1.23417851673457        0.19409866784039
C            0.69898744812735        0.07062448969279        0.04732945774968
H            5.61194283246588        3.23335656319449       -3.38983107355327
H            6.72201647957733        3.22862995884678       -2.01993710201156
H            7.34457841433015        3.40883579992243       -3.66297885399927
H            8.34557167130782       -0.04568141722425       -2.79445569016930
H            8.35629289056634        1.34297931424983       -1.69163779085836
H            8.89132544383984        1.53034087353543       -3.35776494539347
H            7.36223396066814        1.39126207717141       -5.23709998912463
H            6.65788629666292       -0.13651967799346       -4.69783732436060
H            5.62010663437020        1.25061295257685       -5.02043170152197
H            4.07617898851748        1.56045780009632       -3.45446118082927
H            2.27223280342236        0.53886196445151       -2.18851335096238
H            7.00916908574555       -0.32338192784928       -0.96233351767487
H            6.99337470276616       -1.95039656148841        1.14485372035012
H            5.66747482367703       -5.36725191470013        3.98795921822360
H            7.09956540216549       -4.96034981387718        4.92644433428598
H            5.64656448224506       -3.98212085093862        5.09520836612641
H            7.05917402513552       -5.26630575640281        1.86526827021493
H            8.09767406323865       -3.87777482763190        1.55188324275061
H            8.45151355506157       -4.94911576923846        2.90544179603875
H            6.97660236078338       -1.89600606217825        4.53853135763428
H            8.40076084704526       -2.94094676949931        4.50360676821927
H            8.05134720434732       -1.87734868473863        3.14270855996437
H            4.01431069787326       -3.87783046214325        3.54646625810674
H            2.23877924743412       -2.87105981835682        2.23774580290834
H            1.21187482869466       -3.27733168092439        0.03641144811951
H           -1.23879863206625       -3.27457202062140        0.11275228893169
H           -2.26304166033875       -2.93545723215267       -2.10794807906939
H           -4.05030365210606       -3.96869503417385       -3.39246165744845
H           -7.32999060681717       -5.76919356417196       -3.64763833850737
H           -5.59431384873086       -5.59274723910130       -3.40423015579317
H           -6.68057230113260       -5.57205724306517       -2.01645103513760
H           -5.56509191179294       -3.61627969489881       -5.01937146802473
H           -6.62038661827123       -2.23492725294134       -4.73189185394208
H           -7.30252592386028       -3.77475540502173       -5.26612857359860
H           -8.33370944080513       -2.31064849906152       -2.86034040077460
H           -8.34760710331360       -3.67592902911720       -1.72862144268797
H           -8.86466946509397       -3.90069014365062       -3.39628177199256
H           -7.01790421825021       -1.94867441403998       -1.05266265571584
H           -7.03173952413449       -0.26711034243802        0.99592991070396
H           -5.62306886778527        3.34823374918517        3.33220063524259
H           -7.35489901305292        3.53971439798769        3.59861127738828
H           -6.73120747340623        3.31656775055879        1.96123875239855
H           -5.64986420829453        1.40835684907715        5.01389085477290
H           -6.69181310677071        0.01771215012878        4.72129633984913
H           -7.39246328316155        1.56101949406719        5.21933385558341
H           -8.37448226156184        0.07115199454399        2.81170505592943
H           -8.37132258249810        1.42945119776141        1.67187600066174
H           -8.91224308079337        1.66524068614788        3.32999982855857
H           -4.09760072843735        1.67458266062001        3.44253932614785
H           -2.29421698375817        0.60900593802394        2.21194007862039
H            0.16374319935351        4.43190129304524       -1.71076536444052
H           -1.11654400428257        6.42942364181986       -2.34919551282757
H           -3.45325707612111        6.69721203861300       -1.60094417645873
H           -4.51833504432609        4.93522831410830       -0.24027926662695
H           -3.23019073480459        2.91902984405543        0.39406484070893
H           -0.18693840580257        4.51731536524366        1.53629870507655
H            1.09112138094642        6.54843990674657        2.06456212269784
H            3.43227338118076        6.77119021838526        1.31490952468061
H            4.50412402169000        4.93171171280090        0.06723273186669
H            3.21661775925278        2.88408574877986       -0.45998009183371

          :  Hamiltonian                  GFN2-xTB          :
         :: gradient norm              0.000036365117 Eh/a0 ::
         :: HOMO-LUMO gap              1.386449819120 eV    ::
         :: SCC energy              -173.996267350150 Eh    ::
         :: -> dispersion             -0.167659987745 Eh    ::
         :: -> Gsolv                  -0.066693417788 Eh    ::
         :: repulsion energy           3.002248713499 Eh    ::

    * Orbital Energies and Occupations

         #    Occupation            Energy/Eh            Energy/eV
      -------------------------------------------------------------
         1        2.0000           -0.6862872             -18.6748
       ...           ...                  ...                  ...
       148        2.0000           -0.4094227             -11.1410
       149        2.0000           -0.4088333             -11.1249
       150        2.0000           -0.4070836             -11.0773
       151        2.0000           -0.4065960             -11.0640
       152        2.0000           -0.4023640             -10.9489
       153        2.0000           -0.3961839             -10.7807
       154        2.0000           -0.3956500             -10.7662
       155        2.0000           -0.3945885             -10.7373
       156        2.0000           -0.3742274             -10.1832
       157        2.0000           -0.3733287             -10.1588
       158        2.0000           -0.3653203              -9.9409
       159        2.0000           -0.3629597              -9.8766
       160        2.0000           -0.3508926              -9.5483 (HOMO)
       161                         -0.2999415              -8.1618 (LUMO)
       162                         -0.2710686              -7.3762
       163                         -0.2432708              -6.6197
       164                         -0.2409661              -6.5570
       165                         -0.2330088              -6.3405
       166                         -0.2313359              -6.2950
       167                         -0.2272918              -6.1849
       168                         -0.2251431              -6.1265
       169                         -0.2182365              -5.9385
       170                         -0.2175220              -5.9191
       171                         -0.2168779              -5.9015
       ...                                ...                  ...
       316                          0.7444025              20.2562
      -------------------------------------------------------------
                  HL-Gap            0.0509511 Eh            1.3864 eV

     #   Z          covCN         q      C6AA      α(0)
     1   6 C        3.761    -0.104    22.541     6.768
     2   6 C        3.902     0.025    20.098     6.373
     3   6 C        3.761    -0.107    22.600     6.777
     4   6 C        3.761    -0.105    22.553     6.770
     5   6 C        2.972    -0.002    28.070     8.691
     6   6 C        2.931    -0.041    29.021     8.835
     7   6 C        2.909    -0.047    29.169     8.856
     8   6 C        3.076     0.052    26.753     8.480
     9   6 C        3.066    -0.020    28.449     8.746
    10   6 C        2.918    -0.045    29.118     8.849
    11   6 C        3.065    -0.019    28.415     8.741
    12   6 C        2.920    -0.041    29.012     8.833
    13   6 C        2.972    -0.002    28.062     8.689
    14   6 C        3.902     0.025    20.100     6.373
    15   6 C        3.761    -0.107    22.595     6.776
    16   6 C        3.761    -0.105    22.561     6.771
    17   6 C        3.761    -0.105    22.557     6.770
    18   6 C        2.928    -0.045    29.116     8.849
    19   6 C        2.909    -0.056    29.387     8.889
    20   6 C        3.075     0.043    26.950     8.511
    21   7 N        2.801    -0.041    22.028     6.971
    22   6 C        2.908     0.048    26.924     8.508
    23   6 C        2.919    -0.054    29.332     8.881
    24   6 C        2.919    -0.054    29.329     8.881
    25   6 C        2.908     0.048    26.923     8.508
    26   7 N        2.801    -0.041    22.023     6.970
    27   6 C        3.078     0.043    26.950     8.511
    28   6 C        2.908    -0.055    29.373     8.887
    29   6 C        2.931    -0.040    29.006     8.833
    30   6 C        2.972    -0.002    28.064     8.690
    31   6 C        3.902     0.025    20.100     6.373
    32   6 C        3.761    -0.105    22.559     6.771
    33   6 C        3.761    -0.105    22.555     6.770
    34   6 C        3.761    -0.108    22.601     6.777
    35   6 C        2.918    -0.045    29.118     8.849
    36   6 C        3.066    -0.020    28.428     8.743
    37   6 C        3.067    -0.021    28.450     8.746
    38   6 C        2.918    -0.045    29.124     8.850
    39   6 C        2.972    -0.002    28.071     8.691
    40   6 C        3.902     0.025    20.098     6.373
    41   6 C        3.761    -0.104    22.541     6.768
    42   6 C        3.761    -0.105    22.552     6.770
    43   6 C        3.761    -0.108    22.603     6.777
    44   6 C        2.931    -0.041    29.025     8.835
    45   6 C        2.908    -0.047    29.170     8.856
    46   6 C        3.077     0.052    26.758     8.481
    47   6 C        2.962     0.077    26.271     8.407
    48   7 N        1.853    -0.250    27.378     7.755
    49   6 C        2.948     0.090    26.003     8.364
    50   6 C        2.982     0.002    27.969     8.675
    51   6 C        2.922    -0.031    28.768     8.796
    52   6 C        2.919    -0.028    28.703     8.786
    53   6 C        2.920    -0.027    28.668     8.780
    54   6 C        2.918    -0.027    28.676     8.781
    55   6 C        2.925    -0.026    28.650     8.778
    56   6 C        2.948     0.090    26.005     8.364
    57   6 C        2.982     0.002    27.973     8.676
    58   6 C        2.922    -0.031    28.769     8.796
    59   6 C        2.919    -0.028    28.703     8.786
    60   6 C        2.920    -0.027    28.667     8.780
    61   6 C        2.918    -0.027    28.677     8.781
    62   6 C        2.925    -0.026    28.651     8.778
    63   7 N        1.852    -0.250    27.377     7.755
    64   6 C        2.962     0.077    26.273     8.407
    65   1 H        0.925     0.035     2.521     2.483
    66   1 H        0.925     0.033     2.542     2.493
    67   1 H        0.925     0.039     2.465     2.455
    68   1 H        0.925     0.036     2.503     2.474
    69   1 H        0.925     0.037     2.495     2.470
    70   1 H        0.925     0.038     2.479     2.462
    71   1 H        0.925     0.039     2.465     2.455
    72   1 H        0.925     0.032     2.555     2.500
    73   1 H        0.925     0.035     2.520     2.483
    74   1 H        0.926     0.029     2.606     2.524
    75   1 H        0.926     0.010     2.892     2.660
    76   1 H        0.926     0.041     2.433     2.439
    77   1 H        0.926     0.035     2.523     2.484
    78   1 H        0.925     0.035     2.511     2.478
    79   1 H        0.925     0.038     2.479     2.462
    80   1 H        0.925     0.035     2.517     2.481
    81   1 H        0.925     0.032     2.554     2.499
    82   1 H        0.925     0.037     2.489     2.467
    83   1 H        0.925     0.039     2.468     2.457
    84   1 H        0.925     0.032     2.561     2.503
    85   1 H        0.925     0.039     2.466     2.456
    86   1 H        0.925     0.037     2.490     2.468
    87   1 H        0.926     0.039     2.462     2.454
    88   1 H        0.926     0.022     2.707     2.573
    89   1 H        0.926     0.054     2.276     2.359
    90   1 H        0.926     0.054     2.276     2.359
    91   1 H        0.926     0.022     2.710     2.574
    92   1 H        0.926     0.032     2.563     2.503
    93   1 H        0.925     0.039     2.467     2.456
    94   1 H        0.925     0.036     2.508     2.477
    95   1 H        0.925     0.033     2.547     2.496
    96   1 H        0.925     0.035     2.514     2.479
    97   1 H        0.925     0.032     2.555     2.499
    98   1 H        0.925     0.039     2.465     2.455
    99   1 H        0.925     0.036     2.498     2.472
   100   1 H        0.925     0.036     2.496     2.471
   101   1 H        0.925     0.038     2.482     2.464
   102   1 H        0.926     0.042     2.425     2.435
   103   1 H        0.926     0.042     2.423     2.434
   104   1 H        0.925     0.035     2.523     2.484
   105   1 H        0.925     0.039     2.466     2.456
   106   1 H        0.925     0.033     2.542     2.493
   107   1 H        0.925     0.035     2.522     2.483
   108   1 H        0.925     0.032     2.556     2.500
   109   1 H        0.925     0.039     2.466     2.456
   110   1 H        0.925     0.036     2.500     2.473
   111   1 H        0.925     0.037     2.492     2.469
   112   1 H        0.925     0.038     2.479     2.462
   113   1 H        0.926     0.028     2.609     2.526
   114   1 H        0.926     0.010     2.897     2.662
   115   1 H        0.926     0.027     2.622     2.532
   116   1 H        0.926     0.041     2.439     2.442
   117   1 H        0.926     0.043     2.405     2.425
   118   1 H        0.926     0.043     2.413     2.429
   119   1 H        0.926     0.045     2.389     2.417
   120   1 H        0.926     0.028     2.620     2.531
   121   1 H        0.926     0.041     2.439     2.442
   122   1 H        0.926     0.043     2.404     2.425
   123   1 H        0.926     0.043     2.413     2.429
   124   1 H        0.926     0.045     2.385     2.415

molecular dipole:
                 x           y           z       tot (Debye)
 q only:        0.002       0.632      -0.022
   full:        0.016       0.582      -0.030       1.481

 projected vibrational frequencies (cm⁻¹)
eigval :       -0.00    -0.00     0.00     0.00     0.00     0.00
eigval :       10.04    10.46    13.68    15.60    21.01    24.62
eigval :       28.99    34.81    36.58    40.18    40.98    45.82
eigval :       54.08    57.45    60.00    62.24    68.55    72.39
eigval :       74.31    82.29    83.06    91.31   109.64   117.19
eigval :      134.27   136.44   156.32   157.42   161.41   165.45
eigval :      172.57   174.55   184.97   190.79   193.95   196.74
eigval :      201.59   207.07   219.07   224.37   225.75   229.59
eigval :      233.13   235.09   236.26   243.47   259.67   262.27
eigval :      265.80   271.38   281.43   287.76   289.95   304.64
eigval :      311.16   317.62   318.85   323.50   324.02   328.16
eigval :      335.90   337.85   342.82   348.96   352.99   357.18
eigval :      360.12   371.25   372.77   377.14   378.19   387.53
eigval :      394.78   399.09   403.98   409.09   410.95   419.41
eigval :      433.41   441.70   442.52   442.66   443.81   455.53
eigval :      461.26   464.79   465.76   467.40   471.60   473.28
eigval :      509.78   514.37   521.43   536.16   544.40   553.72
eigval :      557.48   574.54   580.55   584.44   586.91   588.17
eigval :      589.07   593.92   605.68   610.03   628.54   640.25
eigval :      640.40   643.29   644.05   661.67   668.43   679.00
eigval :      687.86   688.19   697.09   705.02   706.13   708.47
eigval :      717.67   718.61   720.85   737.82   750.27   763.15
eigval :      774.74   817.25   820.20   820.98   822.10   828.39
eigval :      829.47   847.61   861.93   864.18   868.35   872.63
eigval :      873.56   873.78   875.10   876.02   878.18   880.79
eigval :      903.89   904.59   907.11   911.18   914.42   915.86
eigval :      919.84   924.75   925.15   926.34   928.73   930.29
eigval :      932.58   935.09   935.83   937.20   958.97   959.19
eigval :      959.31   959.58   961.71   962.45   962.48   962.80
eigval :      962.95   965.40   965.47   965.72   972.96  1004.93
eigval :     1030.17  1031.30  1034.57  1034.73  1036.03  1036.31
eigval :     1036.51  1037.11  1039.18  1040.98  1064.94  1065.31
eigval :     1081.82  1083.00  1108.80  1121.14  1121.58  1123.23
eigval :     1127.46  1129.30  1129.70  1147.28  1162.92  1177.05
eigval :     1178.92  1179.99  1180.76  1196.59  1198.53  1206.49
eigval :     1210.61  1225.76  1225.80  1225.82  1225.91  1226.72
eigval :     1229.78  1231.04  1231.59  1234.65  1236.78  1239.50
eigval :     1245.11  1252.13  1256.13  1261.29  1265.17  1276.58
eigval :     1279.26  1281.82  1283.52  1286.48  1294.73  1303.80
eigval :     1304.65  1309.74  1312.11  1320.17  1320.31  1341.00
eigval :     1345.44  1346.31  1357.34  1361.07  1368.37  1390.72
eigval :     1393.98  1400.27  1400.76  1401.93  1402.04  1402.20
eigval :     1404.22  1404.36  1404.87  1411.47  1412.33  1425.97
eigval :     1427.05  1427.87  1427.96  1428.46  1428.85  1435.09
eigval :     1444.92  1449.70  1465.42  1472.69  1476.13  1477.33
eigval :     1480.54  1482.08  1482.84  1489.97  1490.16  1490.37
eigval :     1490.58  1492.17  1492.56  1493.07  1493.22  1499.16
eigval :     1499.26  1499.58  1500.17  1503.38  1503.65  1503.67
eigval :     1504.03  1511.13  1511.56  1512.08  1512.23  1517.17
eigval :     1517.46  1517.86  1518.02  1518.55  1535.52  1561.45
eigval :     1569.18  1572.61  1578.01  1579.02  1581.77  1583.82
eigval :     1592.41  1595.15  1602.44  1602.94  1614.55  1616.07
eigval :     3017.23  3018.69  3018.88  3020.00  3020.30  3020.38
eigval :     3020.66  3020.84  3023.36  3023.36  3023.53  3023.81
eigval :     3024.96  3025.29  3025.49  3025.66  3027.33  3027.39
eigval :     3027.66  3027.86  3030.75  3030.87  3031.02  3031.11
eigval :     3034.99  3035.18  3035.51  3035.61  3043.14  3044.07
eigval :     3044.59  3044.88  3047.41  3047.70  3048.18  3048.37
eigval :     3066.26  3068.59  3070.37  3073.37  3073.55  3074.60
eigval :     3078.22  3078.55  3083.81  3084.55  3084.82  3085.76
eigval :     3089.00  3089.56  3089.88  3090.35  3091.23  3096.73
eigval :     3097.17  3099.78  3116.65  3117.31  3118.87  3119.44

   temp. (K)  partition function   enthalpy   heat capacity  entropy
                                   cal/mol     cal/K/mol   cal/K/mol   J/K/mol
 298.15  VIB  0.397E+28            35758.765    220.060    222.224
         ROT  0.203E+09              888.752      2.981     40.998
         INT  0.808E+36            36647.518    223.041    263.222
         TR   0.234E+29             1481.254      4.968     46.031
         TOT                       38128.7717   228.0087   309.2528  1293.9135

       T/K    H(0)-H(T)+PV         H(T)/Eh          T*S/Eh         G(T)/Eh
   ------------------------------------------------------------------------
    298.15    0.607621E-01    0.108422E+01    0.146936E+00    0.937283E+00
   ------------------------------------------------------------------------

         :::::::::::::::::::::::::::::::::::::::::::::::::::::
         ::                  THERMODYNAMIC                  ::
         :::::::::::::::::::::::::::::::::::::::::::::::::::::
         :: total free energy        -170.056735483618 Eh   ::
         ::.................................................::
         :: total energy             -170.994018641689 Eh   ::
         :: zero point energy           1.023457056166 Eh   ::
         :: G(RRHO) w/o ZPVE           -0.086173898096 Eh   ::
         :: G(RRHO) contrib.            0.937283158071 Eh   ::
         :::::::::::::::::::::::::::::::::::::::::::::::::::::

           -------------------------------------------------
          | TOTAL ENERGY             -170.994018641689 Eh   |
          | TOTAL ENTHALPY           -169.909799520109 Eh   |
          | TOTAL FREE ENERGY        -170.056735483618 Eh   |
          | GRADIENT NORM               0.000036366673 Eh/α |
          | HOMO-LUMO GAP               1.386449896926 eV   |
           -------------------------------------------------

 * finished run on 2025/07/21 at 03:37:55.707
