   * xtb version 6.7.1 (edcfbbe) compiled by 'albert@albert-system' on 2024-07-22

   ID    Z sym.   atoms
    1    6 C      1-20, 22-25, 27-47, 49-62, 64
    2    7 N      21, 26, 48, 63
    3    1 H      65-124

          program call               : xtb data2507/toluene/BDQ-tBuCz/BDQ-tBuCz_toluene_S0_crest.xyz --gfn 2 --gbsa toluene --ohess vtight --parallel 40 --molden --ceasefiles --namespace data2507/toluene/BDQ-tBuCz/BDQ-tBuCz_toluene_S0_finalOpt
      * Solvation model:               GBSA
        Solvent                        toluene
        Solvent mass                       9.2140E+01 g/mol
          :  Hamiltonian                  GFN2-xTB          :
 * total energy  :  -170.9935899 Eh     change       -0.3990124E-08 Eh
 * total energy  :  -170.9936452 Eh     change       -0.5529770E-04 Eh
 * total energy  :  -170.9936818 Eh     change       -0.3660432E-04 Eh
 * total energy  :  -170.9937067 Eh     change       -0.2495559E-04 Eh
 * total energy  :  -170.9937276 Eh     change       -0.2089877E-04 Eh
 * total energy  :  -170.9937724 Eh     change       -0.4474804E-04 Eh
 * total energy  :  -170.9938076 Eh     change       -0.3520251E-04 Eh
 * total energy  :  -170.9938423 Eh     change       -0.3476945E-04 Eh
 * total energy  :  -170.9938690 Eh     change       -0.2670526E-04 Eh
 * total energy  :  -170.9938874 Eh     change       -0.1837802E-04 Eh
 * total energy  :  -170.9943512 Eh     change       -0.2654278E-06 Eh
 * total energy  :  -170.9943514 Eh     change       -0.1980787E-06 Eh
 * total energy  :  -170.9943515 Eh     change       -0.1228055E-06 Eh
 * total energy  :  -170.9943516 Eh     change       -0.1254707E-06 Eh
 * total energy  :  -170.9943518 Eh     change       -0.1610127E-06 Eh
 * total energy  :  -170.9943520 Eh     change       -0.1879134E-06 Eh
 * total energy  :  -170.9943521 Eh     change       -0.1727929E-06 Eh
 * total energy  :  -170.9943523 Eh     change       -0.1782319E-06 Eh
 * total energy  :  -170.9943523 Eh     change       -0.1871229E-08 Eh
   *** GEOMETRY OPTIMIZATION CONVERGED AFTER 68 ITERATIONS ***

 final structure:
================
124
 xtb: 6.7.1 (edcfbbe)
C            6.49649263311658        2.98610280240236       -3.09150611157024
C            6.65920417843510        1.47057654181293       -3.28031447041802
C            8.09356170533366        1.09584330700669       -2.89401308172587
C            6.45523563547152        1.10566014433764       -4.75845635111620
C            5.61777047927597        0.74957213756543       -2.43473105569475
C            4.25881412290255        0.96890443223746       -2.69934180184879
C            3.24665878878731        0.36240941175247       -1.98252282093554
C            3.59850640453858       -0.48529793922779       -0.94418221753458
C            4.95807030772240       -0.74440467123146       -0.67482755209185
C            5.95694433744642       -0.12543886132644       -1.41552271545207
C            4.98747253310524       -1.70211679097107        0.39747853570431
C            6.02302182984072       -2.31509616650819        1.09114136694289
C            5.73615260102301       -3.20564779796010        2.11335240093762
C            6.81965964858308       -3.92123414872417        2.90890632898332
C            8.23181335600395       -3.55963051522774        2.43790115687686
C            6.69751715726721       -3.53376052747365        4.39031104166686
C            6.64065407674650       -5.43882964706561        2.75229620897801
C            4.39238696179048       -3.44653739723341        2.43026166133837
C            3.34380836167722       -2.85187402372144        1.75723262573243
C            3.64379987822453       -1.98445037348398        0.71856909732916
N            2.80848712554100       -1.24376136791385       -0.09937486884866
C            1.41613367492036       -1.24090422740930       -0.05325979110538
C            0.69264193987408       -2.41555440481405       -0.04419847461211
C           -0.70136047458439       -2.41318755308019        0.03738345628034
C           -1.42064269788237       -1.23599312637102        0.05241605262654
N           -2.81299623481203       -1.23436616100894        0.09883356914024
C           -3.65087570833289       -1.96861894848839       -0.72227295274169
C           -3.35390691053797       -2.83130417233765       -1.76574513936103
C           -4.40452180479895       -3.41970179719297       -2.44110106561506
C           -5.74742590469490       -3.17683723853955       -2.12203099765973
C           -6.83337891458813       -3.88601007672676       -2.91999280396369
C           -6.65987527309143       -5.40462055032573       -2.76701135894284
C           -6.70950296216610       -3.49543763265530       -4.40043284170537
C           -8.24430754579847       -3.52019298376482       -2.44856558335540
C           -6.03120979895560       -2.29093853169615       -1.09493179704591
C           -4.99356204072411       -1.68447066325376       -0.39867564532046
C           -4.96082485639118       -0.73247793501814        0.67861880858839
C           -5.95749237553829       -0.11498855185140        1.42350402679115
C           -5.61525650801642        0.75420487651082        2.44665230098713
C           -6.65415311020332        1.47339004649731        3.29687083788152
C           -6.48953407228849        2.98939417415021        3.11359421319036
C           -6.44819681258944        1.10248430295384        4.77324553126528
C           -8.08970725196421        1.10214044657147        2.91166371387927
C           -4.25553663285718        0.96934827941509        2.71072750105985
C           -3.24552307580945        0.36382261591137        1.99007926842068
C           -3.60037574148089       -0.47814391563341        0.94810180205923
C           -0.71084417201792       -0.00930622793310       -0.00946334793027
N           -1.36370197771401        1.15283938814125       -0.17040743278569
C           -0.69400045414684        2.28008563254493       -0.15680080504709
C           -1.43241198380910        3.49350211311221       -0.51648694136026
C           -0.83823798435032        4.50182786546783       -1.27376126872916
C           -1.55963960494136        5.63129967402216       -1.61147080098969
C           -2.87538499526843        5.76847474079071       -1.19811820021968
C           -3.47735822500922        4.76012132620403       -0.46219107022951
C           -2.76505360979207        3.62367239879094       -0.12874272631613
C            0.70250024299600        2.27654192267947        0.17507084406770
C            1.44587161100928        3.48478049748512        0.54196211809172
C            0.85643399673958        4.49066489264735        1.30612485923465
C            1.58295326750296        5.61473168696811        1.65087557576893
C            2.89905972851287        5.74892936669329        1.23770357756540
C            3.49621449525319        4.74293744958598        0.49466620628665
C            2.77884574418874        3.61175242123755        0.15429402251466
N            1.36795054412274        1.14673589707613        0.18214870079861
C            0.71073319954097       -0.01201978647542        0.01487117589588
H            5.50100253459170        3.31700106182566       -3.37511034305942
H            6.66144227046113        3.25198392274110       -2.04937005336463
H            7.22123059792069        3.51992398343035       -3.70297472572055
H            8.27096906851552        0.03187278431009       -3.03392366575879
H            8.30266266205780        1.36036013241205       -1.85998552167798
H            8.79208888780649        1.63956272834279       -3.52718183625979
H            7.21927454084943        1.58147648376707       -5.36995880162370
H            6.52651608133992        0.02798443441814       -4.89326020934139
H            5.48284627897725        1.42995205654218       -5.11857441185342
H            3.97530247313536        1.63601828420637       -3.49976660088170
H            2.21233422433269        0.54827563855514       -2.23386521175438
H            6.98453557143138       -0.34737069352139       -1.18129285382523
H            7.03749622010470       -2.07794441121835        0.81793430441823
H            8.42519502111258       -2.49639201023286        2.56077155241179
H            8.96219199225487       -4.10450819380704        3.03297088866400
H            8.37771206883364       -3.83198853928489        1.39504358193705
H            6.79478327673867       -2.45595170655105        4.50640475787502
H            5.73787796123071       -3.83452095160979        4.80175880857453
H            7.48248251583751       -4.01611106680437        4.96928318064412
H            6.70674587856020       -5.71874571388481        1.70257882111971
H            7.41895074911080       -5.96603395312195        3.30031263676862
H            5.67680112965870       -5.76658167087768        3.13186690304343
H            4.15119745875551       -4.12303003041809        3.23608478359169
H            2.32270096067339       -3.05255689543330        2.04648551622275
H            1.21553492134960       -3.35875203460477       -0.09327974840731
H           -1.22769392370253       -3.35470447828341        0.08180148711122
H           -2.33351309480338       -3.03301122393629       -2.05681248594931
H           -4.16572139802322       -4.09272976025122       -3.25052345581628
H           -7.43937588153833       -5.92778267106284       -3.31717425162766
H           -5.69666885828935       -5.73458923473454       -3.14633621037562
H           -6.72802396400207       -5.68691478277962       -1.71806089210440
H           -5.75134186734289       -3.79958757451781       -4.81280403430896
H           -6.80189545356471       -2.41692441473068       -4.51390237346456
H           -7.49669576105940       -3.97282655520860       -4.98050083550670
H           -8.43304142293928       -2.45569487402798       -2.56775061975143
H           -8.39206862703273       -3.79566007209182       -1.40679648815537
H           -8.97663909991815       -4.05983881727796       -3.04600306726439
H           -7.04486587046648       -2.05247314146613       -0.81984301678069
H           -6.98583667315510       -0.33343715071118        1.18930483038377
H           -5.49314757959000        3.31776533438345        3.39702051318375
H           -7.21263739659442        3.52189644779014        3.72814562098459
H           -6.65558133598851        3.25951237805204        2.07271568586380
H           -5.47464606034363        1.42375054994332        5.13292894395270
H           -6.52105746220398        0.02442162481445        4.90404339902812
H           -7.21036413803121        1.57724524337864        5.38789746934642
H           -8.26813898272632        0.03777693758706        3.04726599890038
H           -8.30047619582687        1.37143905111509        1.87921531794158
H           -8.78633963885044        1.64395488130640        3.54853329400471
H           -3.96969398537668        1.63229778063404        3.51377129953804
H           -2.21053354718197        0.54618512436144        2.24117958098168
H            0.18303967439638        4.39162295842060       -1.60905216113626
H           -1.09254848754893        6.40707090948539       -2.20016579288651
H           -3.43269376320226        6.65672907255697       -1.45630271781057
H           -4.50591856424004        4.85981557026908       -0.14922663372390
H           -3.22160964975732        2.82663392682303        0.43911254101392
H           -0.16518966297624        4.38281505336826        1.64109684942738
H            1.11958855249883        6.38864550827731        2.24494952758806
H            3.46037784377385        6.63301690846489        1.50144851765501
H            4.52497836125803        4.84032645805208        0.18167081410514
H            3.23163815220195        2.81637794693504       -0.41890338717890

          :  Hamiltonian                  GFN2-xTB          :
         :: gradient norm              0.000030997287 Eh/a0 ::
         :: HOMO-LUMO gap              1.394349286664 eV    ::
         :: SCC energy              -173.996603372496 Eh    ::
         :: -> dispersion             -0.167880309855 Eh    ::
         :: -> Gsolv                  -0.066556852912 Eh    ::
         :: repulsion energy           3.002251057744 Eh    ::

    * Orbital Energies and Occupations

         #    Occupation            Energy/Eh            Energy/eV
      -------------------------------------------------------------
         1        2.0000           -0.6860986             -18.6697
       ...           ...                  ...                  ...
       148        2.0000           -0.4095923             -11.1456
       149        2.0000           -0.4091651             -11.1339
       150        2.0000           -0.4067047             -11.0670
       151        2.0000           -0.4066606             -11.0658
       152        2.0000           -0.4022147             -10.9448
       153        2.0000           -0.3963171             -10.7843
       154        2.0000           -0.3961852             -10.7807
       155        2.0000           -0.3942811             -10.7289
       156        2.0000           -0.3734943             -10.1633
       157        2.0000           -0.3734074             -10.1609
       158        2.0000           -0.3654977              -9.9457
       159        2.0000           -0.3634034              -9.8887
       160        2.0000           -0.3508250              -9.5464 (HOMO)
       161                         -0.2995836              -8.1521 (LUMO)
       162                         -0.2710764              -7.3764
       163                         -0.2434113              -6.6236
       164                         -0.2409364              -6.5562
       165                         -0.2328830              -6.3371
       166                         -0.2309564              -6.2846
       167                         -0.2272789              -6.1846
       168                         -0.2249812              -6.1221
       169                         -0.2177605              -5.9256
       170                         -0.2175063              -5.9186
       171                         -0.2165764              -5.8933
       ...                                ...                  ...
       316                          0.7422198              20.1968
      -------------------------------------------------------------
                  HL-Gap            0.0512414 Eh            1.3943 eV

     #   Z          covCN         q      C6AA      α(0)
     1   6 C        3.761    -0.104    22.540     6.768
     2   6 C        3.902     0.025    20.098     6.373
     3   6 C        3.761    -0.108    22.603     6.777
     4   6 C        3.761    -0.105    22.552     6.770
     5   6 C        2.972    -0.002    28.068     8.690
     6   6 C        2.931    -0.041    29.026     8.835
     7   6 C        2.909    -0.047    29.162     8.855
     8   6 C        3.076     0.052    26.761     8.482
     9   6 C        3.067    -0.021    28.449     8.746
    10   6 C        2.918    -0.045    29.126     8.850
    11   6 C        3.066    -0.019    28.426     8.743
    12   6 C        2.918    -0.045    29.118     8.849
    13   6 C        2.972    -0.002    28.060     8.689
    14   6 C        3.902     0.025    20.100     6.373
    15   6 C        3.761    -0.108    22.602     6.777
    16   6 C        3.761    -0.105    22.555     6.770
    17   6 C        3.761    -0.105    22.559     6.771
    18   6 C        2.931    -0.040    29.006     8.833
    19   6 C        2.908    -0.055    29.372     8.887
    20   6 C        3.077     0.043    26.954     8.512
    21   7 N        2.801    -0.040    22.017     6.969
    22   6 C        2.907     0.048    26.930     8.509
    23   6 C        2.919    -0.054    29.344     8.883
    24   6 C        2.919    -0.054    29.344     8.883
    25   6 C        2.907     0.048    26.930     8.509
    26   7 N        2.801    -0.040    22.017     6.969
    27   6 C        3.077     0.043    26.954     8.512
    28   6 C        2.908    -0.055    29.372     8.887
    29   6 C        2.931    -0.040    29.006     8.833
    30   6 C        2.972    -0.002    28.060     8.689
    31   6 C        3.902     0.025    20.100     6.373
    32   6 C        3.761    -0.105    22.559     6.771
    33   6 C        3.761    -0.105    22.555     6.770
    34   6 C        3.761    -0.108    22.602     6.777
    35   6 C        2.918    -0.045    29.118     8.849
    36   6 C        3.066    -0.019    28.426     8.743
    37   6 C        3.067    -0.021    28.449     8.746
    38   6 C        2.918    -0.045    29.126     8.850
    39   6 C        2.972    -0.002    28.068     8.690
    40   6 C        3.902     0.025    20.098     6.373
    41   6 C        3.761    -0.104    22.540     6.768
    42   6 C        3.761    -0.105    22.552     6.770
    43   6 C        3.761    -0.108    22.603     6.777
    44   6 C        2.931    -0.041    29.026     8.835
    45   6 C        2.909    -0.047    29.162     8.855
    46   6 C        3.076     0.052    26.762     8.482
    47   6 C        2.962     0.077    26.276     8.408
    48   7 N        1.853    -0.250    27.365     7.753
    49   6 C        2.948     0.089    26.010     8.365
    50   6 C        2.982     0.002    27.973     8.676
    51   6 C        2.922    -0.031    28.770     8.796
    52   6 C        2.919    -0.028    28.704     8.786
    53   6 C        2.920    -0.027    28.669     8.780
    54   6 C        2.918    -0.027    28.677     8.782
    55   6 C        2.924    -0.026    28.653     8.778
    56   6 C        2.948     0.089    26.010     8.365
    57   6 C        2.982     0.002    27.972     8.676
    58   6 C        2.922    -0.031    28.770     8.796
    59   6 C        2.919    -0.028    28.704     8.786
    60   6 C        2.920    -0.027    28.669     8.780
    61   6 C        2.918    -0.027    28.677     8.781
    62   6 C        2.924    -0.026    28.653     8.778
    63   7 N        1.853    -0.250    27.365     7.753
    64   6 C        2.962     0.077    26.276     8.408
    65   1 H        0.925     0.035     2.523     2.484
    66   1 H        0.925     0.033     2.541     2.493
    67   1 H        0.925     0.039     2.465     2.455
    68   1 H        0.925     0.036     2.500     2.473
    69   1 H        0.925     0.037     2.492     2.469
    70   1 H        0.925     0.038     2.479     2.462
    71   1 H        0.925     0.039     2.465     2.455
    72   1 H        0.925     0.032     2.556     2.500
    73   1 H        0.925     0.035     2.521     2.483
    74   1 H        0.926     0.028     2.610     2.526
    75   1 H        0.926     0.010     2.896     2.661
    76   1 H        0.926     0.042     2.421     2.433
    77   1 H        0.926     0.042     2.424     2.435
    78   1 H        0.925     0.036     2.498     2.472
    79   1 H        0.925     0.038     2.482     2.464
    80   1 H        0.925     0.036     2.497     2.471
    81   1 H        0.925     0.032     2.554     2.499
    82   1 H        0.925     0.035     2.513     2.479
    83   1 H        0.925     0.039     2.465     2.455
    84   1 H        0.925     0.033     2.547     2.496
    85   1 H        0.925     0.039     2.467     2.456
    86   1 H        0.925     0.036     2.508     2.476
    87   1 H        0.926     0.032     2.561     2.503
    88   1 H        0.926     0.022     2.701     2.570
    89   1 H        0.926     0.053     2.279     2.361
    90   1 H        0.926     0.053     2.279     2.361
    91   1 H        0.926     0.022     2.701     2.570
    92   1 H        0.926     0.032     2.561     2.502
    93   1 H        0.925     0.039     2.467     2.456
    94   1 H        0.925     0.036     2.508     2.476
    95   1 H        0.925     0.033     2.548     2.496
    96   1 H        0.925     0.035     2.513     2.479
    97   1 H        0.925     0.032     2.554     2.499
    98   1 H        0.925     0.039     2.465     2.455
    99   1 H        0.925     0.036     2.499     2.472
   100   1 H        0.925     0.036     2.496     2.471
   101   1 H        0.925     0.038     2.482     2.464
   102   1 H        0.926     0.042     2.424     2.435
   103   1 H        0.926     0.042     2.422     2.433
   104   1 H        0.925     0.035     2.523     2.484
   105   1 H        0.925     0.039     2.465     2.455
   106   1 H        0.925     0.033     2.541     2.493
   107   1 H        0.925     0.035     2.521     2.483
   108   1 H        0.925     0.032     2.556     2.500
   109   1 H        0.925     0.039     2.466     2.456
   110   1 H        0.925     0.036     2.500     2.473
   111   1 H        0.925     0.037     2.492     2.469
   112   1 H        0.925     0.038     2.479     2.462
   113   1 H        0.926     0.028     2.610     2.526
   114   1 H        0.926     0.010     2.896     2.661
   115   1 H        0.926     0.027     2.623     2.532
   116   1 H        0.926     0.041     2.441     2.443
   117   1 H        0.926     0.043     2.406     2.426
   118   1 H        0.926     0.043     2.414     2.429
   119   1 H        0.926     0.045     2.384     2.415
   120   1 H        0.926     0.027     2.623     2.533
   121   1 H        0.926     0.041     2.441     2.443
   122   1 H        0.926     0.043     2.406     2.426
   123   1 H        0.926     0.043     2.414     2.430
   124   1 H        0.926     0.045     2.384     2.415

molecular dipole:
                 x           y           z       tot (Debye)
 q only:        0.001       0.614       0.003
   full:        0.001       0.558       0.002       1.419

 projected vibrational frequencies (cm⁻¹)
eigval :       -0.00    -0.00    -0.00    -0.00     0.00     0.00
eigval :        9.30     9.98    11.98    12.58    20.58    22.53
eigval :       32.00    32.16    36.29    36.63    42.25    45.78
eigval :       46.66    55.54    59.17    60.53    65.61    71.02
eigval :       71.13    83.06    84.30    91.44   108.42   116.62
eigval :      135.75   137.71   155.17   155.75   163.35   163.37
eigval :      170.91   171.13   186.23   189.26   193.29   194.43
eigval :      204.79   205.04   219.29   222.23   222.90   226.60
eigval :      227.65   230.74   231.24   235.53   258.69   259.31
eigval :      268.75   269.23   279.52   281.33   291.86   293.15
eigval :      318.75   319.99   323.19   324.45   328.03   333.10
eigval :      336.19   338.42   342.93   344.80   352.80   359.61
eigval :      360.19   370.94   372.29   375.76   379.14   388.28
eigval :      394.59   398.93   404.83   410.11   411.42   419.44
eigval :      432.65   441.48   441.63   442.95   443.35   454.52
eigval :      460.64   465.20   465.67   466.30   471.90   472.26
eigval :      509.71   515.12   521.54   537.03   544.10   554.25
eigval :      557.24   574.18   581.00   584.85   586.71   588.23
eigval :      588.54   594.02   605.73   610.25   628.72   640.36
eigval :      640.50   643.51   643.89   660.49   667.49   678.87
eigval :      687.94   688.04   696.60   704.98   706.26   708.67
eigval :      717.94   718.59   721.46   737.62   749.19   761.76
eigval :      773.38   819.51   820.17   821.25   823.42   828.25
eigval :      828.91   848.30   862.18   864.08   871.95   872.35
eigval :      873.20   873.75   874.27   875.52   876.08   877.50
eigval :      902.40   905.56   909.76   914.42   914.49   917.18
eigval :      921.19   924.86   926.62   926.75   927.52   928.72
eigval :      933.90   934.54   934.57   937.54   958.58   958.80
eigval :      958.94   959.44   962.20   962.37   962.57   962.59
eigval :      962.96   963.98   964.32   964.47   973.03  1004.79
eigval :     1030.08  1030.83  1034.76  1035.00  1035.05  1035.86
eigval :     1036.17  1036.29  1040.13  1041.06  1064.74  1065.22
eigval :     1081.67  1082.85  1108.89  1121.05  1121.51  1123.93
eigval :     1128.23  1129.91  1130.20  1147.60  1162.98  1177.11
eigval :     1177.96  1179.72  1179.92  1196.42  1198.38  1206.69
eigval :     1210.67  1225.46  1225.60  1225.98  1226.15  1229.41
eigval :     1229.90  1230.79  1230.84  1235.18  1235.34  1238.17
eigval :     1242.41  1253.52  1256.20  1262.86  1264.81  1275.85
eigval :     1279.21  1281.74  1283.43  1286.97  1294.61  1304.14
eigval :     1306.37  1310.66  1312.11  1320.36  1320.52  1341.08
eigval :     1345.10  1346.18  1356.75  1357.78  1367.71  1390.53
eigval :     1394.05  1399.85  1400.32  1401.37  1401.90  1402.60
eigval :     1402.86  1403.07  1403.42  1411.15  1411.99  1426.83
eigval :     1426.89  1427.02  1427.12  1427.53  1427.91  1435.56
eigval :     1445.04  1449.73  1464.15  1476.08  1477.17  1480.14
eigval :     1480.59  1482.69  1482.90  1489.49  1489.63  1489.66
eigval :     1489.67  1492.03  1492.08  1492.65  1492.66  1498.79
eigval :     1498.87  1499.24  1499.33  1502.84  1502.98  1503.25
eigval :     1503.36  1511.19  1511.45  1511.60  1511.69  1517.27
eigval :     1517.41  1518.43  1519.22  1519.60  1535.28  1560.77
eigval :     1568.60  1571.95  1577.94  1579.05  1581.13  1581.85
eigval :     1592.29  1595.08  1602.24  1602.37  1614.22  1614.85
eigval :     3018.87  3018.94  3020.12  3020.13  3020.39  3020.47
eigval :     3020.83  3020.86  3023.51  3023.59  3024.02  3024.02
eigval :     3025.16  3025.20  3025.37  3025.43  3027.17  3027.23
eigval :     3027.82  3027.88  3030.85  3030.96  3031.25  3031.46
eigval :     3035.31  3035.38  3036.17  3036.36  3041.86  3043.00
eigval :     3044.18  3044.25  3045.82  3046.61  3048.41  3048.44
eigval :     3066.64  3066.84  3074.02  3074.44  3074.52  3074.77
eigval :     3078.32  3078.76  3083.85  3084.04  3084.33  3084.63
eigval :     3089.83  3090.09  3090.43  3090.73  3091.03  3096.88
eigval :     3097.02  3100.87  3116.72  3116.76  3119.39  3119.41

   temp. (K)  partition function   enthalpy   heat capacity  entropy
                                   cal/mol     cal/K/mol   cal/K/mol   J/K/mol
 298.15  VIB  0.106E+29            35835.264    219.782    223.258
         ROT  0.102E+09              888.752      2.981     39.622
         INT  0.108E+37            36724.017    222.763    262.880
         TR   0.234E+29             1481.254      4.968     46.031
         TOT                       38205.2708   227.7312   308.9107  1292.4823

       T/K    H(0)-H(T)+PV         H(T)/Eh          T*S/Eh         G(T)/Eh
   ------------------------------------------------------------------------
    298.15    0.608840E-01    0.108415E+01    0.146773E+00    0.937379E+00
   ------------------------------------------------------------------------

         :::::::::::::::::::::::::::::::::::::::::::::::::::::
         ::                  THERMODYNAMIC                  ::
         :::::::::::::::::::::::::::::::::::::::::::::::::::::
         :: total free energy        -170.056972825465 Eh   ::
         ::.................................................::
         :: total energy             -170.994352317369 Eh   ::
         :: zero point energy           1.023268955925 Eh   ::
         :: G(RRHO) w/o ZPVE           -0.085889464021 Eh   ::
         :: G(RRHO) contrib.            0.937379491903 Eh   ::
         :::::::::::::::::::::::::::::::::::::::::::::::::::::

           -------------------------------------------------
          | TOTAL ENERGY             -170.994352317369 Eh   |
          | TOTAL ENTHALPY           -169.910199387064 Eh   |
          | TOTAL FREE ENERGY        -170.056972825465 Eh   |
          | GRADIENT NORM               0.000031000423 Eh/α |
          | HOMO-LUMO GAP               1.394349199888 eV   |
           -------------------------------------------------

 * finished run on 2025/07/21 at 03:58:29.021
