   * xtb version 6.7.1 (edcfbbe) compiled by 'albert@albert-system' on 2024-07-22

   ID    Z sym.   atoms
    1    6 C      1-20, 22-25, 27-47, 49-62, 64
    2    7 N      21, 26, 48, 63
    3    1 H      65-124

          program call               : xtb data2507/toluene/BDQ-tBuCz/BDQ-tBuCz_toluene_T1_crest.xyz --gfn 2 --uhf 2 --gbsa toluene --ohess vtight --parallel 40 --molden --ceasefiles --namespace data2507/toluene/BDQ-tBuCz/BDQ-tBuCz_toluene_T1_finalOpt
      * Solvation model:               GBSA
        Solvent                        toluene
        Solvent mass                       9.2140E+01 g/mol
          :  Hamiltonian                  GFN2-xTB          :
 * total energy  :  -170.9395969 Eh     change       -0.5808488E-08 Eh
 * total energy  :  -170.9396777 Eh     change       -0.8085535E-04 Eh
 * total energy  :  -170.9397270 Eh     change       -0.4933103E-04 Eh
 * total energy  :  -170.9397477 Eh     change       -0.2062278E-04 Eh
 * total energy  :  -170.9397651 Eh     change       -0.1739801E-04 Eh
 * total energy  :  -170.9397996 Eh     change       -0.3456846E-04 Eh
 * total energy  :  -170.9398230 Eh     change       -0.2336639E-04 Eh
 * total energy  :  -170.9398439 Eh     change       -0.2093446E-04 Eh
 * total energy  :  -170.9398590 Eh     change       -0.1508735E-04 Eh
 * total energy  :  -170.9398718 Eh     change       -0.1273350E-04 Eh
 * total energy  :  -170.9401441 Eh     change       -0.3504153E-06 Eh
 * total energy  :  -170.9401444 Eh     change       -0.2416695E-06 Eh
 * total energy  :  -170.9401446 Eh     change       -0.2442150E-06 Eh
 * total energy  :  -170.9401449 Eh     change       -0.2856014E-06 Eh
 * total energy  :  -170.9401452 Eh     change       -0.2599706E-06 Eh
 * total energy  :  -170.9401454 Eh     change       -0.2462687E-06 Eh
 * total energy  :  -170.9401457 Eh     change       -0.2412303E-06 Eh
 * total energy  :  -170.9401459 Eh     change       -0.2332413E-06 Eh
 * total energy  :  -170.9401459 Eh     change       -0.3234334E-08 Eh
   *** GEOMETRY OPTIMIZATION CONVERGED AFTER 68 ITERATIONS ***

 final structure:
================
124
 xtb: 6.7.1 (edcfbbe)
C            6.44021239811319        2.97111362017163       -3.17957716116697
C            6.64243031687759        1.45455281930393       -3.31564365005421
C            8.07753604173356        1.12684575582618       -2.89129621070428
C            6.47405035010433        1.03719001900130       -4.78461999731983
C            5.60218727377342        0.73615668211808       -2.46802905392085
C            4.24419663003218        0.91576775348328       -2.76320889280123
C            3.23278963781964        0.29907429819051       -2.05290864942395
C            3.58821928131249       -0.51682270112030       -0.98836756641948
C            4.95021110848373       -0.72796944594566       -0.68064619684125
C            5.94545906092164       -0.10474561925624       -1.41706465916860
C            4.97801244404285       -1.65460857103841        0.42179179768619
C            6.00865665206090       -2.22188122488870        1.15608700785917
C            5.71569585943316       -3.08889407181437        2.20026922038634
C            6.79584871323149       -3.75492622370407        3.04070658277313
C            8.21021398419292       -3.37309880944566        2.59289567720439
C            6.62792483062576       -3.32898902407373        4.50710516225387
C            6.65446903591912       -5.28012655662750        2.92313193031066
C            4.37086233923360       -3.35064741554504        2.49332394462884
C            3.32554758155880       -2.79934685390966        1.77858135701497
C            3.63244442482600       -1.95781170332906        0.72019743855565
N            2.80130520314641       -1.27587175808123       -0.14946380315241
C            1.40764003227479       -1.27147161665119       -0.11268053553864
C            0.69667232585681       -2.47969394232868       -0.05677459347810
C           -0.67136453258584       -2.48603708075714        0.05707319893836
C           -1.39487975536000       -1.28471479674581        0.10039188490066
N           -2.78843092831629       -1.30385948705188        0.13641715602210
C           -3.61133922242634       -2.00466117672783       -0.72607165436235
C           -3.29426214823579       -2.85391105609604       -1.77525161917682
C           -4.33276540783930       -3.42498431467951       -2.48434768489419
C           -5.68065771583035       -3.17560406457638       -2.19459502830296
C           -6.75263237249002       -3.86288645755460       -3.02838686232130
C           -6.59588915600941       -5.38501536325426       -2.89190353603305
C           -6.58681541909129       -3.45328911202827       -4.49969646877312
C           -8.17157544721878       -3.49006493948915       -2.58751662840773
C           -5.98409666881341       -2.30105911305916       -1.15970822255931
C           -4.96044879905439       -1.71405566833801       -0.43111506354738
C           -4.94375482699188       -0.77593573522447        0.66183899708549
C           -5.94631791601106       -0.15749789192923        1.39238239631976
C           -5.61304586512036        0.69743787162315        2.43522199469924
C           -6.66176345752004        1.41031676691794        3.27704255150134
C           -6.47628387770500        2.92807119167870        3.13106463125850
C           -6.48953805755515        1.00448954416569        4.74881203730427
C           -8.09295679952859        1.06414718390518        2.85411681582948
C           -4.25727329523518        0.89621793289989        2.72837757530392
C           -3.23862924536277        0.28487160183818        2.02385011878788
C           -3.58438046433442       -0.54562972690076        0.96745675021011
C           -0.71787126831963       -0.05273228709006        0.02462197860314
N           -1.36251896956667        1.10988346605881       -0.05433848507557
C           -0.71008597880936        2.27246490732549       -0.11306450953688
C           -1.50178672245152        3.46745729151888       -0.39147959740723
C           -1.00807861804904        4.49909410794500       -1.19224795787452
C           -1.78767995972615        5.60684769027590       -1.46082536364156
C           -3.07181305725441        5.70103849855528       -0.94607862333325
C           -3.57907644484050        4.66878967990986       -0.17276201439104
C           -2.80596754779259        3.55672613278532        0.09880505929314
C            0.68734374364462        2.28011672306860        0.06916081875756
C            1.46806280832350        3.48455016732270        0.33778483056064
C            0.96557252528996        4.51803112607225        1.13060878027463
C            1.73576895222907        5.63441599241031        1.39057773190337
C            3.01907071194480        5.73553904782620        0.87506614573028
C            3.53514051353460        4.70167220683690        0.10977302708309
C            2.77141799862403        3.58112975713129       -0.15330712547946
N            1.35108222537643        1.12356465939051        0.02033628982107
C            0.71789511843665       -0.04593610388374       -0.04833362241055
H            5.44727042108054        3.27121413647333       -3.50338183340607
H            6.56764186708002        3.27311525647823       -2.14203147631419
H            7.17174232885168        3.50151698798063       -3.78575969423822
H            8.28292249188351        0.06373191553192       -2.99410798995344
H            8.26111434601635        1.42981227314389       -1.86300212535197
H            8.77450754819618        1.66676838015967       -3.52923299261949
H            7.23647499341785        1.51376312059604       -5.39728885950426
H            6.57585327662240       -0.04185032859727       -4.88349686075649
H            5.50031865453092        1.32423398950967       -5.17154039956584
H            3.96117062864925        1.55749847827428       -3.58396187091694
H            2.19955903493983        0.44820958345268       -2.32720855243568
H            6.97435504925412       -0.29288836583243       -1.16067211791469
H            7.02440329966656       -1.97238139643525        0.89977377567874
H            8.37557374618555       -2.30239179236054        2.68865677252215
H            8.93830598566580       -3.88217677848532        3.22141537211994
H            8.38853912127942       -3.67287760057399        1.56270365244796
H            6.69875796945369       -2.24649940123684        4.59511528441700
H            5.66538931855066       -3.63991749856163        4.90374975166726
H            7.40862061907422       -3.77749028824533        5.11795148963397
H            6.74939663260227       -5.58738940198446        1.88338784960780
H            7.43288921682236       -5.77301834771297        3.50177219090229
H            5.69061702714235       -5.61954797491765        3.29207785170768
H            4.12590788364009       -4.00736462318939        3.31388769666532
H            2.30180338761509       -3.01071833980512        2.04926289318237
H            1.24474978326612       -3.40742540038231       -0.11474154904881
H           -1.20992939844026       -3.41865715428285        0.12487181238882
H           -2.26799558413552       -3.05632045131447       -2.04323959444155
H           -4.07975061228117       -4.08767386774437       -3.29764538631333
H           -7.36697509399794       -5.89289353326539       -3.46740661600414
H           -5.62716539773545       -5.71877985945778       -3.25321562189694
H           -6.69149417960039       -5.68086395817640       -1.84891272259896
H           -5.62151834219635       -3.76119974821315       -4.89193508227712
H           -6.66635056397061       -2.37255262172951       -4.60084756110799
H           -7.36332813739019       -3.91537479140062       -5.10572446239608
H           -8.34749554215881       -2.42225454519486       -2.69605180788905
H           -8.34891590482115       -3.77959675597227       -1.55423389655217
H           -8.89326446364134       -4.01378759741216       -3.21136569845561
H           -7.00283015038325       -2.06082974567198       -0.90638457293186
H           -6.97292869564116       -0.36033725821615        1.13801062650441
H           -5.48736388002325        3.24148636508593        3.45447233427093
H           -7.21465594028746        3.45428952875951        3.73257257813247
H           -6.60540460807938        3.22173212150894        2.09133459419021
H           -5.51856420722966        1.30341399041669        5.13368382678556
H           -6.58093738524118       -0.07480365024830        4.85487159162116
H           -7.25653251530880        1.47776638157083        5.35832008985593
H           -8.28725910251084       -0.00025859249388        2.96481799268540
H           -8.27881889565088        1.35735620431105        1.82340387949265
H           -8.79612561460706        1.60147965109885        3.48744139013071
H           -3.98177392634248        1.54911400933610        3.54287558577923
H           -2.20720856047251        0.44884705249252        2.29652036535374
H           -0.01485381564051        4.42345788521772       -1.61111836015661
H           -1.39353339189999        6.39921683750995       -2.08065856490416
H           -3.67646872402341        6.57121218286616       -1.15494280528861
H           -4.58338724543723        4.73188347848966        0.21963926697060
H           -3.19364433074477        2.74478054988311        0.69602698628543
H           -0.02695977208054        4.43711595483950        1.55011841896332
H            1.33491832896495        6.42820063347600        2.00427900938182
H            3.61634218573005        6.61237735315237        1.07721230861541
H            4.53889310231805        4.77028279845864       -0.28312021526365
H            3.16584875273098        2.76788483130818       -0.74431501726862

          :  Hamiltonian                  GFN2-xTB          :
         :: gradient norm              0.000040209061 Eh/a0 ::
         :: HOMO-LUMO gap              0.840554637647 eV    ::
         :: SCC energy              -173.936914965866 Eh    ::
         :: -> dispersion             -0.168493390786 Eh    ::
         :: -> Gsolv                  -0.066463844724 Eh    ::
         :: repulsion energy           2.996769073812 Eh    ::

    * Orbital Energies and Occupations

         #    Occupation            Energy/Eh            Energy/eV
      -------------------------------------------------------------
         1        2.0000           -0.6775119             -18.4360
       ...           ...                  ...                  ...
       149        2.0000           -0.4093177             -11.1381
       150        2.0000           -0.4065220             -11.0620
       151        2.0000           -0.4035899             -10.9822
       152        2.0000           -0.4001732             -10.8893
       153        2.0000           -0.3995212             -10.8715
       154        2.0000           -0.3931556             -10.6983
       155        2.0000           -0.3851502             -10.4805
       156        2.0000           -0.3775290             -10.2731
       157        2.0000           -0.3774340             -10.2705
       158        2.0000           -0.3661412              -9.9632
       159        1.9996           -0.3622494              -9.8573
       160        1.0004           -0.3473819              -9.4527
       161        1.0000           -0.2921807              -7.9506 (HOMO)
       162                         -0.2612909              -7.1101 (LUMO)
       163                         -0.2456489              -6.6844
       164                         -0.2445267              -6.6539
       165                         -0.2261337              -6.1534
       166                         -0.2246127              -6.1120
       167                         -0.2220394              -6.0420
       168                         -0.2220148              -6.0413
       169                         -0.2200172              -5.9870
       170                         -0.2149054              -5.8479
       171                         -0.2088534              -5.6832
       172                         -0.1972120              -5.3664
       ...                                ...                  ...
       316                          0.7386427              20.0995
      -------------------------------------------------------------
                  HL-Gap            0.0308898 Eh            0.8406 eV

     #   Z          covCN         q      C6AA      α(0)
     1   6 C        3.761    -0.104    22.540     6.768
     2   6 C        3.902     0.026    20.084     6.370
     3   6 C        3.761    -0.109    22.624     6.781
     4   6 C        3.761    -0.106    22.569     6.772
     5   6 C        2.972     0.004    27.931     8.669
     6   6 C        2.930    -0.040    28.984     8.829
     7   6 C        2.908    -0.041    29.014     8.832
     8   6 C        3.079     0.052    26.746     8.479
     9   6 C        3.066    -0.018    28.380     8.736
    10   6 C        2.917    -0.043    29.065     8.841
    11   6 C        3.065    -0.017    28.377     8.735
    12   6 C        2.917    -0.043    29.063     8.840
    13   6 C        2.972     0.003    27.952     8.672
    14   6 C        3.902     0.026    20.089     6.371
    15   6 C        3.761    -0.109    22.621     6.780
    16   6 C        3.761    -0.106    22.568     6.772
    17   6 C        3.761    -0.106    22.574     6.773
    18   6 C        2.930    -0.040    28.983     8.829
    19   6 C        2.908    -0.050    29.248     8.868
    20   6 C        3.080     0.043    26.942     8.510
    21   7 N        2.801    -0.024    21.715     6.921
    22   6 C        2.910     0.025    27.448     8.591
    23   6 C        2.915    -0.059    29.467     8.901
    24   6 C        2.915    -0.059    29.467     8.901
    25   6 C        2.910     0.025    27.448     8.591
    26   7 N        2.801    -0.024    21.714     6.921
    27   6 C        3.080     0.043    26.943     8.510
    28   6 C        2.908    -0.050    29.248     8.868
    29   6 C        2.930    -0.040    28.982     8.829
    30   6 C        2.972     0.003    27.952     8.672
    31   6 C        3.902     0.026    20.088     6.371
    32   6 C        3.761    -0.106    22.574     6.773
    33   6 C        3.761    -0.106    22.569     6.772
    34   6 C        3.761    -0.109    22.621     6.780
    35   6 C        2.917    -0.043    29.063     8.840
    36   6 C        3.065    -0.017    28.377     8.735
    37   6 C        3.066    -0.018    28.380     8.736
    38   6 C        2.917    -0.043    29.065     8.841
    39   6 C        2.972     0.004    27.931     8.669
    40   6 C        3.902     0.026    20.084     6.370
    41   6 C        3.761    -0.104    22.540     6.768
    42   6 C        3.761    -0.106    22.569     6.772
    43   6 C        3.761    -0.109    22.624     6.780
    44   6 C        2.930    -0.040    28.984     8.829
    45   6 C        2.908    -0.041    29.015     8.832
    46   6 C        3.079     0.052    26.746     8.479
    47   6 C        2.940     0.084    26.124     8.383
    48   7 N        1.853    -0.259    27.582     7.784
    49   6 C        2.932     0.074    26.355     8.419
    50   6 C        2.979     0.004    27.931     8.669
    51   6 C        2.922    -0.035    28.871     8.811
    52   6 C        2.918    -0.030    28.758     8.794
    53   6 C        2.919    -0.033    28.816     8.803
    54   6 C        2.918    -0.030    28.747     8.792
    55   6 C        2.925    -0.031    28.779     8.797
    56   6 C        2.932     0.074    26.354     8.419
    57   6 C        2.979     0.004    27.931     8.669
    58   6 C        2.922    -0.035    28.871     8.811
    59   6 C        2.918    -0.030    28.758     8.794
    60   6 C        2.919    -0.033    28.815     8.803
    61   6 C        2.918    -0.030    28.747     8.792
    62   6 C        2.925    -0.031    28.779     8.797
    63   7 N        1.853    -0.259    27.581     7.784
    64   6 C        2.940     0.084    26.123     8.383
    65   1 H        0.925     0.036     2.509     2.477
    66   1 H        0.925     0.033     2.540     2.492
    67   1 H        0.925     0.040     2.444     2.445
    68   1 H        0.925     0.038     2.481     2.463
    69   1 H        0.925     0.038     2.480     2.463
    70   1 H        0.925     0.039     2.459     2.452
    71   1 H        0.925     0.041     2.441     2.443
    72   1 H        0.925     0.034     2.536     2.490
    73   1 H        0.925     0.036     2.503     2.474
    74   1 H        0.926     0.033     2.542     2.493
    75   1 H        0.926     0.021     2.715     2.577
    76   1 H        0.926     0.047     2.357     2.401
    77   1 H        0.926     0.046     2.366     2.405
    78   1 H        0.925     0.037     2.488     2.466
    79   1 H        0.925     0.039     2.464     2.455
    80   1 H        0.925     0.038     2.482     2.463
    81   1 H        0.925     0.033     2.544     2.494
    82   1 H        0.925     0.036     2.498     2.472
    83   1 H        0.925     0.040     2.444     2.445
    84   1 H        0.925     0.034     2.533     2.489
    85   1 H        0.925     0.040     2.445     2.445
    86   1 H        0.925     0.037     2.492     2.469
    87   1 H        0.926     0.036     2.502     2.474
    88   1 H        0.926     0.028     2.609     2.526
    89   1 H        0.926     0.043     2.404     2.425
    90   1 H        0.926     0.043     2.404     2.425
    91   1 H        0.926     0.028     2.609     2.526
    92   1 H        0.926     0.036     2.502     2.474
    93   1 H        0.925     0.040     2.445     2.445
    94   1 H        0.925     0.037     2.492     2.469
    95   1 H        0.925     0.034     2.533     2.489
    96   1 H        0.925     0.036     2.498     2.472
    97   1 H        0.925     0.033     2.544     2.494
    98   1 H        0.925     0.040     2.444     2.445
    99   1 H        0.925     0.037     2.488     2.467
   100   1 H        0.925     0.038     2.482     2.464
   101   1 H        0.925     0.039     2.464     2.455
   102   1 H        0.926     0.046     2.366     2.405
   103   1 H        0.926     0.047     2.357     2.401
   104   1 H        0.925     0.036     2.509     2.477
   105   1 H        0.925     0.040     2.444     2.445
   106   1 H        0.925     0.033     2.540     2.492
   107   1 H        0.925     0.036     2.503     2.474
   108   1 H        0.925     0.034     2.536     2.490
   109   1 H        0.925     0.041     2.441     2.443
   110   1 H        0.925     0.038     2.481     2.463
   111   1 H        0.925     0.038     2.480     2.463
   112   1 H        0.925     0.039     2.459     2.452
   113   1 H        0.926     0.033     2.542     2.493
   114   1 H        0.926     0.021     2.714     2.576
   115   1 H        0.926     0.023     2.686     2.563
   116   1 H        0.926     0.034     2.535     2.490
   117   1 H        0.926     0.036     2.504     2.475
   118   1 H        0.926     0.036     2.500     2.472
   119   1 H        0.926     0.038     2.470     2.458
   120   1 H        0.926     0.023     2.686     2.563
   121   1 H        0.926     0.034     2.535     2.490
   122   1 H        0.926     0.036     2.504     2.475
   123   1 H        0.926     0.036     2.500     2.472
   124   1 H        0.926     0.038     2.470     2.458

molecular dipole:
                 x           y           z       tot (Debye)
 q only:        0.004      -0.631       0.003
   full:        0.004      -0.622       0.003       1.582

 projected vibrational frequencies (cm⁻¹)
eigval :       -0.00    -0.00    -0.00     0.00     0.00     0.00
eigval :       10.28    12.07    13.87    17.14    20.74    22.46
eigval :       34.08    34.65    37.93    38.41    41.88    45.95
eigval :       50.01    55.36    60.54    62.70    68.59    72.42
eigval :       75.03    82.79    86.67    93.34   111.02   114.39
eigval :      133.79   141.85   154.41   162.41   165.08   165.83
eigval :      173.79   174.98   188.04   192.20   195.48   198.03
eigval :      204.97   206.72   218.87   224.35   225.71   228.81
eigval :      229.17   231.87   233.38   234.19   258.44   259.53
eigval :      268.93   269.14   277.10   278.94   293.08   293.21
eigval :      319.17   319.89   323.74   325.13   327.08   328.84
eigval :      329.28   338.45   342.70   343.93   350.03   358.44
eigval :      359.06   372.06   373.32   374.09   380.16   384.34
eigval :      385.39   398.30   403.51   407.26   408.21   412.85
eigval :      433.20   441.44   442.00   443.34   444.17   454.00
eigval :      459.53   464.39   464.83   466.32   478.75   480.57
eigval :      507.60   513.10   520.84   528.98   536.99   547.92
eigval :      553.82   573.18   574.95   579.96   586.25   588.82
eigval :      589.12   589.27   593.97   604.10   624.15   634.09
eigval :      634.89   641.40   641.46   642.33   664.51   668.43
eigval :      672.74   681.14   690.24   690.31   703.01   706.95
eigval :      707.56   716.85   717.17   719.44   738.87   758.63
eigval :      758.84   810.86   820.19   821.20   823.33   827.19
eigval :      828.05   829.38   858.10   858.20   866.02   870.78
eigval :      871.62   872.78   872.86   873.94   874.16   875.33
eigval :      897.19   897.69   900.75   913.42   913.61   916.42
eigval :      917.79   918.85   923.18   924.44   926.88   927.28
eigval :      927.48   929.60   932.97   933.19   958.74   959.18
eigval :      960.07   960.48   960.71   961.11   962.82   963.03
eigval :      964.42   964.43   966.42   966.66   972.12   999.04
eigval :     1030.19  1030.33  1034.08  1034.31  1034.57  1035.04
eigval :     1035.46  1036.05  1040.66  1041.35  1046.48  1063.45
eigval :     1080.65  1081.61  1111.30  1117.73  1118.38  1119.68
eigval :     1127.94  1128.73  1129.60  1152.19  1153.51  1170.19
eigval :     1170.58  1177.38  1177.62  1189.63  1194.17  1202.52
eigval :     1206.42  1224.72  1224.82  1224.95  1225.11  1225.62
eigval :     1228.24  1229.84  1229.94  1230.92  1231.36  1233.25
eigval :     1233.46  1239.13  1247.04  1249.25  1255.32  1263.43
eigval :     1279.82  1281.44  1282.21  1283.09  1283.73  1295.19
eigval :     1296.91  1297.27  1302.58  1317.21  1318.51  1322.39
eigval :     1330.62  1344.74  1345.75  1345.90  1349.37  1361.50
eigval :     1383.93  1391.84  1399.55  1399.98  1402.26  1402.70
eigval :     1403.07  1403.30  1404.02  1404.09  1408.59  1409.35
eigval :     1422.24  1423.35  1426.64  1427.16  1427.85  1428.21
eigval :     1429.92  1436.48  1441.88  1449.05  1467.45  1467.76
eigval :     1469.35  1471.90  1477.22  1477.30  1483.29  1488.69
eigval :     1489.02  1489.45  1489.80  1491.98  1492.29  1492.45
eigval :     1492.71  1498.36  1498.80  1499.02  1499.45  1501.73
eigval :     1502.11  1502.83  1503.19  1511.31  1511.47  1511.90
eigval :     1512.03  1516.68  1516.99  1518.70  1518.90  1525.48
eigval :     1563.38  1563.51  1569.63  1569.71  1576.73  1577.07
eigval :     1586.14  1586.31  1587.62  1587.85  1600.49  1603.86
eigval :     3019.69  3020.22  3021.07  3021.29  3021.53  3021.86
eigval :     3022.28  3022.36  3024.56  3024.67  3024.97  3025.06
eigval :     3026.33  3026.37  3026.84  3026.91  3028.34  3028.55
eigval :     3028.96  3029.00  3031.53  3031.59  3032.47  3032.67
eigval :     3036.12  3036.18  3037.33  3037.58  3043.05  3043.44
eigval :     3045.71  3045.92  3048.89  3049.03  3049.24  3049.64
eigval :     3068.88  3069.64  3074.14  3074.47  3079.20  3079.26
eigval :     3079.68  3080.21  3080.69  3080.83  3086.82  3087.54
eigval :     3089.96  3092.52  3092.80  3093.45  3093.91  3094.17
eigval :     3094.34  3101.57  3118.88  3119.03  3121.28  3121.62

   temp. (K)  partition function   enthalpy   heat capacity  entropy
                                   cal/mol     cal/K/mol   cal/K/mol   J/K/mol
 298.15  VIB  0.315E+28            35868.059    221.060    222.437
         ROT  0.101E+09              888.752      2.981     39.605
         INT  0.317E+36            36756.811    224.041    262.042
         TR   0.234E+29             1481.254      4.968     46.031
         TOT                       38238.0649   229.0095   308.0725  1288.9753

       T/K    H(0)-H(T)+PV         H(T)/Eh          T*S/Eh         G(T)/Eh
   ------------------------------------------------------------------------
    298.15    0.609362E-01    0.108194E+01    0.146375E+00    0.935563E+00
   ------------------------------------------------------------------------

         :::::::::::::::::::::::::::::::::::::::::::::::::::::
         ::                  THERMODYNAMIC                  ::
         :::::::::::::::::::::::::::::::::::::::::::::::::::::
         :: total free energy        -170.004582738512 Eh   ::
         ::.................................................::
         :: total energy             -170.940145891326 Eh   ::
         :: zero point energy           1.021002095426 Eh   ::
         :: G(RRHO) w/o ZPVE           -0.085438942612 Eh   ::
         :: G(RRHO) contrib.            0.935563152814 Eh   ::
         :::::::::::::::::::::::::::::::::::::::::::::::::::::

           -------------------------------------------------
          | TOTAL ENERGY             -170.940145891326 Eh   |
          | TOTAL ENTHALPY           -169.858207560783 Eh   |
          | TOTAL FREE ENERGY        -170.004582738512 Eh   |
          | GRADIENT NORM               0.000039784757 Eh/α |
          | HOMO-LUMO GAP               0.840554025804 eV   |
           -------------------------------------------------

 * finished run on 2025/07/21 at 04:15:42.341
