   * xtb version 6.7.1 (edcfbbe) compiled by 'albert@albert-system' on 2024-07-22

   ID    Z sym.   atoms
    1    6 C      1-20, 22-25, 27-47, 49-62, 64
    2    7 N      21, 26, 48, 63
    3    1 H      65-124

          program call               : xtb data2507/toluene/BDQ-tBuCz/BDQ-tBuCz_toluene_S0_finalOpt.xtbopt.xyz --gfn 2 --uhf 2 --gbsa toluene --ohess vtight --parallel 40 --molden --ceasefiles --namespace data2507/toluene/BDQ-tBuCz/BDQ-tBuCz_toluene_T1_preOpt
      * Solvation model:               GBSA
        Solvent                        toluene
        Solvent mass                       9.2140E+01 g/mol
          :  Hamiltonian                  GFN2-xTB          :
 * total energy  :  -170.9359121 Eh     change       -0.1705266E-07 Eh
 * total energy  :  -170.9388477 Eh     change       -0.2935567E-02 Eh
 * total energy  :  -170.9396632 Eh     change       -0.8155721E-03 Eh
 * total energy  :  -170.9397745 Eh     change       -0.1113041E-03 Eh
 * total energy  :  -170.9398349 Eh     change       -0.6040524E-04 Eh
 * total energy  :  -170.9398552 Eh     change       -0.2023025E-04 Eh
 * total energy  :  -170.9398778 Eh     change       -0.2267452E-04 Eh
 * total energy  :  -170.9399014 Eh     change       -0.2355624E-04 Eh
 * total energy  :  -170.9399272 Eh     change       -0.2581297E-04 Eh
 * total energy  :  -170.9399516 Eh     change       -0.2437166E-04 Eh
 * total energy  :  -170.9401125 Eh     change       -0.4633026E-05 Eh
 * total energy  :  -170.9401172 Eh     change       -0.4709977E-05 Eh
 * total energy  :  -170.9401230 Eh     change       -0.5848688E-05 Eh
 * total energy  :  -170.9401289 Eh     change       -0.5900589E-05 Eh
 * total energy  :  -170.9401324 Eh     change       -0.3493147E-05 Eh
 * total energy  :  -170.9401339 Eh     change       -0.1442328E-05 Eh
 * total energy  :  -170.9401349 Eh     change       -0.1037742E-05 Eh
 * total energy  :  -170.9401359 Eh     change       -0.1010344E-05 Eh
 * total energy  :  -170.9401359 Eh     change       -0.7445550E-08 Eh
   *** GEOMETRY OPTIMIZATION CONVERGED AFTER 44 ITERATIONS ***

 final structure:
================
124
 xtb: 6.7.1 (edcfbbe)
C            6.47629189666397        2.95145071497313       -3.15284780466239
C            6.65751083475825        1.43379321152761       -3.30493814048696
C            8.08965672112000        1.08268472410808       -2.88931450066476
C            6.47813696584470        1.03352615376855       -4.77734798781633
C            5.61074883517973        0.72063806484320       -2.46092107236369
C            4.25404336795469        0.92254909418702       -2.74750161905806
C            3.23730318449349        0.31130905216068       -2.03997018974811
C            3.58595931109662       -0.52205754758770       -0.98676093356353
C            4.94636837041895       -0.75579304016543       -0.68833297531552
C            5.94687750107568       -0.13770385938468       -1.42185969904842
C            4.96684274981340       -1.69678487930407        0.40195262156955
C            5.99332133159430       -2.28896151695477        1.12230278536661
C            5.69382626698061       -3.16600275044682        2.15618092097760
C            6.76901237730302       -3.85991732715338        2.98025184671443
C            8.18618701490516       -3.49402392967677        2.52805077551492
C            6.61732408102265       -3.45114146147267        4.45328681865083
C            6.60345035480562       -5.38108582812319        2.84331572470098
C            4.34701506324016       -3.41124968154658        2.45433825704577
C            3.30583274688393       -2.83519874738541        1.75324728910512
C            3.61872192682116       -1.98484146481451        0.70363830895552
N            2.79268786156943       -1.28036265539285       -0.15305228015606
C            1.39930839958981       -1.26422261789159       -0.11256689986002
C            0.67995556225701       -2.46794374605281       -0.06364970315039
C           -0.68741106254073       -2.46608520031295        0.05607004079391
C           -1.40288284805325       -1.26033914908610        0.11193544733053
N           -2.79629151790667       -1.27220094565640        0.15247182427755
C           -3.62471469236407       -1.96981154831640       -0.70754310373509
C           -3.31480563017678       -2.81577279788745       -1.76158860860399
C           -4.35800388105643       -3.38559078038771       -2.46479327183052
C           -5.70396379867941       -3.13823562759850       -2.16453513194173
C           -6.78156531628241       -3.82596683559518       -2.99063370726173
C           -6.61979450019645       -5.34808195228196       -2.85974589881811
C           -6.62996626993388       -3.41183647302775       -4.46217554954791
C           -8.19742742188521       -3.45819870326012       -2.53586138848186
C           -6.00040904997625       -2.26512471703117       -1.12646447633697
C           -4.97186516354991       -1.67924121363370       -0.40392479912150
C           -4.94821623111860       -0.74355658221877        0.69084570915880
C           -5.94665566164625       -0.12553236072671        1.42723391453077
C           -5.60764321537334        0.72692609436967        2.47019792275765
C           -6.65195016167793        1.44032961847818        3.31702086126834
C           -6.46537538341300        2.95792644186553        3.17083585774311
C           -6.47413083418138        1.03379204846569        4.78789247229425
C           -8.08525409880501        1.09581157883218        2.89988751994586
C           -4.25028900547574        0.92266526144546        2.75790974957061
C           -3.23559645521822        0.31123636030428        2.04759449401615
C           -3.58702163729386       -0.51567568567777        0.99022016226580
C           -0.71757105868040       -0.03247125373812        0.04293730913814
N           -1.35487528958774        1.13498394263255       -0.02372500835348
C           -0.69518471069218        2.29378497753137       -0.07633274969508
C           -1.48132078378741        3.49611838538827       -0.33885055769608
C           -0.98741096579558        4.53172195071886       -1.13426855534740
C           -1.76190685939007        5.64692659040302       -1.38639191090487
C           -3.04112020148309        5.74481801602873       -0.86026107758999
C           -3.54902919745496        4.70864449139773       -0.09267055820344
C           -2.78100842368501        3.58920972220215        0.16247880201009
C            0.70320336413523        2.29089435832306        0.09778019284335
C            1.49304776048318        3.48893588212610        0.36879293149497
C            1.00240907679705        4.51988091415477        1.17226096572900
C            1.78016096683164        5.63091944323407        1.43253327600267
C            3.05943721734754        5.72912274939202        0.90659537023394
C            3.56398174598071        4.69749833458493        0.13070496902999
C            2.79274098352700        3.58212741612934       -0.13247434815559
N            1.35915814314548        1.13037890207052        0.03734978150296
C            0.71802972766632       -0.03455830542766       -0.03636924442740
H            5.48738371463018        3.26840600684792       -3.47280240682327
H            6.60866449028895        3.24092419071031       -2.11233299069950
H            7.21452701453136        3.47803797539459       -3.75419983907557
H            8.28061928109990        0.01805933093505       -3.00369612592708
H            8.28091260876495        1.37266887099898       -1.85867567786405
H            8.79145271780453        1.61980570607852       -3.52433316962798
H            7.24336166136610        1.50755386592452       -5.38850232648206
H            6.56707947516577       -0.04554923181846       -4.88763811868534
H            5.50606712277765        1.33561519353866       -5.15692251036343
H            3.97606749586189        1.57800285081653       -3.55912598802156
H            2.20509829225523        0.47771934449750       -2.30805434488130
H            6.97413432356618       -0.34341116649435       -1.17250087370075
H            7.01114007526752       -2.05094173475663        0.86328722298734
H            8.36923959428742       -2.42752541279901        2.63764266815020
H            8.91017617054684       -4.02340044810918        3.14440007902708
H            8.35286997605752       -3.78203819986245        1.49257408632118
H            6.70313032322574       -2.37092834898312        4.55488724755977
H            5.65364597278984       -3.75460581080480        4.85292370146215
H            7.39644715173433       -3.91775331194715        5.05245977987359
H            6.68840967459851       -5.67607771027487        1.79916071670429
H            7.37707560574749       -5.89350069254004        3.41134864790545
H            5.63636116438323       -5.71062182164903        3.21277032206034
H            4.09702097282879       -4.07479097341665        3.26788032156657
H            2.28078098742866       -3.03494002630417        2.02773579708662
H            1.22131228303588       -3.39888869837365       -0.13193477156910
H           -1.23176134139489       -3.39565733942120        0.11903047430525
H           -2.29049718378583       -3.01697297282419       -2.03775721221128
H           -4.11034567316395       -4.04590369114626       -3.28166636450776
H           -7.39511552367972       -5.85632653795758       -3.42920549884932
H           -5.65378969771184       -5.67855859720005       -3.23118000994978
H           -6.70474274143319       -5.64689460867926       -1.81667234907079
H           -5.66748822508516       -3.71645200163821       -4.86381919122191
H           -6.71281687956501       -2.33099689901798       -4.55947722653823
H           -7.41089871567604       -3.87394171260751       -5.06248991242991
H           -8.37770276928538       -2.39078189989596       -2.64097168858723
H           -8.36408040910738       -3.74998562587053       -1.50143627287416
H           -8.92331784189335       -3.98313233840421       -3.15377711530095
H           -7.01738978971895       -2.02546781590762       -0.86568308830364
H           -6.97459745652924       -0.32662013494316        1.17693925423564
H           -5.47561862014314        3.27025459891269        3.49273883270651
H           -7.20227356957427        3.48477552801709        3.77359991488391
H           -6.59594323270440        3.25178653878744        2.13132691211902
H           -5.50099405104141        1.33086333922395        5.16870072155924
H           -6.56704024021124       -0.04535764500575        4.89405344775226
H           -7.23766009968188        1.50830679271405        5.40078712539873
H           -8.27981615177403        0.03137373115408        3.00986496988684
H           -8.27549040157880        1.39071520200434        1.87045321189640
H           -8.78523960466458        1.63266575850491        3.53711280355851
H           -3.97014604476238        1.57330794642371        3.57264816089942
H           -2.20288412603779        0.47273526313750        2.31667044784292
H            0.00193382274905        4.45363634040051       -1.56174094019931
H           -1.36760503836301        6.44241980633146       -2.00210417290674
H           -3.64166535110554        6.62085452171518       -1.05606597437569
H           -4.54973121312370        4.77455358945011        0.30835516513715
H           -3.16927964950845        2.77430367623639        0.75523225154523
H            0.01306627059481        4.44124818210182        1.59966440207552
H            1.38852897205252        6.42269167629936        2.05470414229415
H            3.66255064317397        6.60192701630189        1.10879441005374
H            4.56461121437793        4.76373061497668       -0.27045090909060
H            3.17842532650644        2.77069209249368       -0.73165218186905

          :  Hamiltonian                  GFN2-xTB          :
         :: gradient norm              0.000060648144 Eh/a0 ::
         :: HOMO-LUMO gap              0.841664094614 eV    ::
         :: SCC energy              -173.936858099024 Eh    ::
         :: -> dispersion             -0.168516781006 Eh    ::
         :: -> Gsolv                  -0.066446407281 Eh    ::
         :: repulsion energy           2.996722192175 Eh    ::

    * Orbital Energies and Occupations

         #    Occupation            Energy/Eh            Energy/eV
      -------------------------------------------------------------
         1        2.0000           -0.6775155             -18.4361
       ...           ...                  ...                  ...
       149        2.0000           -0.4093072             -11.1378
       150        2.0000           -0.4064999             -11.0614
       151        2.0000           -0.4035488             -10.9811
       152        2.0000           -0.4001647             -10.8890
       153        2.0000           -0.3995092             -10.8712
       154        2.0000           -0.3931758             -10.6989
       155        2.0000           -0.3851446             -10.4803
       156        2.0000           -0.3775218             -10.2729
       157        2.0000           -0.3774303             -10.2704
       158        2.0000           -0.3661796              -9.9643
       159        1.9996           -0.3621603              -9.8549
       160        1.0004           -0.3473257              -9.4512
       161        1.0000           -0.2921475              -7.9497 (HOMO)
       162                         -0.2612169              -7.1081 (LUMO)
       163                         -0.2456522              -6.6845
       164                         -0.2445226              -6.6538
       165                         -0.2261210              -6.1531
       166                         -0.2246376              -6.1127
       167                         -0.2220455              -6.0422
       168                         -0.2220175              -6.0414
       169                         -0.2199715              -5.9857
       170                         -0.2148903              -5.8475
       171                         -0.2088837              -5.6840
       172                         -0.1972333              -5.3670
       ...                                ...                  ...
       316                          0.7386693              20.1002
      -------------------------------------------------------------
                  HL-Gap            0.0309306 Eh            0.8417 eV

     #   Z          covCN         q      C6AA      α(0)
     1   6 C        3.761    -0.104    22.540     6.768
     2   6 C        3.902     0.026    20.084     6.370
     3   6 C        3.761    -0.109    22.624     6.780
     4   6 C        3.761    -0.106    22.569     6.772
     5   6 C        2.972     0.004    27.932     8.669
     6   6 C        2.930    -0.040    28.984     8.829
     7   6 C        2.908    -0.041    29.015     8.832
     8   6 C        3.079     0.052    26.749     8.479
     9   6 C        3.066    -0.018    28.380     8.736
    10   6 C        2.917    -0.043    29.065     8.841
    11   6 C        3.065    -0.017    28.377     8.735
    12   6 C        2.917    -0.043    29.063     8.840
    13   6 C        2.972     0.003    27.952     8.672
    14   6 C        3.902     0.026    20.089     6.371
    15   6 C        3.761    -0.109    22.621     6.780
    16   6 C        3.761    -0.106    22.568     6.772
    17   6 C        3.761    -0.106    22.574     6.773
    18   6 C        2.930    -0.040    28.983     8.829
    19   6 C        2.908    -0.050    29.248     8.868
    20   6 C        3.080     0.043    26.944     8.510
    21   7 N        2.801    -0.024    21.712     6.920
    22   6 C        2.910     0.025    27.448     8.591
    23   6 C        2.915    -0.059    29.467     8.902
    24   6 C        2.915    -0.059    29.468     8.902
    25   6 C        2.910     0.025    27.448     8.591
    26   7 N        2.801    -0.024    21.711     6.920
    27   6 C        3.080     0.043    26.944     8.510
    28   6 C        2.908    -0.050    29.248     8.868
    29   6 C        2.930    -0.040    28.983     8.829
    30   6 C        2.972     0.003    27.952     8.672
    31   6 C        3.902     0.026    20.089     6.371
    32   6 C        3.761    -0.106    22.574     6.773
    33   6 C        3.761    -0.106    22.568     6.772
    34   6 C        3.761    -0.109    22.621     6.780
    35   6 C        2.917    -0.043    29.063     8.840
    36   6 C        3.065    -0.017    28.377     8.735
    37   6 C        3.066    -0.018    28.380     8.736
    38   6 C        2.917    -0.043    29.065     8.841
    39   6 C        2.972     0.004    27.931     8.669
    40   6 C        3.902     0.026    20.084     6.370
    41   6 C        3.761    -0.104    22.540     6.768
    42   6 C        3.761    -0.106    22.569     6.772
    43   6 C        3.761    -0.109    22.624     6.780
    44   6 C        2.930    -0.040    28.983     8.829
    45   6 C        2.908    -0.041    29.014     8.832
    46   6 C        3.079     0.052    26.749     8.479
    47   6 C        2.940     0.084    26.125     8.383
    48   7 N        1.853    -0.259    27.583     7.784
    49   6 C        2.932     0.074    26.356     8.419
    50   6 C        2.979     0.004    27.931     8.669
    51   6 C        2.922    -0.035    28.871     8.811
    52   6 C        2.918    -0.030    28.759     8.794
    53   6 C        2.919    -0.033    28.816     8.803
    54   6 C        2.918    -0.030    28.748     8.792
    55   6 C        2.925    -0.031    28.781     8.798
    56   6 C        2.932     0.074    26.355     8.419
    57   6 C        2.979     0.004    27.931     8.669
    58   6 C        2.922    -0.035    28.870     8.811
    59   6 C        2.918    -0.030    28.759     8.794
    60   6 C        2.919    -0.033    28.816     8.803
    61   6 C        2.918    -0.030    28.748     8.792
    62   6 C        2.925    -0.031    28.780     8.798
    63   7 N        1.853    -0.259    27.583     7.784
    64   6 C        2.940     0.084    26.125     8.383
    65   1 H        0.925     0.036     2.508     2.477
    66   1 H        0.925     0.033     2.540     2.492
    67   1 H        0.925     0.040     2.445     2.445
    68   1 H        0.925     0.038     2.481     2.463
    69   1 H        0.925     0.038     2.480     2.463
    70   1 H        0.925     0.039     2.459     2.452
    71   1 H        0.925     0.041     2.441     2.443
    72   1 H        0.925     0.034     2.536     2.490
    73   1 H        0.925     0.036     2.503     2.474
    74   1 H        0.926     0.033     2.542     2.493
    75   1 H        0.926     0.021     2.711     2.575
    76   1 H        0.926     0.047     2.357     2.401
    77   1 H        0.926     0.046     2.366     2.405
    78   1 H        0.925     0.037     2.488     2.466
    79   1 H        0.925     0.039     2.464     2.455
    80   1 H        0.925     0.038     2.482     2.464
    81   1 H        0.925     0.033     2.544     2.494
    82   1 H        0.925     0.036     2.498     2.472
    83   1 H        0.925     0.040     2.444     2.445
    84   1 H        0.925     0.034     2.533     2.489
    85   1 H        0.925     0.040     2.445     2.445
    86   1 H        0.925     0.037     2.492     2.469
    87   1 H        0.926     0.036     2.502     2.474
    88   1 H        0.926     0.028     2.608     2.526
    89   1 H        0.926     0.043     2.404     2.424
    90   1 H        0.926     0.043     2.404     2.424
    91   1 H        0.926     0.028     2.608     2.525
    92   1 H        0.926     0.036     2.502     2.474
    93   1 H        0.925     0.040     2.445     2.445
    94   1 H        0.925     0.037     2.492     2.469
    95   1 H        0.925     0.034     2.533     2.489
    96   1 H        0.925     0.036     2.498     2.472
    97   1 H        0.925     0.033     2.544     2.494
    98   1 H        0.925     0.040     2.444     2.445
    99   1 H        0.925     0.037     2.488     2.466
   100   1 H        0.925     0.038     2.482     2.464
   101   1 H        0.925     0.039     2.464     2.455
   102   1 H        0.926     0.046     2.366     2.405
   103   1 H        0.926     0.047     2.357     2.401
   104   1 H        0.925     0.036     2.508     2.477
   105   1 H        0.925     0.040     2.444     2.445
   106   1 H        0.925     0.033     2.540     2.492
   107   1 H        0.925     0.036     2.503     2.474
   108   1 H        0.925     0.034     2.536     2.490
   109   1 H        0.925     0.041     2.441     2.443
   110   1 H        0.925     0.038     2.481     2.463
   111   1 H        0.925     0.038     2.480     2.463
   112   1 H        0.925     0.039     2.459     2.452
   113   1 H        0.926     0.033     2.542     2.493
   114   1 H        0.926     0.021     2.711     2.575
   115   1 H        0.926     0.023     2.687     2.563
   116   1 H        0.926     0.034     2.536     2.490
   117   1 H        0.926     0.036     2.505     2.475
   118   1 H        0.926     0.036     2.499     2.472
   119   1 H        0.926     0.038     2.469     2.457
   120   1 H        0.926     0.023     2.687     2.563
   121   1 H        0.926     0.034     2.536     2.490
   122   1 H        0.926     0.036     2.505     2.475
   123   1 H        0.926     0.036     2.499     2.472
   124   1 H        0.926     0.038     2.470     2.457

molecular dipole:
                 x           y           z       tot (Debye)
 q only:       -0.002      -0.648      -0.001
   full:       -0.002      -0.636      -0.001       1.618

 projected vibrational frequencies (cm⁻¹)
eigval :       -0.00    -0.00     0.00     0.00     0.00     0.00
eigval :       10.03    11.91    15.04    17.31    21.89    22.20
eigval :       34.36    35.03    38.22    38.51    42.06    46.29
eigval :       51.49    54.76    60.28    63.42    68.42    72.22
eigval :       75.90    83.21    87.03    93.37   110.69   114.36
eigval :      133.19   142.18   154.43   162.50   163.68   164.63
eigval :      173.98   175.10   187.32   192.39   194.74   197.80
eigval :      206.15   206.67   218.94   223.72   224.35   228.39
eigval :      228.57   231.77   233.36   234.33   259.12   259.61
eigval :      268.97   269.15   277.15   278.69   293.07   293.23
eigval :      319.38   320.78   324.30   325.60   327.13   329.14
eigval :      329.38   338.94   342.78   344.28   350.02   358.35
eigval :      359.23   372.27   373.53   374.55   380.36   384.36
eigval :      385.56   398.41   403.70   408.07   408.24   412.78
eigval :      433.43   441.48   441.98   444.14   444.21   454.15
eigval :      459.14   464.77   464.91   466.50   478.65   480.64
eigval :      507.90   513.73   521.42   529.66   537.30   548.04
eigval :      553.93   573.41   575.01   579.68   586.26   588.81
eigval :      589.13   589.30   594.26   603.99   624.12   634.06
eigval :      635.33   641.42   641.45   642.45   664.41   668.22
eigval :      672.61   681.33   690.20   690.28   702.55   707.16
eigval :      707.73   716.95   717.23   719.52   739.30   758.65
eigval :      758.86   811.19   821.02   821.34   824.21   827.25
eigval :      828.10   830.26   858.13   858.16   869.95   870.62
eigval :      872.33   872.76   872.86   873.69   874.46   875.22
eigval :      896.93   898.01   900.32   913.52   913.58   916.68
eigval :      917.86   919.25   923.29   924.47   926.69   927.27
eigval :      927.52   929.15   933.28   933.38   959.13   959.15
eigval :      960.29   960.33   961.75   962.15   962.68   962.81
eigval :      965.48   966.27   966.34   966.76   972.20   999.07
eigval :     1030.46  1030.56  1034.51  1034.85  1035.27  1035.69
eigval :     1035.83  1035.93  1040.89  1041.24  1046.51  1063.61
eigval :     1080.63  1081.60  1111.03  1117.98  1118.50  1120.06
eigval :     1128.38  1128.85  1129.90  1152.35  1153.61  1170.21
eigval :     1170.55  1177.17  1177.46  1189.45  1194.03  1202.50
eigval :     1206.69  1224.74  1224.79  1225.10  1225.13  1225.84
eigval :     1228.33  1229.94  1229.98  1230.87  1231.30  1233.07
eigval :     1233.47  1239.54  1247.71  1249.12  1256.09  1263.79
eigval :     1279.29  1281.38  1281.53  1283.69  1283.95  1295.13
eigval :     1296.62  1297.32  1302.69  1317.19  1318.59  1322.34
eigval :     1330.66  1344.74  1345.77  1345.90  1349.38  1361.48
eigval :     1383.95  1391.74  1399.75  1400.09  1402.42  1402.86
eigval :     1403.76  1403.84  1404.11  1404.70  1408.55  1409.26
eigval :     1422.40  1423.69  1427.64  1427.83  1428.04  1428.19
eigval :     1429.86  1436.41  1441.90  1449.22  1467.48  1467.89
eigval :     1469.39  1471.93  1477.28  1477.37  1482.94  1489.13
eigval :     1489.27  1489.66  1489.74  1491.78  1491.82  1492.40
eigval :     1492.62  1498.19  1498.28  1499.05  1499.53  1502.26
eigval :     1502.61  1503.01  1503.16  1511.35  1511.46  1511.98
eigval :     1512.07  1516.74  1516.84  1518.94  1519.07  1525.81
eigval :     1563.34  1563.49  1569.66  1569.73  1576.60  1577.01
eigval :     1586.15  1586.31  1587.67  1587.88  1600.58  1603.98
eigval :     3020.15  3020.28  3021.32  3021.50  3021.87  3022.02
eigval :     3022.31  3022.33  3024.67  3024.79  3025.09  3025.13
eigval :     3026.37  3026.48  3026.73  3026.84  3028.55  3028.67
eigval :     3028.93  3029.00  3031.61  3031.68  3032.57  3032.58
eigval :     3036.18  3036.28  3037.48  3037.53  3043.31  3043.36
eigval :     3045.71  3045.81  3049.08  3049.11  3049.39  3049.69
eigval :     3068.63  3069.31  3074.06  3074.35  3079.42  3079.47
eigval :     3079.59  3080.13  3080.82  3080.93  3086.86  3087.54
eigval :     3090.23  3092.81  3092.93  3093.38  3093.91  3094.38
eigval :     3094.51  3101.87  3119.03  3119.04  3121.50  3121.72

   temp. (K)  partition function   enthalpy   heat capacity  entropy
                                   cal/mol     cal/K/mol   cal/K/mol   J/K/mol
 298.15  VIB  0.270E+28            35857.068    221.084    222.329
         ROT  0.101E+09              888.752      2.981     39.609
         INT  0.273E+36            36745.820    224.064    261.938
         TR   0.234E+29             1481.254      4.968     46.031
         TOT                       38227.0739   229.0326   307.9687  1288.5409

       T/K    H(0)-H(T)+PV         H(T)/Eh          T*S/Eh         G(T)/Eh
   ------------------------------------------------------------------------
    298.15    0.609187E-01    0.108202E+01    0.146326E+00    0.935691E+00
   ------------------------------------------------------------------------

         :::::::::::::::::::::::::::::::::::::::::::::::::::::
         ::                  THERMODYNAMIC                  ::
         :::::::::::::::::::::::::::::::::::::::::::::::::::::
         :: total free energy        -170.004444567674 Eh   ::
         ::.................................................::
         :: total energy             -170.940135905460 Eh   ::
         :: zero point energy           1.021098466738 Eh   ::
         :: G(RRHO) w/o ZPVE           -0.085407128953 Eh   ::
         :: G(RRHO) contrib.            0.935691337786 Eh   ::
         :::::::::::::::::::::::::::::::::::::::::::::::::::::

           -------------------------------------------------
          | TOTAL ENERGY             -170.940135905460 Eh   |
          | TOTAL ENTHALPY           -169.858118718897 Eh   |
          | TOTAL FREE ENERGY        -170.004444567674 Eh   |
          | GRADIENT NORM               0.000060661479 Eh/α |
          | HOMO-LUMO GAP               0.841664883887 eV   |
           -------------------------------------------------

 * finished run on 2025/07/21 at 03:58:47.031
