   * xtb version 6.7.1 (edcfbbe) compiled by 'albert@albert-system' on 2024-07-22

   ID    Z sym.   atoms
    1    6 C      1-8, 10, 12-17, 19-32, 34-38, 40-55
    2    7 N      9, 18, 39
    3    8 O      11, 56
    4   16 S      33
    5    1 H      57-97

          program call               : xtb data2507/toluene/p-PCzTPD/p-PCzTPD_toluene_S0_crest.xyz --gfn 2 --gbsa toluene --ohess vtight --parallel 40 --molden --ceasefiles --namespace data2507/toluene/p-PCzTPD/p-PCzTPD_toluene_S0_finalOpt
      * Solvation model:               GBSA
        Solvent                        toluene
        Solvent mass                       9.2140E+01 g/mol
          :  Hamiltonian                  GFN2-xTB          :
 * total energy  :  -148.3307561 Eh     change       -0.3115815E-08 Eh
 * total energy  :  -148.3309778 Eh     change       -0.2217286E-03 Eh
 * total energy  :  -148.3311101 Eh     change       -0.1322426E-03 Eh
 * total energy  :  -148.3311593 Eh     change       -0.4922655E-04 Eh
 * total energy  :  -148.3312183 Eh     change       -0.5904381E-04 Eh
 * total energy  :  -148.3312576 Eh     change       -0.3929918E-04 Eh
 * total energy  :  -148.3312939 Eh     change       -0.3631460E-04 Eh
 * total energy  :  -148.3313138 Eh     change       -0.1980287E-04 Eh
 * total energy  :  -148.3313545 Eh     change       -0.4070925E-04 Eh
 * total energy  :  -148.3313706 Eh     change       -0.1610595E-04 Eh
 * total energy  :  -148.3323419 Eh     change       -0.3424078E-06 Eh
 * total energy  :  -148.3323422 Eh     change       -0.3009944E-06 Eh
 * total energy  :  -148.3323425 Eh     change       -0.2882325E-06 Eh
 * total energy  :  -148.3323428 Eh     change       -0.3455446E-06 Eh
 * total energy  :  -148.3323433 Eh     change       -0.4820187E-06 Eh
 * total energy  :  -148.3323439 Eh     change       -0.6026676E-06 Eh
 * total energy  :  -148.3323446 Eh     change       -0.6364118E-06 Eh
 * total energy  :  -148.3323451 Eh     change       -0.5853484E-06 Eh
 * total energy  :  -148.3323451 Eh     change       -0.2650495E-08 Eh
   *** GEOMETRY OPTIMIZATION CONVERGED AFTER 122 ITERATIONS ***

 final structure:
================
97
 xtb: 6.7.1 (edcfbbe)
C            2.14851659435157        0.87369392362584       -3.16494438454437
C            2.41218467801933        2.14035890014879       -2.35984932358571
C            1.13832272261566        2.95218979530877       -2.13238567734741
C            1.39375743487051        4.18199032867894       -1.26309229468413
C            0.10070473852464        4.91488519078524       -0.91049051538450
C            0.29299701222869        6.09995879768582        0.04064040825041
C            0.93335020445678        5.78549206204260        1.39578913767139
C            0.10685279768459        4.88851437537242        2.32155753039180
N            0.05235327963726        3.50876379688022        1.88528847516313
C           -1.13380340384028        2.87442239783561        1.54169583030302
O           -2.22300697720798        3.40564619248124        1.62571232900055
C           -0.74632392322468        1.53194353871679        1.10223963003067
C           -1.35635466873991        0.41190502827075        0.58519504769722
C           -2.73536278623125        0.08635249794926        0.31130013720936
C           -3.05868097761506       -1.13076147315820       -0.30357751763104
C           -4.36605845262492       -1.47345349714440       -0.56021288046882
C           -5.40238260832192       -0.60705476539571       -0.20738131158063
N           -6.72928854286262       -0.95728582402758       -0.45935091456247
C           -7.68010973956581       -0.15724493496886       -1.06882469769189
C           -7.55273506281818        1.11539492654323       -1.60710568494555
C           -8.66656966327944        1.68027918258304       -2.20007983010358
C           -9.87926386912600        0.99816640080550       -2.26922809527030
C          -10.00487553110698       -0.27894237772150       -1.75869793822183
C           -8.89957050080196       -0.86664801114326       -1.15730036337664
C           -8.67001917254565       -2.15326778070257       -0.55901295530458
C           -9.48135101658012       -3.25713784140433       -0.33058895895948
C           -8.94122796419374       -4.35389220105460        0.31201239960152
C           -7.61548778487657       -4.35109760686046        0.74002094847026
C           -6.78915791014205       -3.26411180211886        0.52367084652213
C           -7.31835988552415       -2.17013382542935       -0.14633446760804
C           -5.09060140044672        0.60969696308083        0.39930143479410
C           -3.78040858813512        0.95244783177409        0.65449101847684
S           -0.12274007241326       -0.78007446287513        0.23983317071164
C            1.19645831488999        0.23350762315502        0.78463598131232
C            2.54709684226760       -0.25998840812139        0.66823672394268
C            2.78545438993321       -1.52994592607261        0.12676308417976
C            4.06558833043682       -2.00991648414760       -0.02659420669477
C            5.15842408709427       -1.23194753557754        0.35924656428636
N            6.45871691494899       -1.71050330487238        0.19559971412827
C            7.50984464697432       -1.01854605511853       -0.38057984518997
C            7.52588682960098        0.23952752760128       -0.96596453458493
C            8.71730263367739        0.68446374147708       -1.50799158512858
C            9.86741894871306       -0.10118697280911       -1.48122856444843
C            9.85016396667496       -1.36528739779942       -0.92521017092855
C            8.66437081594259       -1.83394875270969       -0.37466661671980
C            8.28676757816975       -3.07492186973794        0.24462483886134
C            8.98044832121404       -4.23956557880042        0.54690653394074
C            8.30738772503950       -5.26478649241002        1.18214534546281
C            6.96530570860456       -5.13120342166827        1.53108678085853
C            6.25457897970564       -3.98142676789287        1.24104264306509
C            6.91763678680423       -2.95938047930064        0.57651201864437
C            4.93149986792557        0.03025576111584        0.90799898978867
C            3.64873049065326        0.50899410361983        1.06193880332372
C            0.67512225880648        1.42839301944148        1.22336340295328
C            1.16630007265021        2.69032275756399        1.78548335250015
O            2.27880894320454        3.02434071536178        2.14264585819274
H            3.07060231638360        0.31542358548622       -3.31020276613418
H            1.73686862713470        1.12092180501772       -4.14121641077087
H            1.43812284921866        0.23424258893390       -2.64541169334427
H            2.84048004785417        1.87048361668763       -1.39074782165382
H            3.14448893307102        2.75977834603485       -2.88290147267386
H            0.39276652762150        2.31817382588988       -1.64364491099834
H            0.72328946692982        3.26162844164949       -3.09448406380020
H            2.06785075277280        4.86628829267325       -1.78361401561194
H            1.89995627237983        3.85684190415366       -0.35287376369420
H           -0.61317156890664        4.20916653962907       -0.48177999488876
H           -0.34970450868090        5.29311446423802       -1.83239200901422
H            0.92265545489239        6.84256726691151       -0.45591654915348
H           -0.68406267019655        6.55809806234012        0.21523264950794
H            1.91727023023456        5.33654666469984        1.25833268254679
H            1.07933180243207        6.73060667292887        1.92331211747653
H           -0.92881936129540        5.23405310619140        2.37614254369521
H            0.54904524206474        4.91041910390861        3.32365210714482
H           -2.26793988874410       -1.80743601565542       -0.59234284291525
H           -4.59513244856883       -2.40510350525643       -1.05431157662926
H           -6.61405694442883        1.64748361336348       -1.57744416746993
H           -8.59297431912253        2.67191099639514       -2.62229142165517
H          -10.72732891304882        1.47467806007467       -2.73872099664206
H          -10.93961524980212       -0.81482314023426       -1.82806319568020
H          -10.51431985663355       -3.25116994436945       -0.64467564329284
H           -9.55444302848614       -5.22353494870722        0.49738562706747
H           -7.22512296628751       -5.21598343812276        1.25629003178605
H           -5.77017105633189       -3.26609216906621        0.87936922050350
H           -5.88559689034643        1.27803487569206        0.69296653108411
H           -3.56388614691286        1.89394499583999        1.13083359002736
H            1.95115598754514       -2.13756861313596       -0.19122107366850
H            4.23122605778712       -2.97970836775187       -0.46996284151703
H            6.63722305224060        0.85066904553112       -1.01030349869713
H            8.75577066550322        1.66231536278857       -1.96556563526197
H           10.78015436251180        0.28350448176913       -1.91201471709554
H           10.73660932865980       -1.98164466089792       -0.92118732572344
H           10.02555539538748       -4.33537673783237        0.29330220519175
H            8.82768033648058       -6.18008775152491        1.42324698714062
H            6.46943585928976       -5.94226897240493        2.04411284935768
H            5.22112530624721       -3.88246842053915        1.53605706499772
H            5.76890461915902        0.62870886417993        1.23293322011437
H            3.49695183792877        1.48178542437366        1.49928159131526

          :  Hamiltonian                  GFN2-xTB          :
         :: gradient norm              0.000043335667 Eh/a0 ::
         :: HOMO-LUMO gap              1.522148695386 eV    ::
         :: SCC energy              -150.837388047674 Eh    ::
         :: -> dispersion             -0.135513850540 Eh    ::
         :: -> Gsolv                  -0.060443175590 Eh    ::
         :: repulsion energy           2.505042898260 Eh    ::

    * Orbital Energies and Occupations

         #    Occupation            Energy/Eh            Energy/eV
      -------------------------------------------------------------
         1        2.0000           -0.7512896             -20.4436
       ...           ...                  ...                  ...
       125        2.0000           -0.4202932             -11.4368
       126        2.0000           -0.4190443             -11.4028
       127        2.0000           -0.4188611             -11.3978
       128        2.0000           -0.4173152             -11.3557
       129        2.0000           -0.4167887             -11.3414
       130        2.0000           -0.4122636             -11.2183
       131        2.0000           -0.4076622             -11.0931
       132        2.0000           -0.4074742             -11.0879
       133        2.0000           -0.3959739             -10.7750
       134        2.0000           -0.3812012             -10.3730
       135        2.0000           -0.3810199             -10.3681
       136        2.0000           -0.3673105              -9.9950
       137        2.0000           -0.3645303              -9.9194 (HOMO)
       138                         -0.3085924              -8.3972 (LUMO)
       139                         -0.3017137              -8.2100
       140                         -0.2481540              -6.7526
       141                         -0.2474015              -6.7321
       142                         -0.2391751              -6.5083
       143                         -0.2386510              -6.4940
       144                         -0.2348941              -6.3918
       145                         -0.2260410              -6.1509
       146                         -0.2244936              -6.1088
       147                         -0.2243284              -6.1043
       148                         -0.2241649              -6.0998
       ...                                ...                  ...
       270                          0.7425959              20.2071
      -------------------------------------------------------------
                  HL-Gap            0.0559379 Eh            1.5221 eV

     #   Z          covCN         q      C6AA      α(0)
     1   6 C        3.752    -0.102    22.508     6.766
     2   6 C        3.801    -0.051    21.492     6.600
     3   6 C        3.803    -0.055    21.557     6.610
     4   6 C        3.802    -0.057    21.591     6.615
     5   6 C        3.801    -0.053    21.528     6.606
     6   6 C        3.799    -0.059    21.642     6.624
     7   6 C        3.800    -0.063    21.710     6.634
     8   6 C        3.739     0.013    20.439     6.451
     9   7 N        2.801    -0.114    23.476     7.196
    10   6 C        2.828     0.281    22.248     7.729
    11   8 O        0.857    -0.436    22.412     6.347
    12   6 C        3.237    -0.057    28.476     8.657
    13   6 C        2.974     0.034    27.237     8.561
    14   6 C        3.005     0.007    27.861     8.658
    15   6 C        2.927    -0.030    28.737     8.791
    16   6 C        2.919    -0.041    29.007     8.832
    17   6 C        2.912     0.071    26.418     8.428
    18   7 N        2.801    -0.038    21.974     6.962
    19   6 C        3.070     0.046    26.890     8.503
    20   6 C        2.910    -0.051    29.257     8.869
    21   6 C        2.924    -0.034    28.843     8.807
    22   6 C        2.920    -0.041    29.014     8.833
    23   6 C        2.912    -0.034    28.842     8.806
    24   6 C        3.066    -0.016    28.348     8.731
    25   6 C        3.066    -0.016    28.345     8.730
    26   6 C        2.912    -0.034    28.839     8.806
    27   6 C        2.920    -0.041    29.013     8.833
    28   6 C        2.924    -0.034    28.844     8.807
    29   6 C        2.910    -0.051    29.266     8.871
    30   6 C        3.071     0.046    26.895     8.503
    31   6 C        2.920    -0.039    28.978     8.828
    32   6 C        2.922    -0.034    28.835     8.806
    33  16 S        2.421     0.008   140.742    19.967
    34   6 C        2.975     0.037    27.173     8.551
    35   6 C        3.005     0.009    27.811     8.651
    36   6 C        2.927    -0.028    28.710     8.787
    37   6 C        2.919    -0.040    28.999     8.831
    38   6 C        2.912     0.071    26.416     8.428
    39   7 N        2.801    -0.038    21.972     6.962
    40   6 C        3.071     0.046    26.889     8.502
    41   6 C        2.910    -0.051    29.256     8.869
    42   6 C        2.924    -0.034    28.844     8.807
    43   6 C        2.920    -0.041    29.016     8.833
    44   6 C        2.912    -0.034    28.844     8.807
    45   6 C        3.066    -0.016    28.350     8.731
    46   6 C        3.066    -0.016    28.347     8.731
    47   6 C        2.912    -0.034    28.841     8.806
    48   6 C        2.920    -0.041    29.015     8.833
    49   6 C        2.924    -0.034    28.845     8.808
    50   6 C        2.910    -0.051    29.267     8.871
    51   6 C        3.071     0.046    26.894     8.503
    52   6 C        2.920    -0.039    28.977     8.827
    53   6 C        2.922    -0.033    28.830     8.805
    54   6 C        3.236    -0.055    28.428     8.650
    55   6 C        2.827     0.284    22.189     7.719
    56   8 O        0.857    -0.436    22.406     6.346
    57   1 H        0.925     0.036     2.504     2.475
    58   1 H        0.925     0.037     2.483     2.464
    59   1 H        0.925     0.034     2.535     2.490
    60   1 H        0.924     0.022     2.700     2.570
    61   1 H        0.924     0.031     2.572     2.508
    62   1 H        0.924     0.017     2.782     2.608
    63   1 H        0.924     0.032     2.554     2.499
    64   1 H        0.924     0.033     2.545     2.495
    65   1 H        0.924     0.023     2.691     2.565
    66   1 H        0.924     0.018     2.764     2.600
    67   1 H        0.924     0.033     2.549     2.497
    68   1 H        0.924     0.041     2.438     2.442
    69   1 H        0.924     0.037     2.484     2.465
    70   1 H        0.925     0.053     2.283     2.363
    71   1 H        0.924     0.049     2.334     2.389
    72   1 H        0.924     0.067     2.115     2.274
    73   1 H        0.924     0.051     2.312     2.378
    74   1 H        0.926     0.061     2.193     2.316
    75   1 H        0.926     0.055     2.254     2.348
    76   1 H        0.926     0.032     2.559     2.502
    77   1 H        0.926     0.032     2.558     2.501
    78   1 H        0.926     0.030     2.580     2.512
    79   1 H        0.926     0.033     2.539     2.492
    80   1 H        0.926     0.033     2.544     2.494
    81   1 H        0.926     0.031     2.578     2.511
    82   1 H        0.926     0.033     2.541     2.493
    83   1 H        0.926     0.034     2.534     2.489
    84   1 H        0.926     0.051     2.310     2.377
    85   1 H        0.926     0.069     2.095     2.263
    86   1 H        0.926     0.061     2.192     2.315
    87   1 H        0.926     0.055     2.256     2.349
    88   1 H        0.926     0.032     2.552     2.498
    89   1 H        0.926     0.032     2.557     2.500
    90   1 H        0.926     0.030     2.583     2.513
    91   1 H        0.926     0.033     2.544     2.494
    92   1 H        0.926     0.033     2.547     2.496
    93   1 H        0.926     0.030     2.581     2.512
    94   1 H        0.926     0.033     2.544     2.494
    95   1 H        0.926     0.034     2.533     2.489
    96   1 H        0.926     0.050     2.316     2.380
    97   1 H        0.926     0.069     2.099     2.265

molecular dipole:
                 x           y           z       tot (Debye)
 q only:        0.050      -1.527      -0.991
   full:        0.028      -1.155      -0.733       3.478

 projected vibrational frequencies (cm⁻¹)
eigval :       -0.00     0.00     0.00     0.00     0.00     0.00
eigval :        7.21    10.55    15.09    18.68    18.98    22.06
eigval :       31.11    32.89    36.33    41.86    55.92    64.04
eigval :       70.64    78.55    81.26    86.45    98.15   103.48
eigval :      107.73   111.16   114.13   116.31   121.72   141.70
eigval :      142.57   145.12   146.29   156.05   159.86   180.70
eigval :      202.75   221.30   231.83   235.63   242.21   242.74
eigval :      251.29   259.36   264.58   272.73   274.28   279.54
eigval :      293.10   320.78   327.63   343.87   362.28   370.22
eigval :      375.44   378.24   379.27   385.68   389.68   395.09
eigval :      396.22   408.72   419.06   425.49   426.07   434.91
eigval :      438.71   441.86   447.36   465.97   492.52   499.45
eigval :      515.23   517.60   517.99   534.18   535.59   540.31
eigval :      541.09   555.03   559.55   582.40   582.85   593.39
eigval :      594.07   596.64   605.63   616.22   617.57   636.71
eigval :      674.13   674.88   685.10   689.86   693.35   694.13
eigval :      707.78   709.37   711.83   718.66   720.32   754.80
eigval :      756.55   761.79   770.09   770.83   772.79   780.20
eigval :      781.48   781.63   793.81   825.65   827.38   832.51
eigval :      851.76   864.91   866.73   872.88   874.75   878.14
eigval :      878.46   895.15   897.03   897.85   903.18   903.46
eigval :      903.55   904.33   905.19   906.95   913.83   920.20
eigval :      920.28   921.56   923.81   927.78   929.04   938.60
eigval :      941.24   942.43   944.54   959.83   971.36   990.80
eigval :     1008.73  1011.19  1011.36  1013.24  1027.58  1055.75
eigval :     1058.28  1070.23  1070.50  1071.38  1073.63  1074.21
eigval :     1085.02  1100.70  1116.47  1116.88  1119.09  1129.15
eigval :     1144.92  1145.37  1146.84  1152.36  1152.78  1154.72
eigval :     1174.98  1175.13  1179.16  1179.59  1183.34  1183.73
eigval :     1208.27  1208.91  1210.83  1215.14  1234.31  1234.36
eigval :     1241.62  1243.10  1244.11  1259.49  1261.72  1267.36
eigval :     1268.92  1273.33  1280.71  1283.92  1286.75  1293.50
eigval :     1296.29  1296.98  1298.60  1299.41  1311.12  1321.60
eigval :     1324.00  1325.95  1334.39  1341.84  1351.55  1355.28
eigval :     1355.55  1358.20  1358.23  1362.81  1364.39  1364.70
eigval :     1368.65  1378.98  1409.12  1409.96  1413.18  1422.29
eigval :     1423.23  1425.91  1426.11  1434.46  1471.95  1472.17
eigval :     1478.29  1478.75  1480.14  1483.75  1485.40  1485.61
eigval :     1494.76  1497.90  1500.17  1500.70  1502.71  1507.38
eigval :     1524.28  1536.14  1544.33  1545.13  1573.77  1573.81
eigval :     1584.32  1584.90  1587.98  1588.15  1596.25  1596.26
eigval :     1611.16  1611.21  1698.52  1718.05  2937.08  2946.27
eigval :     2955.67  2960.23  2960.85  2969.39  2970.84  2973.23
eigval :     2975.42  2977.34  2983.00  2995.70  3002.17  3013.85
eigval :     3027.17  3029.67  3036.06  3072.45  3073.79  3073.93
eigval :     3074.10  3078.91  3079.50  3079.96  3080.40  3082.83
eigval :     3083.57  3086.78  3087.30  3087.76  3088.50  3093.08
eigval :     3093.74  3095.29  3095.69  3096.20  3096.79  3100.29
eigval :     3101.73  3134.36  3138.11

   temp. (K)  partition function   enthalpy   heat capacity  entropy
                                   cal/mol     cal/K/mol   cal/K/mol   J/K/mol
 298.15  VIB  0.662E+23            28218.373    173.505    177.702
         ROT  0.182E+09              888.752      2.981     40.778
         INT  0.121E+32            29107.125    176.486    218.480
         TR   0.198E+29             1481.254      4.968     45.695
         TOT                       30588.3790   181.4539   264.1751  1105.3084

       T/K    H(0)-H(T)+PV         H(T)/Eh          T*S/Eh         G(T)/Eh
   ------------------------------------------------------------------------
    298.15    0.487457E-01    0.813370E+00    0.125518E+00    0.687852E+00
   ------------------------------------------------------------------------

         :::::::::::::::::::::::::::::::::::::::::::::::::::::
         ::                  THERMODYNAMIC                  ::
         :::::::::::::::::::::::::::::::::::::::::::::::::::::
         :: total free energy        -147.644492899398 Eh   ::
         ::.................................................::
         :: total energy             -148.332345148131 Eh   ::
         :: zero point energy           0.764624656705 Eh   ::
         :: G(RRHO) w/o ZPVE           -0.076772407972 Eh   ::
         :: G(RRHO) contrib.            0.687852248733 Eh   ::
         :::::::::::::::::::::::::::::::::::::::::::::::::::::

           -------------------------------------------------
          | TOTAL ENERGY             -148.332345148131 Eh   |
          | TOTAL ENTHALPY           -147.518974806714 Eh   |
          | TOTAL FREE ENERGY        -147.644492899398 Eh   |
          | GRADIENT NORM               0.000043334574 Eh/α |
          | HOMO-LUMO GAP               1.522148600503 eV   |
           -------------------------------------------------

 * finished run on 2025/08/29 at 23:55:12.581
