   * xtb version 6.7.1 (edcfbbe) compiled by 'albert@albert-system' on 2024-07-22

   ID    Z sym.   atoms
    1    6 C      1-8, 10, 12-17, 19-32, 34-38, 40-55
    2    7 N      9, 18, 39
    3    8 O      11, 56
    4   16 S      33
    5    1 H      57-97

          program call               : xtb data2507/toluene/p-PCzTPD/p-PCzTPD_toluene_T1_crest.xyz --gfn 2 --uhf 2 --gbsa toluene --ohess vtight --parallel 40 --molden --ceasefiles --namespace data2507/toluene/p-PCzTPD/p-PCzTPD_toluene_T1_finalOpt
      * Solvation model:               GBSA
        Solvent                        toluene
        Solvent mass                       9.2140E+01 g/mol
          :  Hamiltonian                  GFN2-xTB          :
 * total energy  :  -148.2639639 Eh     change       -0.9734379E-08 Eh
 * total energy  :  -148.2644022 Eh     change       -0.4383177E-03 Eh
 * total energy  :  -148.2646347 Eh     change       -0.2324837E-03 Eh
 * total energy  :  -148.2646927 Eh     change       -0.5804201E-04 Eh
 * total energy  :  -148.2647622 Eh     change       -0.6947467E-04 Eh
 * total energy  :  -148.2648155 Eh     change       -0.5327859E-04 Eh
 * total energy  :  -148.2648722 Eh     change       -0.5667812E-04 Eh
 * total energy  :  -148.2649385 Eh     change       -0.6631990E-04 Eh
 * total energy  :  -148.2650067 Eh     change       -0.6822553E-04 Eh
 * total energy  :  -148.2650568 Eh     change       -0.5004717E-04 Eh
 * total energy  :  -148.2654934 Eh     change       -0.1874807E-06 Eh
 * total energy  :  -148.2654938 Eh     change       -0.4611435E-06 Eh
 * total energy  :  -148.2654943 Eh     change       -0.4257192E-06 Eh
 * total energy  :  -148.2654945 Eh     change       -0.2759445E-06 Eh
 * total energy  :  -148.2654948 Eh     change       -0.2423454E-06 Eh
 * total energy  :  -148.2654950 Eh     change       -0.2303693E-06 Eh
 * total energy  :  -148.2654952 Eh     change       -0.1747847E-06 Eh
 * total energy  :  -148.2654953 Eh     change       -0.1352387E-06 Eh
 * total energy  :  -148.2654954 Eh     change       -0.9692292E-07 Eh
   *** GEOMETRY OPTIMIZATION CONVERGED AFTER 87 ITERATIONS ***

 final structure:
================
97
 xtb: 6.7.1 (edcfbbe)
C            1.50736387477464       -0.63414835022357       -3.33344840612696
C            1.86617508690105        0.83974513714034       -3.18772199597915
C            0.63046163358734        1.73658830875164       -3.22650690434285
C            0.98216557995447        3.20705827217569       -3.00994413781608
C           -0.26482618272633        4.08421147718676       -2.91618280487325
C            0.02425014803730        5.54988709123893       -2.58151883903025
C            0.74970459255379        5.80934564328297       -1.25825913761978
C           -0.00961629465269        5.38361992596561        0.00250405939189
N           -0.02342256883552        3.95297595596615        0.20893103133355
C           -1.19503071310049        3.20031233990904        0.23040848380878
O           -2.31225817316134        3.70368515351379        0.13627209216393
C           -0.76733324378468        1.82292553706375        0.38442122616443
C           -1.37290386481400        0.55109559318739        0.44388808672997
C           -2.71810590222983        0.13015807279768        0.38089155422064
C           -3.04904823069834       -1.24263084873202        0.50462174284901
C           -4.34637525083446       -1.67286932930379        0.44427567004177
C           -5.39278753448634       -0.75484571933146        0.26578401314840
N           -6.71172786569382       -1.18975239604768        0.21331370343083
C           -7.18087036481657       -2.26658155924536       -0.51830875665378
C           -6.50458316666601       -3.09910585025113       -1.40081422728683
C           -7.22852515772335       -4.09383755115534       -2.03349034605747
C           -8.59360383941234       -4.25270176289585       -1.81063141459041
C           -9.28026847600384       -3.40301502817212       -0.96031549176916
C           -8.57439418614549       -2.39998110720369       -0.31435647610151
C           -8.95759736069470       -1.34774219983924        0.59147351604462
C          -10.16320388112261       -0.98363224622342        1.17061338163830
C          -10.17974576694519        0.08933611762440        2.04519986456787
C           -9.01008677847020        0.77680332487318        2.35781601352609
C           -7.79582282148140        0.42996201840840        1.79288999128901
C           -7.77902525751284       -0.62317190837161        0.88746785078554
C           -5.08306640589725        0.60856956506880        0.14451081524799
C           -3.78484591880370        1.04164428832934        0.19228795267667
S           -0.09759281589940       -0.65414070102021        0.61920521093308
C            1.20884058713991        0.52803644436757        0.59395318581183
C            2.54807420341131        0.07759535062587        0.64657325604662
C            2.83608076982648       -1.30179487541915        0.78168130099403
C            4.12425997957847       -1.76389278983015        0.79565935252971
C            5.20102199614693       -0.87115614150068        0.68740517350715
N            6.50915569657891       -1.34030346650409        0.69930325151743
C            6.98691926165726       -2.42119992478920       -0.02115903980003
C            6.33603724634259       -3.22416344665269       -0.94892307383734
C            7.06532843656772       -4.23087429642773       -1.55603773215590
C            8.41177788006020       -4.43047472833692       -1.26354926149476
C            9.07536293982593       -3.60965926367964       -0.36788102335563
C            8.36361052689533       -2.59507580475133        0.25321801984922
C            8.72725419642523       -1.56379004751612        1.19059198186490
C            9.91112761694641       -1.23899829890451        1.83435319811959
C            9.91164780657373       -0.17653049905152        2.72171599740815
C            8.74607582976192        0.53855241183777        2.98328034694639
C            7.55338646763383        0.23129274821779        2.35317432894504
C            7.55485500014775       -0.81066855832895        1.43485463142311
C            4.93318827420210        0.50060219787555        0.56925108851179
C            3.64431853194775        0.96493167402119        0.54500384414412
C            0.64122051863428        1.80810234138217        0.47624698460177
C            1.11268890826391        3.18405541124509        0.40437876532935
O            2.24139820389111        3.65827791649316        0.50598558353128
H            2.40376759050961       -1.24931218651164       -3.30202946724040
H            0.99867866920671       -0.81061235441317       -4.27887572393535
H            0.84761294134039       -0.94501324112970       -2.52606844462996
H            2.38783069183389        0.99426785390674       -2.23925450080372
H            2.54783446814421        1.13225776320729       -3.98998287165957
H           -0.06609386351045        1.41978987439999       -2.44459047786207
H            0.12018304043153        1.61853824592219       -4.18560526470859
H            1.61457248743990        3.55932045683011       -3.82864813280209
H            1.56390736886315        3.28799578484056       -2.09021390073926
H           -0.94634417266921        3.66806825731260       -2.17269815342744
H           -0.78906432947465        4.05287609478023       -3.87565557085816
H            0.63367793607373        5.97700733197553       -3.38238609358377
H           -0.92766885919782        6.08755741408363       -2.56560407124415
H            1.72551817391968        5.32263383741431       -1.25440055251088
H            0.92297411599116        6.88499234788098       -1.17760543847836
H           -1.05708861956878        5.69400715301194       -0.04790664945365
H            0.46346468649557        5.85015202560304        0.87462588005811
H           -2.25495601550563       -1.95580787593095        0.66799821460259
H           -4.57617899676303       -2.71913732081254        0.57690512429673
H           -5.45282318051603       -2.96888573644274       -1.60209237639403
H           -6.72360107950398       -4.75712404873817       -2.71976458564206
H           -9.12413459512878       -5.04311470354872       -2.32010323662932
H          -10.34288059028357       -3.51253419454744       -0.80702225280001
H          -11.06682098139101       -1.52972879691687        0.94725568726029
H          -11.10919328768633        0.39207915285731        2.50375783776331
H           -9.04872837764585        1.59607610528468        3.06016451412658
H           -6.89260804744026        0.95550082077234        2.06128120787197
H           -5.87705851631930        1.31845394357013       -0.03149140652941
H           -3.56663273213556        2.09061609371698        0.07624829957527
H            2.01649035286977       -1.99659826736094        0.88681387885719
H            4.32000067150423       -2.81669225780880        0.93082946974817
H            5.30024510851946       -3.06296542778467       -1.20341155520717
H            6.57972810687007       -4.87185286327969       -2.27659170201252
H            8.94690650126589       -5.22943828387007       -1.75455652972715
H           10.12511588134346       -3.74983465519329       -0.16062107071113
H           10.81001517787009       -1.80712648564475        1.65016960534382
H           10.82435541700615        0.09615825740354        3.23009484095985
H            8.77062912032156        1.34879082097157        3.69668551502697
H            6.65234278629561        0.77862562343860        2.58223650114738
H            5.75284304353172        1.19325559946085        0.45253323059474
H            3.45947041223143        2.02127716873101        0.43680025762524

          :  Hamiltonian                  GFN2-xTB          :
         :: gradient norm              0.000041218290 Eh/a0 ::
         :: HOMO-LUMO gap              0.022590440067 eV    ::
         :: SCC energy              -150.752541295321 Eh    ::
         :: -> dispersion             -0.135380866012 Eh    ::
         :: -> Gsolv                  -0.068174256529 Eh    ::
         :: repulsion energy           2.487045834667 Eh    ::

    * Orbital Energies and Occupations

         #    Occupation            Energy/Eh            Energy/eV
      -------------------------------------------------------------
         1        2.0000           -0.7323444             -19.9281
       ...           ...                  ...                  ...
       126        2.0000           -0.4186311             -11.3915
       127        2.0000           -0.4160630             -11.3217
       128        2.0000           -0.4160107             -11.3202
       129        2.0000           -0.4089215             -11.1273
       130        2.0000           -0.4039059             -10.9908
       131        2.0000           -0.3999665             -10.8836
       132        2.0000           -0.3972452             -10.8096
       133        2.0000           -0.3901854             -10.6175
       134        2.0000           -0.3901062             -10.6153
       135        2.0000           -0.3880245             -10.5587
       136        1.9928           -0.3744795             -10.1901
       137        1.0072           -0.3651124              -9.9352
       138        0.6075           -0.2956720              -8.0456 (HOMO)
       139        0.3925           -0.2948418              -8.0231 (LUMO)
       140                         -0.2556880              -6.9576
       141                         -0.2552926              -6.9469
       142                         -0.2340370              -6.3685
       143                         -0.2339510              -6.3661
       144                         -0.2335735              -6.3559
       145                         -0.2327014              -6.3321
       146                         -0.2317155              -6.3053
       147                         -0.2212174              -6.0196
       148                         -0.2136632              -5.8141
       149                         -0.1999936              -5.4421
       ...                                ...                  ...
       270                          0.7327046              19.9379
      -------------------------------------------------------------
                  HL-Gap            0.0008302 Eh            0.0226 eV

     #   Z          covCN         q      C6AA      α(0)
     1   6 C        3.752    -0.101    22.482     6.762
     2   6 C        3.801    -0.050    21.466     6.597
     3   6 C        3.803    -0.053    21.525     6.605
     4   6 C        3.802    -0.055    21.558     6.610
     5   6 C        3.801    -0.053    21.518     6.604
     6   6 C        3.799    -0.057    21.606     6.618
     7   6 C        3.800    -0.061    21.675     6.629
     8   6 C        3.739     0.021    20.297     6.428
     9   7 N        2.808    -0.136    23.941     7.267
    10   6 C        2.840     0.261    22.606     7.792
    11   8 O        0.857    -0.487    23.499     6.499
    12   6 C        3.207    -0.054    28.695     8.723
    13   6 C        2.971     0.022    27.522     8.605
    14   6 C        3.004     0.010    27.775     8.645
    15   6 C        2.923    -0.034    28.849     8.808
    16   6 C        2.915    -0.039    28.965     8.825
    17   6 C        2.912     0.058    26.695     8.472
    18   7 N        2.799    -0.008    21.416     6.873
    19   6 C        3.069     0.046    26.906     8.505
    20   6 C        2.909    -0.043    29.064     8.840
    21   6 C        2.923    -0.031    28.764     8.795
    22   6 C        2.920    -0.033    28.827     8.805
    23   6 C        2.912    -0.029    28.729     8.789
    24   6 C        3.064    -0.010    28.211     8.710
    25   6 C        3.064    -0.011    28.214     8.710
    26   6 C        2.912    -0.029    28.734     8.790
    27   6 C        2.920    -0.033    28.828     8.805
    28   6 C        2.923    -0.031    28.765     8.795
    29   6 C        2.909    -0.042    29.055     8.839
    30   6 C        3.069     0.046    26.902     8.505
    31   6 C        2.916    -0.038    28.940     8.822
    32   6 C        2.919    -0.039    28.975     8.827
    33  16 S        2.355    -0.077   144.270    20.216
    34   6 C        2.971     0.027    27.388     8.584
    35   6 C        3.005     0.012    27.727     8.638
    36   6 C        2.924    -0.032    28.798     8.800
    37   6 C        2.915    -0.038    28.956     8.824
    38   6 C        2.912     0.060    26.654     8.466
    39   7 N        2.800    -0.009    21.426     6.875
    40   6 C        3.069     0.046    26.905     8.505
    41   6 C        2.910    -0.043    29.068     8.841
    42   6 C        2.923    -0.031    28.764     8.795
    43   6 C        2.920    -0.033    28.829     8.805
    44   6 C        2.912    -0.029    28.731     8.789
    45   6 C        3.064    -0.010    28.211     8.710
    46   6 C        3.064    -0.011    28.214     8.710
    47   6 C        2.912    -0.029    28.735     8.790
    48   6 C        2.920    -0.033    28.830     8.805
    49   6 C        2.923    -0.031    28.765     8.795
    50   6 C        2.909    -0.043    29.061     8.840
    51   6 C        3.068     0.046    26.902     8.505
    52   6 C        2.916    -0.038    28.938     8.821
    53   6 C        2.919    -0.037    28.933     8.821
    54   6 C        3.211    -0.050    28.565     8.699
    55   6 C        2.838     0.266    22.521     7.777
    56   8 O        0.857    -0.484    23.439     6.491
    57   1 H        0.925     0.036     2.496     2.471
    58   1 H        0.925     0.037     2.490     2.467
    59   1 H        0.925     0.034     2.530     2.488
    60   1 H        0.924     0.021     2.724     2.581
    61   1 H        0.924     0.030     2.581     2.512
    62   1 H        0.924     0.015     2.803     2.618
    63   1 H        0.924     0.031     2.575     2.510
    64   1 H        0.924     0.030     2.580     2.512
    65   1 H        0.924     0.022     2.709     2.574
    66   1 H        0.924     0.021     2.713     2.576
    67   1 H        0.924     0.030     2.588     2.516
    68   1 H        0.924     0.038     2.478     2.462
    69   1 H        0.924     0.035     2.522     2.484
    70   1 H        0.924     0.050     2.320     2.382
    71   1 H        0.924     0.042     2.418     2.432
    72   1 H        0.924     0.060     2.198     2.318
    73   1 H        0.924     0.040     2.451     2.449
    74   1 H        0.926     0.056     2.245     2.343
    75   1 H        0.926     0.054     2.272     2.357
    76   1 H        0.926     0.044     2.399     2.422
    77   1 H        0.926     0.042     2.419     2.432
    78   1 H        0.926     0.041     2.434     2.440
    79   1 H        0.926     0.043     2.405     2.425
    80   1 H        0.926     0.044     2.398     2.421
    81   1 H        0.926     0.041     2.439     2.442
    82   1 H        0.926     0.040     2.447     2.446
    83   1 H        0.926     0.041     2.440     2.443
    84   1 H        0.926     0.048     2.346     2.395
    85   1 H        0.926     0.066     2.130     2.282
    86   1 H        0.926     0.058     2.225     2.332
    87   1 H        0.926     0.055     2.260     2.351
    88   1 H        0.926     0.044     2.398     2.422
    89   1 H        0.926     0.042     2.420     2.433
    90   1 H        0.926     0.041     2.437     2.441
    91   1 H        0.926     0.043     2.407     2.426
    92   1 H        0.926     0.044     2.400     2.423
    93   1 H        0.926     0.041     2.442     2.444
    94   1 H        0.926     0.040     2.448     2.447
    95   1 H        0.926     0.041     2.439     2.442
    96   1 H        0.926     0.049     2.334     2.389
    97   1 H        0.926     0.066     2.127     2.281

molecular dipole:
                 x           y           z       tot (Debye)
 q only:        0.095      -4.201      -0.223
   full:        0.071      -3.616      -0.109       9.197

 projected vibrational frequencies (cm⁻¹)
eigval :       -0.00    -0.00    -0.00     0.00     0.00     0.00
eigval :        9.95    11.25    15.90    18.49    19.64    22.68
eigval :       30.61    35.08    39.49    43.41    56.06    65.78
eigval :       73.37    87.71    88.58    92.64    97.95   103.95
eigval :      109.21   111.02   113.21   117.67   124.92   133.85
eigval :      142.51   148.07   148.41   160.77   161.35   184.56
eigval :      200.03   220.93   233.02   235.65   242.43   246.80
eigval :      252.03   254.90   264.43   272.18   272.52   278.22
eigval :      296.34   309.34   329.09   341.79   352.26   368.24
eigval :      372.65   375.77   381.54   383.82   388.04   390.00
eigval :      393.39   403.79   406.07   418.91   422.24   430.74
eigval :      433.53   438.81   442.28   444.68   477.20   483.85
eigval :      509.58   514.18   514.66   519.02   531.15   536.99
eigval :      537.85   544.71   544.89   578.19   578.60   580.76
eigval :      582.73   589.30   589.83   612.38   614.16   632.09
eigval :      652.60   674.74   675.11   676.28   677.12   679.27
eigval :      684.98   700.22   707.79   710.65   716.23   753.29
eigval :      755.19   765.10   768.39   771.97   772.46   779.96
eigval :      780.80   782.21   783.75   800.41   814.45   816.22
eigval :      834.68   847.13   849.86   853.37   869.61   872.43
eigval :      874.94   876.21   893.14   895.28   896.23   898.81
eigval :      902.37   903.67   904.06   906.11   907.31   917.64
eigval :      918.30   924.79   925.41   925.75   927.91   928.94
eigval :      930.91   935.87   937.33   941.25   947.80   974.23
eigval :      990.57   997.94  1005.74  1010.33  1010.34  1017.51
eigval :     1041.23  1052.19  1069.62  1069.73  1071.44  1072.53
eigval :     1081.81  1097.62  1110.96  1113.62  1114.72  1128.06
eigval :     1139.66  1141.21  1143.76  1146.75  1147.10  1151.47
eigval :     1166.47  1172.43  1177.02  1177.11  1177.40  1178.65
eigval :     1192.26  1205.22  1207.72  1211.88  1227.93  1228.05
eigval :     1235.20  1236.78  1241.94  1247.07  1255.64  1261.61
eigval :     1261.75  1261.94  1279.20  1280.84  1281.45  1286.30
eigval :     1288.99  1290.23  1293.89  1302.35  1314.96  1322.24
eigval :     1324.66  1326.13  1333.98  1338.15  1338.56  1340.58
eigval :     1341.43  1350.45  1355.45  1357.61  1360.34  1363.02
eigval :     1366.76  1369.90  1379.84  1411.30  1411.99  1412.37
eigval :     1412.69  1415.48  1422.75  1427.07  1434.22  1441.38
eigval :     1457.42  1457.98  1458.77  1476.61  1478.74  1478.99
eigval :     1479.64  1482.62  1485.54  1487.08  1496.49  1498.41
eigval :     1500.87  1501.74  1503.59  1507.57  1555.24  1565.28
eigval :     1566.92  1567.36  1578.02  1578.14  1578.66  1580.20
eigval :     1598.03  1600.26  1627.62  1643.87  2922.78  2945.42
eigval :     2952.61  2955.36  2958.91  2964.65  2965.47  2967.70
eigval :     2971.21  2975.41  2976.63  2999.16  3006.57  3010.17
eigval :     3026.93  3029.35  3035.27  3081.28  3081.45  3081.68
eigval :     3081.75  3084.18  3086.11  3087.08  3087.30  3088.04
eigval :     3088.40  3091.23  3092.29  3094.98  3095.59  3095.95
eigval :     3096.74  3097.38  3098.55  3100.55  3100.94  3101.43
eigval :     3102.44  3125.01  3127.23

   temp. (K)  partition function   enthalpy   heat capacity  entropy
                                   cal/mol     cal/K/mol   cal/K/mol   J/K/mol
 298.15  VIB  0.313E+23            28387.971    175.463    177.769
         ROT  0.181E+09              888.752      2.981     40.770
         INT  0.566E+31            29276.723    178.444    218.539
         TR   0.198E+29             1481.254      4.968     45.695
         TOT                       30757.9772   183.4120   264.2341  1105.5555

       T/K    H(0)-H(T)+PV         H(T)/Eh          T*S/Eh         G(T)/Eh
   ------------------------------------------------------------------------
    298.15    0.490160E-01    0.809711E+00    0.125546E+00    0.684165E+00
   ------------------------------------------------------------------------

         :::::::::::::::::::::::::::::::::::::::::::::::::::::
         ::                  THERMODYNAMIC                  ::
         :::::::::::::::::::::::::::::::::::::::::::::::::::::
         :: total free energy        -147.581330343979 Eh   ::
         ::.................................................::
         :: total energy             -148.265495458473 Eh   ::
         :: zero point energy           0.760695305451 Eh   ::
         :: G(RRHO) w/o ZPVE           -0.076530190957 Eh   ::
         :: G(RRHO) contrib.            0.684165114495 Eh   ::
         :::::::::::::::::::::::::::::::::::::::::::::::::::::

           -------------------------------------------------
          | TOTAL ENERGY             -148.265495458473 Eh   |
          | TOTAL ENTHALPY           -147.455784196310 Eh   |
          | TOTAL FREE ENERGY        -147.581330343979 Eh   |
          | GRADIENT NORM               0.000042653468 Eh/α |
          | HOMO-LUMO GAP               0.022589802023 eV   |
           -------------------------------------------------

 * finished run on 2025/08/30 at 00:46:23.905
