   * xtb version 6.7.1 (edcfbbe) compiled by 'albert@albert-system' on 2024-07-22

   ID    Z sym.   atoms
    1    6 C      1-8, 10, 12-17, 19-32, 34-38, 40-55
    2    7 N      9, 18, 39
    3    8 O      11, 56
    4   16 S      33
    5    1 H      57-97

          program call               : xtb data2507/toluene/p-PCzTPD/p-PCzTPD_toluene_S0_finalOpt.xtbopt.xyz --gfn 2 --uhf 2 --gbsa toluene --ohess vtight --parallel 40 --molden --ceasefiles --namespace data2507/toluene/p-PCzTPD/p-PCzTPD_toluene_T1_preOpt
      * Solvation model:               GBSA
        Solvent                        toluene
        Solvent mass                       9.2140E+01 g/mol
          :  Hamiltonian                  GFN2-xTB          :
 * total energy  :  -148.2611935 Eh     change       -0.4925795E-08 Eh
 * total energy  :  -148.2644597 Eh     change       -0.3266248E-02 Eh
 * total energy  :  -148.2652687 Eh     change       -0.8090317E-03 Eh
 * total energy  :  -148.2653265 Eh     change       -0.5777321E-04 Eh
 * total energy  :  -148.2653508 Eh     change       -0.2425541E-04 Eh
 * total energy  :  -148.2653602 Eh     change       -0.9429382E-05 Eh
 * total energy  :  -148.2653696 Eh     change       -0.9376113E-05 Eh
 * total energy  :  -148.2653679 Eh     change        0.1658166E-05 Eh
 * total energy  :  -148.2653735 Eh     change       -0.5550319E-05 Eh
 * total energy  :  -148.2653776 Eh     change       -0.4091259E-05 Eh
 * total energy  :  -148.2653923 Eh     change       -0.1625080E-06 Eh
 * total energy  :  -148.2653927 Eh     change       -0.3935209E-06 Eh
 * total energy  :  -148.2653930 Eh     change       -0.2330899E-06 Eh
 * total energy  :  -148.2653931 Eh     change       -0.1128587E-06 Eh
 * total energy  :  -148.2653932 Eh     change       -0.1438812E-06 Eh
 * total energy  :  -148.2653934 Eh     change       -0.1621096E-06 Eh
 * total energy  :  -148.2653934 Eh     change        0.2542740E-07 Eh
 * total energy  :  -148.2653935 Eh     change       -0.1182727E-06 Eh
 * total energy  :  -148.2653935 Eh     change       -0.6874870E-08 Eh
   *** GEOMETRY OPTIMIZATION CONVERGED AFTER 32 ITERATIONS ***

 final structure:
================
97
 xtb: 6.7.1 (edcfbbe)
C            2.13740718185944        0.86190270975536       -3.14614633909124
C            2.40975121932970        2.13988078443832       -2.36214516096139
C            1.13719000251205        2.95140206125294       -2.12750860635576
C            1.39906094794647        4.18981479678769       -1.27263955192099
C            0.10734129575376        4.91938077793333       -0.90856441585360
C            0.30522901304244        6.09967565443900        0.04674030414544
C            0.93461848215227        5.77095087697371        1.40342615572068
C            0.09926349488073        4.86734956049883        2.31562736388409
N            0.05317818677916        3.48965131982082        1.88066089986393
C           -1.13096436889884        2.84831558316128        1.52298551196468
O           -2.23139838769941        3.38956813615003        1.59970797521460
C           -0.73693339236708        1.52096384855869        1.09192917047609
C           -1.36858530959153        0.37140000612540        0.57462251183608
C           -2.71938308936761        0.05815170246749        0.31484012290092
C           -3.06902734488172       -1.18499934772520       -0.26981278409487
C           -4.37321968211841       -1.51710661566678       -0.51529289358131
C           -5.40626264371036       -0.61984753454204       -0.20374536846295
N           -6.73107074481378       -0.95659724532152       -0.45580888647369
C           -7.67173763264274       -0.14808274656478       -1.06835655567942
C           -7.52647654775569        1.12001541648293       -1.61605380938375
C           -8.63381677461847        1.69612832894897       -2.21251286882085
C           -9.85381057699402        1.02845619033618       -2.27801460724432
C           -9.99590222117232       -0.24860732856370       -1.76276082106625
C           -8.90012825018114       -0.84443944065254       -1.15809363895857
C           -8.68352055541282       -2.13534670403577       -0.55704506435811
C           -9.50457217534007       -3.22846994088005       -0.32792385163249
C           -8.97382600741459       -4.33011999363991        0.32119681595052
C           -7.65128325867070       -4.33718043353325        0.75640528573837
C           -6.81450113725918       -3.25704289495132        0.53997665799569
C           -7.33169845858522       -2.16249574513924       -0.14099392640745
C           -5.07744312900475        0.62000702892841        0.36527200898857
C           -3.77412569893593        0.95006734388320        0.62603299186859
S           -0.12289007886749       -0.82832458801260        0.23042056074947
C            1.20452467495720        0.19740299895573        0.77057421147016
C            2.53173098010739       -0.27727575551239        0.65727131312057
C            2.78989191814451       -1.56211189305282        0.12252451358829
C            4.06729826297953       -2.03281206730671       -0.01976360763755
C            5.16161516049874       -1.23752861969316        0.35023425207173
N            6.46032441304529       -1.70662602992658        0.19040070952877
C            7.51171892619700       -1.00286290222156       -0.36930842516717
C            7.52189233776359        0.25960141822845       -0.94801903089898
C            8.71558716813208        0.71721666805927       -1.47674073547693
C            9.86978516578828       -0.06081138527690       -1.44535258337072
C            9.85723725817876       -1.33300649235119       -0.89968782815390
C            8.67224497058690       -1.81176782342910       -0.36289373867991
C            8.29492305298794       -3.06386492065747        0.24102616267050
C            8.99133353330444       -4.22479204606300        0.53934463942324
C            8.31576271151187       -5.25971319783938        1.16311410259264
C            6.97198507051105       -5.13485515522678        1.50544439823129
C            6.25787565184942       -3.98510122365357        1.21918971954907
C            6.92141391987817       -2.95683385570294        0.56242913150130
C            4.92359641617742        0.03742847914329        0.88359464665383
C            3.64512100332833        0.50303806704110        1.04577002773197
C            0.66591578048676        1.41816946752570        1.21113519417479
C            1.16450517975017        2.67146511873840        1.76152275062232
O            2.29487654276767        3.01232014958700        2.10037407175752
H            3.05875409677977        0.30483076126644       -3.30058999177385
H            1.70628453118969        1.09499382944140       -4.11752222075972
H            1.43924713663572        0.22738226638022       -2.60431691494318
H            2.84914863098461        1.88404988353282       -1.39412309054851
H            3.13370782419024        2.75466823219805       -2.90232388247930
H            0.40039970755611        2.32077115564991       -1.62139231944310
H            0.70802798483823        3.24996582261147       -3.08712313980640
H            2.06415853614240        4.87281798051635       -1.80687240741023
H            1.91536972045456        3.87416836629572       -0.36495761802895
H           -0.59956525217470        4.21123071541878       -0.47299363613162
H           -0.35244231838610        5.29930144412295       -1.82551387418845
H            0.94314885193724        6.84008777669776       -0.44334063693550
H           -0.66962506245710        6.56355770320885        0.22011663408713
H            1.91595348828574        5.31489800241969        1.26976028064801
H            1.08289746027362        6.71099954472995        1.94007179817653
H           -0.93970187611587        5.20684341602424        2.35628413719868
H            0.52704627936915        4.89344199910137        3.32495794251447
H           -2.28125725913177       -1.87250180472145       -0.53918510392921
H           -4.61267330397844       -2.45637277624664       -0.99030784178567
H           -6.58030239786992        1.63797008099605       -1.59234223294604
H           -8.54678620864584        2.68370886289092       -2.64041176351862
H          -10.69597342437568        1.51201034460338       -2.75001578754143
H          -10.93620290801639       -0.77332940027894       -1.83451992648985
H          -10.53671924673152       -3.21524872403411       -0.64276409192814
H           -9.59584054682275       -5.19299903619706        0.50658148040343
H           -7.27075333159397       -5.20179566701450        1.27942414757363
H           -5.79941800743032       -3.26278464497744        0.90524997124186
H           -5.86732114328297        1.30249965104514        0.64055055742038
H           -3.54373708343153        1.89814933589877        1.08378167349874
H            1.95665000097125       -2.17106029320837       -0.19436056374294
H            4.24116814495148       -3.00291113408260       -0.45981611505023
H            6.62826358259638        0.86219928797177       -0.99850683309004
H            8.75001242487795        1.69779873728267       -1.92761051596345
H           10.78354401444467        0.33222025486802       -1.86531031891170
H           10.74752745534369       -1.94290414947164       -0.89651790003507
H           10.03873700325155       -4.31470043584278        0.29538270681178
H            8.83926390325304       -6.17361299731280        1.40081081277569
H            6.47660247906698       -5.95010469466833        2.01123667715964
H            5.22410068663705       -3.88954343758949        1.51251259955910
H            5.75811511250401        0.64101080353362        1.20723932240221
H            3.48142537061462        1.47342738363915        1.48550273948677

          :  Hamiltonian                  GFN2-xTB          :
         :: gradient norm              0.000160533160 Eh/a0 ::
         :: HOMO-LUMO gap              0.023787605716 eV    ::
         :: SCC energy              -150.752540122874 Eh    ::
         :: -> dispersion             -0.135642420414 Eh    ::
         :: -> Gsolv                  -0.067888207230 Eh    ::
         :: repulsion energy           2.487146635843 Eh    ::

    * Orbital Energies and Occupations

         #    Occupation            Energy/Eh            Energy/eV
      -------------------------------------------------------------
         1        2.0000           -0.7323937             -19.9294
       ...           ...                  ...                  ...
       126        2.0000           -0.4179304             -11.3725
       127        2.0000           -0.4161232             -11.3233
       128        2.0000           -0.4159712             -11.3192
       129        2.0000           -0.4088679             -11.1259
       130        2.0000           -0.4039045             -10.9908
       131        2.0000           -0.3999687             -10.8837
       132        2.0000           -0.3972869             -10.8107
       133        2.0000           -0.3902421             -10.6190
       134        2.0000           -0.3900826             -10.6147
       135        2.0000           -0.3877920             -10.5524
       136        1.9921           -0.3744874             -10.1903
       137        1.0079           -0.3653113              -9.9406
       138        0.6130           -0.2957299              -8.0472 (HOMO)
       139        0.3870           -0.2948557              -8.0234 (LUMO)
       140                         -0.2556798              -6.9574
       141                         -0.2552795              -6.9465
       142                         -0.2340263              -6.3682
       143                         -0.2339891              -6.3672
       144                         -0.2335789              -6.3560
       145                         -0.2327068              -6.3323
       146                         -0.2316238              -6.3028
       147                         -0.2210045              -6.0138
       148                         -0.2137277              -5.8158
       149                         -0.2001584              -5.4466
       ...                                ...                  ...
       270                          0.7327895              19.9402
      -------------------------------------------------------------
                  HL-Gap            0.0008742 Eh            0.0238 eV

     #   Z          covCN         q      C6AA      α(0)
     1   6 C        3.752    -0.101    22.481     6.761
     2   6 C        3.801    -0.050    21.469     6.597
     3   6 C        3.803    -0.053    21.523     6.605
     4   6 C        3.802    -0.056    21.573     6.613
     5   6 C        3.801    -0.052    21.505     6.602
     6   6 C        3.799    -0.057    21.603     6.618
     7   6 C        3.800    -0.061    21.679     6.629
     8   6 C        3.739     0.021    20.299     6.429
     9   7 N        2.808    -0.136    23.942     7.267
    10   6 C        2.840     0.261    22.614     7.793
    11   8 O        0.857    -0.486    23.482     6.497
    12   6 C        3.208    -0.055    28.706     8.724
    13   6 C        2.971     0.021    27.527     8.606
    14   6 C        3.005     0.010    27.775     8.645
    15   6 C        2.924    -0.034    28.851     8.808
    16   6 C        2.915    -0.039    28.962     8.825
    17   6 C        2.912     0.058    26.700     8.473
    18   7 N        2.800    -0.008    21.418     6.873
    19   6 C        3.069     0.046    26.899     8.504
    20   6 C        2.909    -0.042    29.052     8.838
    21   6 C        2.923    -0.031    28.763     8.795
    22   6 C        2.920    -0.033    28.827     8.805
    23   6 C        2.912    -0.029    28.732     8.790
    24   6 C        3.064    -0.011    28.214     8.710
    25   6 C        3.064    -0.010    28.211     8.710
    26   6 C        2.912    -0.029    28.729     8.789
    27   6 C        2.920    -0.033    28.827     8.805
    28   6 C        2.923    -0.031    28.764     8.795
    29   6 C        2.909    -0.043    29.063     8.840
    30   6 C        3.070     0.046    26.905     8.505
    31   6 C        2.916    -0.038    28.938     8.821
    32   6 C        2.919    -0.039    28.972     8.827
    33  16 S        2.355    -0.079   144.352    20.221
    34   6 C        2.971     0.028    27.383     8.584
    35   6 C        3.005     0.013    27.710     8.635
    36   6 C        2.924    -0.032    28.789     8.799
    37   6 C        2.915    -0.038    28.949     8.823
    38   6 C        2.912     0.060    26.652     8.465
    39   7 N        2.800    -0.009    21.430     6.875
    40   6 C        3.069     0.046    26.898     8.504
    41   6 C        2.909    -0.043    29.056     8.839
    42   6 C        2.923    -0.031    28.763     8.795
    43   6 C        2.920    -0.033    28.831     8.805
    44   6 C        2.912    -0.029    28.734     8.790
    45   6 C        3.064    -0.011    28.216     8.710
    46   6 C        3.064    -0.010    28.212     8.710
    47   6 C        2.912    -0.029    28.730     8.789
    48   6 C        2.920    -0.033    28.830     8.805
    49   6 C        2.923    -0.031    28.764     8.795
    50   6 C        2.909    -0.043    29.070     8.841
    51   6 C        3.069     0.046    26.904     8.505
    52   6 C        2.916    -0.037    28.931     8.820
    53   6 C        2.919    -0.038    28.933     8.821
    54   6 C        3.211    -0.050    28.569     8.701
    55   6 C        2.838     0.267    22.504     7.774
    56   8 O        0.857    -0.484    23.424     6.489
    57   1 H        0.925     0.036     2.501     2.473
    58   1 H        0.925     0.037     2.487     2.466
    59   1 H        0.925     0.033     2.542     2.493
    60   1 H        0.924     0.021     2.713     2.576
    61   1 H        0.924     0.031     2.578     2.511
    62   1 H        0.924     0.015     2.807     2.620
    63   1 H        0.924     0.031     2.579     2.511
    64   1 H        0.924     0.031     2.579     2.511
    65   1 H        0.924     0.024     2.678     2.559
    66   1 H        0.924     0.019     2.745     2.591
    67   1 H        0.924     0.030     2.592     2.518
    68   1 H        0.924     0.038     2.476     2.461
    69   1 H        0.924     0.034     2.525     2.485
    70   1 H        0.924     0.051     2.311     2.378
    71   1 H        0.924     0.042     2.417     2.431
    72   1 H        0.924     0.060     2.199     2.319
    73   1 H        0.924     0.040     2.452     2.449
    74   1 H        0.926     0.056     2.246     2.344
    75   1 H        0.926     0.054     2.275     2.358
    76   1 H        0.926     0.041     2.437     2.441
    77   1 H        0.926     0.040     2.443     2.444
    78   1 H        0.926     0.041     2.437     2.441
    79   1 H        0.926     0.044     2.397     2.421
    80   1 H        0.926     0.043     2.404     2.424
    81   1 H        0.926     0.041     2.434     2.440
    82   1 H        0.926     0.042     2.422     2.434
    83   1 H        0.926     0.043     2.407     2.426
    84   1 H        0.926     0.048     2.348     2.396
    85   1 H        0.926     0.065     2.136     2.285
    86   1 H        0.926     0.058     2.225     2.332
    87   1 H        0.926     0.055     2.261     2.351
    88   1 H        0.926     0.041     2.431     2.438
    89   1 H        0.926     0.040     2.442     2.444
    90   1 H        0.926     0.041     2.441     2.443
    91   1 H        0.926     0.044     2.402     2.424
    92   1 H        0.926     0.043     2.407     2.426
    93   1 H        0.926     0.041     2.438     2.442
    94   1 H        0.926     0.042     2.425     2.435
    95   1 H        0.926     0.043     2.407     2.426
    96   1 H        0.926     0.049     2.338     2.391
    97   1 H        0.926     0.067     2.120     2.277

molecular dipole:
                 x           y           z       tot (Debye)
 q only:        0.047      -3.712      -1.878
   full:        0.016      -3.231      -1.565       9.125

 projected vibrational frequencies (cm⁻¹)
eigval :       -0.00    -0.00    -0.00    -0.00     0.00     0.00
eigval :       10.13    10.36    16.62    19.72    19.98    22.12
eigval :       32.10    33.86    36.80    42.22    54.90    64.04
eigval :       69.22    84.76    87.68    92.44    97.94   103.12
eigval :      108.45   110.46   113.48   116.30   124.43   132.75
eigval :      142.56   144.79   146.78   157.28   160.32   182.71
eigval :      199.30   220.61   231.21   235.96   240.93   243.25
eigval :      249.61   255.48   264.08   271.89   273.31   277.55
eigval :      290.37   316.60   325.91   341.91   354.17   367.66
eigval :      369.89   375.14   378.33   382.20   388.75   389.74
eigval :      392.54   405.84   407.15   420.03   422.66   430.50
eigval :      433.28   438.68   441.10   444.97   476.57   483.42
eigval :      508.92   513.93   514.39   518.45   530.60   535.95
eigval :      536.48   543.82   545.20   578.14   578.90   580.87
eigval :      582.95   589.00   589.97   612.22   613.75   632.03
eigval :      651.94   674.37   674.45   675.14   675.89   679.78
eigval :      683.96   700.23   707.94   711.14   716.55   753.04
eigval :      754.92   762.42   768.45   769.56   770.93   778.60
eigval :      779.56   780.92   783.63   802.76   815.62   819.84
eigval :      833.69   849.17   852.54   856.89   870.53   873.23
eigval :      873.74   873.91   892.68   895.43   895.98   899.43
eigval :      903.50   903.89   904.65   905.98   906.03   917.41
eigval :      918.10   920.90   922.15   923.07   926.28   928.07
eigval :      930.62   935.70   940.54   940.79   947.22   974.28
eigval :      991.40   997.59  1006.46  1010.19  1010.43  1017.27
eigval :     1041.53  1052.52  1068.43  1068.70  1071.10  1071.97
eigval :     1082.28  1098.07  1111.13  1113.62  1115.41  1128.40
eigval :     1139.79  1141.12  1143.15  1146.48  1147.23  1151.11
eigval :     1167.77  1172.70  1175.70  1176.29  1176.72  1178.70
eigval :     1193.15  1205.10  1207.97  1211.96  1227.37  1227.91
eigval :     1235.25  1236.96  1242.13  1247.92  1255.00  1261.67
eigval :     1261.93  1262.98  1279.31  1280.54  1281.51  1286.17
eigval :     1289.36  1290.54  1294.35  1302.32  1314.44  1322.25
eigval :     1324.55  1325.80  1334.40  1338.40  1339.69  1340.47
eigval :     1341.42  1352.01  1355.88  1357.71  1360.36  1362.87
eigval :     1367.06  1369.20  1379.68  1411.45  1412.21  1412.50
eigval :     1412.84  1415.54  1422.83  1427.05  1433.49  1440.72
eigval :     1457.56  1458.01  1458.86  1476.92  1478.66  1479.04
eigval :     1479.17  1482.40  1485.09  1487.67  1494.15  1497.51
eigval :     1499.57  1500.35  1502.38  1506.38  1555.24  1565.03
eigval :     1566.74  1567.08  1577.95  1578.12  1578.69  1580.24
eigval :     1598.13  1600.62  1628.22  1644.78  2920.48  2946.06
eigval :     2952.49  2956.03  2959.08  2961.53  2965.79  2967.84
eigval :     2970.99  2974.31  2976.98  3000.18  3003.72  3012.07
eigval :     3026.60  3028.87  3035.05  3079.58  3080.50  3081.07
eigval :     3081.40  3084.93  3085.82  3086.42  3086.85  3087.53
eigval :     3087.97  3090.64  3091.50  3094.40  3095.17  3095.63
eigval :     3096.14  3097.55  3097.69  3099.39  3100.23  3100.43
eigval :     3101.72  3124.31  3125.76

   temp. (K)  partition function   enthalpy   heat capacity  entropy
                                   cal/mol     cal/K/mol   cal/K/mol   J/K/mol
 298.15  VIB  0.415E+23            28441.406    175.376    178.258
         ROT  0.182E+09              888.752      2.981     40.774
         INT  0.754E+31            29330.158    178.357    219.032
         TR   0.198E+29             1481.254      4.968     45.695
         TOT                       30811.4122   183.3252   264.7269  1107.6172

       T/K    H(0)-H(T)+PV         H(T)/Eh          T*S/Eh         G(T)/Eh
   ------------------------------------------------------------------------
    298.15    0.491011E-01    0.809593E+00    0.125780E+00    0.683812E+00
   ------------------------------------------------------------------------

         :::::::::::::::::::::::::::::::::::::::::::::::::::::
         ::                  THERMODYNAMIC                  ::
         :::::::::::::::::::::::::::::::::::::::::::::::::::::
         :: total free energy        -147.581581123133 Eh   ::
         ::.................................................::
         :: total energy             -148.265393486085 Eh   ::
         :: zero point energy           0.760491525481 Eh   ::
         :: G(RRHO) w/o ZPVE           -0.076679162529 Eh   ::
         :: G(RRHO) contrib.            0.683812362952 Eh   ::
         :::::::::::::::::::::::::::::::::::::::::::::::::::::

           -------------------------------------------------
          | TOTAL ENERGY             -148.265393486085 Eh   |
          | TOTAL ENTHALPY           -147.455800849825 Eh   |
          | TOTAL FREE ENERGY        -147.581581123133 Eh   |
          | GRADIENT NORM               0.000158866191 Eh/α |
          | HOMO-LUMO GAP               0.023787311168 eV   |
           -------------------------------------------------

 * finished run on 2025/08/29 at 23:55:24.198
