   * xtb version 6.7.1 (edcfbbe) compiled by 'albert@albert-system' on 2024-07-22

   ID    Z sym.   atoms
    1    6 C      1-8, 10, 12-17, 19-32, 34-38, 40-55
    2    7 N      9, 18, 39
    3    8 O      11, 56
    4   16 S      33
    5    1 H      57-97

          program call               : xtb data2507/toluene/p-PCzTPD/p-PCzTPD.xyz --gfn 2 --gbsa toluene --ohess vtight --parallel 40 --molden --ceasefiles --namespace data2507/toluene/p-PCzTPD/p-PCzTPD_toluene_S0_preOpt
      * Solvation model:               GBSA
        Solvent                        toluene
        Solvent mass                       9.2140E+01 g/mol
          :  Hamiltonian                  GFN2-xTB          :
 * total energy  :  -148.3031261 Eh     change       -0.9804353E-09 Eh
 * total energy  :  -148.3183058 Eh     change       -0.1517971E-01 Eh
 * total energy  :  -148.3216635 Eh     change       -0.3357706E-02 Eh
 * total energy  :  -148.3222142 Eh     change       -0.5506961E-03 Eh
 * total energy  :  -148.3226521 Eh     change       -0.4378341E-03 Eh
 * total energy  :  -148.3228298 Eh     change       -0.1776894E-03 Eh
 * total energy  :  -148.3229421 Eh     change       -0.1122920E-03 Eh
 * total energy  :  -148.3230060 Eh     change       -0.6397933E-04 Eh
 * total energy  :  -148.3230575 Eh     change       -0.5147779E-04 Eh
 * total energy  :  -148.3231137 Eh     change       -0.5614426E-04 Eh
 * total energy  :  -148.3289756 Eh     change       -0.1717595E-06 Eh
 * total energy  :  -148.3289758 Eh     change       -0.1385621E-06 Eh
 * total energy  :  -148.3289759 Eh     change       -0.1332276E-06 Eh
 * total energy  :  -148.3289760 Eh     change       -0.1294180E-06 Eh
 * total energy  :  -148.3289761 Eh     change       -0.1288368E-06 Eh
 * total energy  :  -148.3289763 Eh     change       -0.1503875E-06 Eh
 * total energy  :  -148.3289765 Eh     change       -0.1665291E-06 Eh
 * total energy  :  -148.3289766 Eh     change       -0.1796933E-06 Eh
 * total energy  :  -148.3289766 Eh     change       -0.2763329E-08 Eh
   *** GEOMETRY OPTIMIZATION CONVERGED AFTER 185 ITERATIONS ***

 final structure:
================
97
 xtb: 6.7.1 (edcfbbe)
C           -6.24212806830786        6.13724963974341       -0.38432985964203
C           -5.11970220984105        5.61975728570875       -1.27778004061606
C           -3.78276533004661        6.32906907401690       -1.05108102853072
C           -3.15716278826894        6.00462898569530        0.30433971771027
C           -1.81078691541467        6.69603389583982        0.53273933079682
C           -0.69378584516425        6.29504524500945       -0.43606075786027
C           -0.44279632587652        4.79135518341962       -0.54498544600316
C           -0.04534527655178        4.15923612114954        0.78952305790335
N            0.20023263115980        2.74040465760394        0.64281513357819
C           -0.82398058305875        1.80615562516103        0.59270308943735
O           -1.99737968293243        2.09982696421035        0.69850620601393
C           -0.16095084213099        0.51172846748926        0.41425699408418
C           -0.52062204339517       -0.80869706905988        0.27631527461389
C           -1.80184760412700       -1.47221141617019        0.25112027779273
C           -2.98257455296666       -0.80530098352666        0.59795814015376
C           -4.19336773128628       -1.46271668645933        0.57745400636378
C           -4.26879387001457       -2.80388583785416        0.20050501406478
N           -5.49621962389270       -3.46603090536892        0.17217637424028
C           -5.75451811512973       -4.71732005600418        0.70583657301359
C           -4.92409921546427       -5.55949106339661        1.43190593357069
C           -5.45047711066087       -6.75604291168990        1.88199528101401
C           -6.77418230857995       -7.10950937287012        1.63030024824763
C           -7.61418106030828       -6.26178353893763        0.93513989711378
C           -7.10706893488017       -5.05449824383443        0.47235931357000
C           -7.68689829707605       -3.95121359420836       -0.24365676974423
C           -8.95308016786036       -3.71278215301369       -0.76211998907405
C           -9.17985813010989       -2.52917818068483       -1.43666336124256
C           -8.15735907151623       -1.59970641781517       -1.61287768824607
C           -6.88889053611516       -1.81612078609515       -1.10721851209432
C           -6.66244301506052       -2.99048154190768       -0.40328056899482
C           -3.09629529089405       -3.47472495358553       -0.15286082429607
C           -1.88655943894868       -2.82008894858614       -0.12158407240789
S            0.93471734182545       -1.76620019716225        0.10943384352414
C            2.00937977852905       -0.38892200090114        0.21708698917134
C            3.43381669532301       -0.60667506605803        0.14027633780024
C            4.33475853998796        0.45667847815297        0.01021323865142
C            5.69052568437912        0.22317970594269       -0.06814499587115
C            6.19347085434757       -1.07686926276498       -0.01033608405221
N            7.56732187861983       -1.31006582815127       -0.07768324571548
C            8.19306529008714       -2.24888875295753       -0.88018087875533
C            7.65164507945725       -3.10939309788127       -1.82481621689563
C            8.51728077491193       -3.93173546208676       -2.52184299687310
C            9.89184070875143       -3.89829380283532       -2.29842225951935
C           10.43947746519586       -3.02403772809470       -1.38014360823982
C            9.58907814885760       -2.18871469252200       -0.66743532948794
C            9.80988851275952       -1.16736710869589        0.31951122218832
C           10.94945998118825       -0.67631530068098        0.94324681216617
C           10.80817076951132        0.31629156077754        1.89306387139621
C            9.54910992621853        0.80460692976806        2.23496485116690
C            8.40078887870244        0.33008954934109        1.62863114758762
C            8.53870875141412       -0.64664996789908        0.65255122406515
C            5.30165570423925       -2.14291380942975        0.12245004552635
C            3.94753800923081       -1.90914360653777        0.19141311817873
C            1.24916961107645        0.74758452998855        0.36700923208869
C            1.46675402425699        2.19018352776745        0.51153106113242
O            2.48573345634242        2.84993595295858        0.52976537153742
H           -6.36315004666106        7.21164525661019       -0.50904287618061
H           -6.03529476982378        5.93215894181781        0.66294143783952
H           -7.18210430534160        5.65390607688099       -0.64322361661523
H           -4.98809127946619        4.54757332805481       -1.11036538389833
H           -5.41284138803375        5.75691026598488       -2.32218111234745
H           -3.92809687885886        7.40922219840664       -1.13388102343731
H           -3.09777391258955        6.02476257473696       -1.84493538643254
H           -3.04358730177605        4.92303671473563        0.39952706361576
H           -3.83376229236411        6.32991704024863        1.09724927540170
H           -1.48680920963851        6.49320187512085        1.55597776532760
H           -1.95300142577438        7.77675143852624        0.44949308807595
H           -0.92823931784150        6.67131579794350       -1.43328446166082
H            0.22943027851189        6.78305458229988       -0.11335399372997
H           -1.33628710533039        4.28809892444889       -0.91789784023614
H            0.36291371093367        4.61943441668936       -1.26420804815667
H           -0.84877882417214        4.27661170225546        1.51989061747525
H            0.87441144872569        4.60967337741206        1.17044114634991
H           -2.94751451228800        0.23023371534788        0.89211085832872
H           -5.09001814967248       -0.94173657746433        0.87624030388587
H           -3.90333272128276       -5.28864438233513        1.65412778779679
H           -4.82174277833206       -7.42961333428740        2.44581697408950
H           -7.14788827148522       -8.05454001134886        1.99621835072418
H           -8.64602129708584       -6.52548549805542        0.75796637598589
H           -9.73989670118296       -4.44229165366263       -0.64186134620862
H          -10.15832541949418       -2.32234757948060       -1.84467427972670
H           -8.35812380805959       -0.69010600615186       -2.16000623375588
H           -6.10144867969918       -1.09611791250742       -1.26999970188874
H           -3.14655154511987       -4.50422230860731       -0.47230717140508
H           -0.98951181657451       -3.34916305183296       -0.40769868226040
H            3.96848395763584        1.46853687111124       -0.03535066224472
H            6.36999808004903        1.05199223937717       -0.19552848009374
H            6.59123983893217       -3.13081730864688       -2.02408711063690
H            8.11837522680302       -4.61248092138213       -3.25966020363097
H           10.53524495037598       -4.55845872331587       -2.86130277016077
H           11.50649703002442       -2.98310298716368       -1.22043851598172
H           11.92317021452063       -1.06912426934272        0.69174633146001
H           11.68180959620777        0.71487843030243        2.38759827007492
H            9.46646819371597        1.56916716669606        2.99368789251068
H            7.43063635777159        0.70418309139792        1.91805812964475
H            5.68166347107959       -3.15031902119315        0.19449199008682
H            3.27037689213833       -2.74276851377646        0.30611054671196

          :  Hamiltonian                  GFN2-xTB          :
         :: gradient norm              0.000037447329 Eh/a0 ::
         :: HOMO-LUMO gap              1.519554484551 eV    ::
         :: SCC energy              -150.834673563087 Eh    ::
         :: -> dispersion             -0.127091779828 Eh    ::
         :: -> Gsolv                  -0.063547189945 Eh    ::
         :: repulsion energy           2.505696920040 Eh    ::

    * Orbital Energies and Occupations

         #    Occupation            Energy/Eh            Energy/eV
      -------------------------------------------------------------
         1        2.0000           -0.7513728             -20.4459
       ...           ...                  ...                  ...
       125        2.0000           -0.4196342             -11.4188
       126        2.0000           -0.4187395             -11.3945
       127        2.0000           -0.4186110             -11.3910
       128        2.0000           -0.4177495             -11.3675
       129        2.0000           -0.4143492             -11.2750
       130        2.0000           -0.4100936             -11.1592
       131        2.0000           -0.4076536             -11.0928
       132        2.0000           -0.4076360             -11.0923
       133        2.0000           -0.3964767             -10.7887
       134        2.0000           -0.3811956             -10.3729
       135        2.0000           -0.3811954             -10.3729
       136        2.0000           -0.3674250              -9.9981
       137        2.0000           -0.3645769              -9.9206 (HOMO)
       138                         -0.3087343              -8.4011 (LUMO)
       139                         -0.3012325              -8.1970
       140                         -0.2483007              -6.7566
       141                         -0.2475058              -6.7350
       142                         -0.2391135              -6.5066
       143                         -0.2389683              -6.5027
       144                         -0.2351508              -6.3988
       145                         -0.2278220              -6.1994
       146                         -0.2245113              -6.1093
       147                         -0.2245070              -6.1091
       148                         -0.2232436              -6.0748
       ...                                ...                  ...
       270                          0.7432508              20.2249
      -------------------------------------------------------------
                  HL-Gap            0.0558426 Eh            1.5196 eV

     #   Z          covCN         q      C6AA      α(0)
     1   6 C        3.751    -0.101    22.495     6.764
     2   6 C        3.800    -0.052    21.516     6.604
     3   6 C        3.801    -0.058    21.623     6.621
     4   6 C        3.801    -0.059    21.639     6.623
     5   6 C        3.800    -0.060    21.653     6.625
     6   6 C        3.800    -0.060    21.646     6.624
     7   6 C        3.801    -0.056    21.583     6.614
     8   6 C        3.741     0.012    20.442     6.450
     9   7 N        2.803    -0.121    23.618     7.218
    10   6 C        2.826     0.280    22.277     7.734
    11   8 O        0.857    -0.430    22.300     6.331
    12   6 C        3.236    -0.058    28.523     8.665
    13   6 C        2.975     0.035    27.207     8.556
    14   6 C        3.004     0.007    27.859     8.658
    15   6 C        2.922    -0.032    28.809     8.802
    16   6 C        2.920    -0.040    28.985     8.829
    17   6 C        2.912     0.071    26.421     8.429
    18   7 N        2.800    -0.037    21.963     6.960
    19   6 C        3.070     0.046    26.898     8.504
    20   6 C        2.910    -0.051    29.266     8.871
    21   6 C        2.924    -0.034    28.843     8.807
    22   6 C        2.920    -0.041    29.011     8.833
    23   6 C        2.912    -0.034    28.839     8.806
    24   6 C        3.066    -0.016    28.343     8.730
    25   6 C        3.066    -0.016    28.345     8.730
    26   6 C        2.912    -0.034    28.843     8.807
    27   6 C        2.920    -0.041    29.012     8.833
    28   6 C        2.924    -0.034    28.843     8.807
    29   6 C        2.910    -0.051    29.257     8.869
    30   6 C        3.070     0.046    26.894     8.503
    31   6 C        2.919    -0.041    29.015     8.833
    32   6 C        2.926    -0.029    28.736     8.791
    33  16 S        2.417     0.010   140.668    19.962
    34   6 C        2.975     0.035    27.211     8.557
    35   6 C        3.004     0.007    27.859     8.658
    36   6 C        2.922    -0.033    28.812     8.802
    37   6 C        2.920    -0.039    28.982     8.828
    38   6 C        2.912     0.071    26.421     8.429
    39   7 N        2.801    -0.038    21.967     6.961
    40   6 C        3.070     0.046    26.897     8.504
    41   6 C        2.910    -0.051    29.266     8.871
    42   6 C        2.924    -0.034    28.843     8.807
    43   6 C        2.920    -0.041    29.012     8.833
    44   6 C        2.912    -0.034    28.839     8.806
    45   6 C        3.066    -0.016    28.343     8.730
    46   6 C        3.066    -0.016    28.346     8.730
    47   6 C        2.912    -0.034    28.843     8.807
    48   6 C        2.920    -0.041    29.013     8.833
    49   6 C        2.924    -0.034    28.843     8.807
    50   6 C        2.910    -0.051    29.257     8.869
    51   6 C        3.070     0.046    26.894     8.503
    52   6 C        2.919    -0.041    29.013     8.833
    53   6 C        2.926    -0.029    28.736     8.791
    54   6 C        3.236    -0.058    28.516     8.664
    55   6 C        2.825     0.279    22.289     7.736
    56   8 O        0.857    -0.432    22.323     6.335
    57   1 H        0.925     0.034     2.533     2.489
    58   1 H        0.925     0.034     2.533     2.489
    59   1 H        0.925     0.031     2.571     2.507
    60   1 H        0.924     0.028     2.621     2.532
    61   1 H        0.924     0.027     2.631     2.537
    62   1 H        0.924     0.031     2.575     2.510
    63   1 H        0.924     0.029     2.596     2.520
    64   1 H        0.924     0.036     2.509     2.477
    65   1 H        0.924     0.032     2.557     2.501
    66   1 H        0.924     0.029     2.602     2.523
    67   1 H        0.924     0.036     2.507     2.476
    68   1 H        0.924     0.042     2.419     2.432
    69   1 H        0.924     0.035     2.512     2.478
    70   1 H        0.924     0.047     2.362     2.403
    71   1 H        0.924     0.034     2.537     2.491
    72   1 H        0.924     0.063     2.168     2.303
    73   1 H        0.924     0.061     2.184     2.311
    74   1 H        0.926     0.068     2.104     2.268
    75   1 H        0.926     0.052     2.300     2.372
    76   1 H        0.926     0.034     2.524     2.484
    77   1 H        0.926     0.033     2.539     2.492
    78   1 H        0.926     0.031     2.577     2.510
    79   1 H        0.926     0.033     2.544     2.494
    80   1 H        0.926     0.033     2.539     2.492
    81   1 H        0.926     0.030     2.579     2.512
    82   1 H        0.926     0.032     2.556     2.500
    83   1 H        0.926     0.032     2.554     2.499
    84   1 H        0.926     0.056     2.252     2.347
    85   1 H        0.926     0.060     2.198     2.319
    86   1 H        0.926     0.068     2.105     2.269
    87   1 H        0.926     0.051     2.305     2.374
    88   1 H        0.926     0.034     2.525     2.485
    89   1 H        0.926     0.033     2.538     2.491
    90   1 H        0.926     0.031     2.576     2.510
    91   1 H        0.926     0.033     2.544     2.494
    92   1 H        0.926     0.033     2.537     2.491
    93   1 H        0.926     0.030     2.580     2.512
    94   1 H        0.926     0.032     2.561     2.502
    95   1 H        0.926     0.032     2.560     2.502
    96   1 H        0.926     0.056     2.251     2.346
    97   1 H        0.926     0.060     2.195     2.317

molecular dipole:
                 x           y           z       tot (Debye)
 q only:        0.153      -1.670      -0.317
   full:        0.127      -1.288      -0.237       3.344

 projected vibrational frequencies (cm⁻¹)
eigval :       -0.00    -0.00    -0.00     0.00     0.00     0.00
eigval :        6.86     7.87     8.68    12.76    13.56    16.91
eigval :       24.73    26.38    36.51    38.89    47.76    54.88
eigval :       58.10    61.78    74.11    78.17    79.47    97.87
eigval :      102.89   109.54   113.52   114.13   118.97   129.91
eigval :      142.75   144.40   145.45   150.51   160.41   187.77
eigval :      207.54   207.94   222.23   234.63   250.29   252.90
eigval :      260.34   267.22   272.67   273.06   277.48   281.93
eigval :      294.69   307.12   313.14   351.75   366.34   369.65
eigval :      371.61   378.18   381.65   389.35   390.02   393.49
eigval :      398.64   401.16   419.16   424.56   428.59   433.94
eigval :      439.02   441.32   445.05   468.51   499.22   502.36
eigval :      517.28   517.78   534.76   535.47   540.63   541.39
eigval :      549.79   557.04   559.71   581.81   582.55   592.85
eigval :      593.99   605.46   609.02   616.31   617.53   636.19
eigval :      673.44   673.79   687.90   690.23   693.19   696.22
eigval :      706.23   707.70   709.97   717.86   720.52   745.70
eigval :      754.46   756.40   767.88   769.21   770.79   778.70
eigval :      779.33   780.60   802.61   821.66   826.14   831.85
eigval :      843.45   862.00   865.84   870.85   873.48   875.32
eigval :      879.57   887.19   896.60   896.92   901.50   901.62
eigval :      902.30   903.01   904.94   906.76   914.47   918.98
eigval :      919.08   920.45   923.15   927.41   931.65   936.86
eigval :      940.75   943.86   954.13   960.52   979.73   992.29
eigval :     1007.82  1010.90  1010.99  1016.49  1028.62  1038.41
eigval :     1062.54  1069.50  1069.95  1069.99  1071.02  1073.45
eigval :     1074.01  1085.53  1116.48  1116.66  1125.76  1133.03
eigval :     1142.35  1142.92  1152.04  1152.54  1154.43  1158.99
eigval :     1174.70  1175.67  1179.50  1180.62  1181.52  1182.88
eigval :     1199.08  1205.81  1206.56  1207.41  1233.18  1233.26
eigval :     1241.28  1241.92  1242.74  1261.12  1263.35  1265.47
eigval :     1266.77  1270.39  1280.38  1291.00  1295.47  1295.81
eigval :     1296.18  1298.62  1299.53  1303.98  1310.29  1317.22
eigval :     1320.94  1324.73  1339.85  1353.86  1354.44  1355.15
eigval :     1355.43  1355.74  1357.85  1358.02  1363.27  1363.68
eigval :     1365.20  1377.84  1408.82  1409.54  1411.54  1421.56
eigval :     1422.54  1425.40  1425.50  1433.29  1471.76  1472.05
eigval :     1477.73  1478.14  1479.24  1485.28  1485.38  1486.31
eigval :     1489.64  1493.46  1495.92  1501.63  1506.28  1509.02
eigval :     1525.17  1536.43  1544.13  1544.51  1573.87  1573.89
eigval :     1584.08  1584.50  1587.67  1587.85  1595.84  1595.95
eigval :     1610.65  1610.86  1702.82  1721.73  2953.37  2957.13
eigval :     2958.95  2959.42  2964.33  2970.52  2972.69  2974.99
eigval :     2979.68  2982.46  2982.56  2989.81  2992.74  2998.93
eigval :     3023.63  3027.56  3040.89  3073.24  3073.65  3073.77
eigval :     3073.95  3079.46  3079.47  3080.16  3080.30  3082.12
eigval :     3084.94  3087.49  3087.75  3088.72  3088.85  3093.80
eigval :     3093.88  3095.78  3095.87  3097.45  3097.50  3101.18
eigval :     3101.54  3136.76  3137.40

   temp. (K)  partition function   enthalpy   heat capacity  entropy
                                   cal/mol     cal/K/mol   cal/K/mol   J/K/mol
 298.15  VIB  0.202E+25            28388.884    172.473    181.169
         ROT  0.239E+09              888.752      2.981     41.318
         INT  0.484E+33            29277.637    175.454    222.488
         TR   0.198E+29             1481.254      4.968     45.695
         TOT                       30758.8906   180.4218   268.1827  1122.0763

       T/K    H(0)-H(T)+PV         H(T)/Eh          T*S/Eh         G(T)/Eh
   ------------------------------------------------------------------------
    298.15    0.490174E-01    0.813310E+00    0.127422E+00    0.685888E+00
   ------------------------------------------------------------------------

         :::::::::::::::::::::::::::::::::::::::::::::::::::::
         ::                  THERMODYNAMIC                  ::
         :::::::::::::::::::::::::::::::::::::::::::::::::::::
         :: total free energy        -147.643088745163 Eh   ::
         ::.................................................::
         :: total energy             -148.328976643654 Eh   ::
         :: zero point energy           0.764292728202 Eh   ::
         :: G(RRHO) w/o ZPVE           -0.078404829711 Eh   ::
         :: G(RRHO) contrib.            0.685887898491 Eh   ::
         :::::::::::::::::::::::::::::::::::::::::::::::::::::

           -------------------------------------------------
          | TOTAL ENERGY             -148.328976643654 Eh   |
          | TOTAL ENTHALPY           -147.515666503209 Eh   |
          | TOTAL FREE ENERGY        -147.643088745163 Eh   |
          | GRADIENT NORM               0.000037435814 Eh/α |
          | HOMO-LUMO GAP               1.519553815688 eV   |
           -------------------------------------------------

 * finished run on 2025/08/29 at 23:12:13.003
