   * xtb version 6.7.1 (edcfbbe) compiled by 'albert@albert-system' on 2024-07-22

   ID    Z sym.   atoms
    1    8 O      1, 14, 36, 48
    2    6 C      2-6, 8-13, 15-35, 37-40, 42-47, 49-56
    3    7 N      7, 41
    4    1 H      57-88

          program call               : xtb data2507/toluene/D-BP-PXZ/D-BP-PXZ_toluene_S0_finalOpt.xtbopt.xyz --gfn 2 --uhf 2 --gbsa toluene --ohess vtight --parallel 40 --molden --ceasefiles --namespace data2507/toluene/D-BP-PXZ/D-BP-PXZ_toluene_T1_preOpt
      * Solvation model:               GBSA
        Solvent                        toluene
        Solvent mass                       9.2140E+01 g/mol
          :  Hamiltonian                  GFN2-xTB          :
 * total energy  :  -145.5175137 Eh     change       -0.1554602E-07 Eh
 * total energy  :  -145.5212057 Eh     change       -0.3692006E-02 Eh
 * total energy  :  -145.5224547 Eh     change       -0.1248952E-02 Eh
 * total energy  :  -145.5228833 Eh     change       -0.4286084E-03 Eh
 * total energy  :  -145.5232631 Eh     change       -0.3798281E-03 Eh
 * total energy  :  -145.5235137 Eh     change       -0.2506033E-03 Eh
 * total energy  :  -145.5237308 Eh     change       -0.2170982E-03 Eh
 * total energy  :  -145.5238775 Eh     change       -0.1467132E-03 Eh
 * total energy  :  -145.5239859 Eh     change       -0.1083929E-03 Eh
 * total energy  :  -145.5240724 Eh     change       -0.8651457E-04 Eh
 * total energy  :  -145.5255006 Eh     change       -0.7890764E-06 Eh
 * total energy  :  -145.5255013 Eh     change       -0.7421986E-06 Eh
 * total energy  :  -145.5255020 Eh     change       -0.7199973E-06 Eh
 * total energy  :  -145.5255028 Eh     change       -0.7264386E-06 Eh
 * total energy  :  -145.5255035 Eh     change       -0.7378448E-06 Eh
 * total energy  :  -145.5255042 Eh     change       -0.7301577E-06 Eh
 * total energy  :  -145.5255049 Eh     change       -0.6900844E-06 Eh
 * total energy  :  -145.5255055 Eh     change       -0.6079385E-06 Eh
 * total energy  :  -145.5255055 Eh     change       -0.2544425E-08 Eh
   *** GEOMETRY OPTIMIZATION CONVERGED AFTER 94 ITERATIONS ***

 final structure:
================
88
 xtb: 6.7.1 (edcfbbe)
O            0.37466370290506       -1.69884649234316        1.56087924381974
C           -0.16988471333361       -1.33478809914102        0.49595778185746
C           -1.60430041350423       -1.05306493732865        0.43890739800799
C           -2.26536785224107       -0.66715955689598        1.61433901732529
C           -3.60594812596145       -0.36150233994326        1.60241244990788
C           -4.33055711736400       -0.47321171917753        0.41662335943637
N           -5.71416390541316       -0.15004349528958        0.39333636157427
C           -6.12275717495266        1.16817154203011        0.50118896987305
C           -5.21327208275717        2.21893770802567        0.62169636982341
C           -5.66170804156427        3.52200323211120        0.72440947654737
C           -7.01945946864576        3.80662746782146        0.70136303450024
C           -7.93687025112680        2.77936363306719        0.56484100263721
C           -7.49804723294497        1.46832817626337        0.46289031582173
O           -8.44620139038159        0.49781523220518        0.31422090112119
C           -8.02849421702247       -0.79775559480551        0.21773687562095
C           -9.00299021285647       -1.77443630942618        0.08192957895955
C           -8.64004404141941       -3.10754344782187       -0.00066482625909
C           -7.30073978169892       -3.46412168180384        0.06270609723940
C           -6.32178086965867       -2.49784612468614        0.19567088686199
C           -6.66512068772141       -1.14727915830755        0.26237409033768
C           -3.70384878716985       -0.92017487625282       -0.74507153375556
C           -2.35836041062130       -1.20808809642622       -0.73386234500739
C            0.60958500671025       -1.36098572232716       -0.76408420731291
C            1.57165975532033       -2.36364894403384       -0.88978078734803
C            2.36180631333947       -2.46974302364314       -2.01758675000913
C            2.20753228773549       -1.55699680716587       -3.04692635166377
C            1.27562038678483       -0.53935774030405       -2.92632515157358
C            0.47342027555525       -0.41840897918418       -1.79729720132304
C           -0.47121267007299        0.71095465706196       -1.70812922255453
C           -1.27137316761946        1.01032213416513       -2.80490046260051
C           -2.19822082088364        2.03896078526615       -2.76576830724580
C           -2.34912535343210        2.78106284642801       -1.60694450253605
C           -1.56257235191400        2.49513673208604       -0.50815324813796
C           -0.60569285565095        1.48031060007127       -0.54004007282278
C            0.17080530993711        1.25402172885542        0.70180586630060
O           -0.37639237317326        1.44621948826338        1.80945205816260
C            1.60458523949183        0.98209805235803        0.60457257465101
C            2.26229612750419        0.41870614547275        1.70820018376939
C            3.60114841618916        0.11196302053687        1.65075545892286
C            4.32793707818889        0.39639299898870        0.49511581230101
N            5.70808806632132        0.06988212048903        0.42532662606252
C            6.10790692948855       -1.25538887482439        0.38760635833072
C            5.19174600134574       -2.30744934851946        0.38180805250339
C            5.63212959299909       -3.61678027062664        0.34789858538175
C            6.98854843603688       -3.90625592030362        0.30962661442631
C            7.91254195917140       -2.87612919985764        0.29265014660138
C            7.48164483567688       -1.55897970373135        0.32743958053445
O            8.43667549199263       -0.58479259355325        0.29064041965819
C            8.02781723975477        0.71637372222089        0.33121645908775
C            9.01014267903974        1.69435232250909        0.30525054100909
C            8.65759071171823        3.03132313857696        0.36471044309897
C            7.32070730084785        3.38896262345076        0.46357103304796
C            6.33428203023755        2.42157501152260        0.48983552449742
C            6.66665072321790        1.06893610533732        0.40791527066354
C            3.70481875790400        1.01868305982921       -0.58522997685406
C            2.36147371810783        1.31097321357744       -0.53008366391042
H           -1.68643226700878       -0.58933944342551        2.52176360033648
H           -4.10277256257626       -0.04019088515137        2.50631640693220
H           -4.15698648522026        2.00232685391001        0.62765973865367
H           -4.94280075317083        4.32020784400218        0.82256633451683
H           -7.36416032337581        4.82505324601500        0.78279596057044
H           -8.99775102043262        2.96903518692942        0.53330493145991
H          -10.03560751413178       -1.46616603348409        0.04824705022392
H           -9.40115399251438       -3.86390198350678       -0.10624700413206
H           -7.01337109055834       -4.50261336236127        0.01226853813316
H           -5.28237436538637       -2.77813826746266        0.25482432864680
H           -4.27930019426003       -1.03203827246980       -1.65241155979060
H           -1.88492464600642       -1.58061207771759       -1.62910390769853
H            1.66983862433409       -3.06527270719122       -0.07254930629249
H            3.09414688735248       -3.25997681602269       -2.09309393058296
H            2.81769199319266       -1.62727574895449       -3.93523742059054
H            1.18542479362514        0.19624021819741       -3.71312894176215
H           -1.18295059037024        0.40634384151880       -3.69691427319654
H           -2.80625916396988        2.25075555278997       -3.63280653791072
H           -3.07644406855065        3.57800070347155       -1.55954134250523
H           -1.65985662410278        3.05976169825542        0.40920922952072
H            1.68175351969100        0.20757566717485        2.59312663202773
H            4.09552955162977       -0.34374617829512        2.49643187901744
H            4.13641249950134       -2.08708019023879        0.39958872551943
H            4.90783342584421       -4.41615230274386        0.35050178537087
H            7.32682154864755       -4.92980249950740        0.28566696045581
H            8.97272718811388       -3.06777147504704        0.25079398625126
H           10.04049766600665        1.38306974074853        0.24272652621939
H            9.42456590962385        3.78878158638628        0.34256160920615
H            7.04102039403061        4.42894957912916        0.52532513456828
H            5.29736107647367        2.70283928729302        0.57940495336202
H            4.28120548283985        1.26178007623213       -1.46591022341515
H            1.89124326280011        1.81889556428192       -1.35785226601844

          :  Hamiltonian                  GFN2-xTB          :
         :: gradient norm              0.000042747966 Eh/a0 ::
         :: HOMO-LUMO gap              0.555845705991 eV    ::
         :: SCC energy              -148.014345603819 Eh    ::
         :: -> dispersion             -0.142973557876 Eh    ::
         :: -> Gsolv                  -0.076655836135 Eh    ::
         :: repulsion energy           2.488840078777 Eh    ::

    * Orbital Energies and Occupations

         #    Occupation            Energy/Eh            Energy/eV
      -------------------------------------------------------------
         1        2.0000           -0.7562008             -20.5773
       ...           ...                  ...                  ...
       122        2.0000           -0.4114562             -11.1963
       123        2.0000           -0.4097691             -11.1504
       124        2.0000           -0.4079916             -11.1020
       125        2.0000           -0.4034066             -10.9773
       126        2.0000           -0.4020081             -10.9392
       127        2.0000           -0.3991316             -10.8609
       128        2.0000           -0.3971412             -10.8068
       129        2.0000           -0.3837180             -10.4415
       130        1.9990           -0.3676585             -10.0045
       131        1.9952           -0.3662073              -9.9650
       132        1.5642           -0.3613758              -9.8335
       133        1.4416           -0.3609071              -9.8208
       134        1.0000           -0.2842831              -7.7357 (HOMO)
       135        0.0000           -0.2638562              -7.1799 (LUMO)
       136        0.0000           -0.2597159              -7.0672
       137        0.0000           -0.2596196              -7.0646
       138                         -0.2468989              -6.7185
       139                         -0.2468309              -6.7166
       140                         -0.2450170              -6.6673
       141                         -0.2335820              -6.3561
       142                         -0.2327932              -6.3346
       143                         -0.2289148              -6.2291
       144                         -0.2270154              -6.1774
       145                         -0.2250126              -6.1229
       ...                                ...                  ...
       256                          0.6849388              18.6381
      -------------------------------------------------------------
                  HL-Gap            0.0204270 Eh            0.5558 eV

     #   Z          covCN         q      C6AA      α(0)
     1   8 O        0.858    -0.523    24.298     6.609
     2   6 C        2.832     0.192    23.902     8.011
     3   6 C        2.969    -0.017    28.431     8.746
     4   6 C        2.925    -0.013    28.343     8.731
     5   6 C        2.916    -0.038    28.955     8.824
     6   6 C        2.925     0.045    26.995     8.521
     7   7 N        2.752    -0.020    21.627     6.907
     8   6 C        2.926     0.048    26.927     8.510
     9   6 C        2.920    -0.047    29.164     8.856
    10   6 C        2.918    -0.027    28.676     8.781
    11   6 C        2.919    -0.028    28.700     8.785
    12   6 C        2.916    -0.051    29.267     8.871
    13   6 C        2.885     0.131    25.124     8.218
    14   8 O        1.709    -0.221    17.671     5.676
    15   6 C        2.885     0.132    25.119     8.217
    16   6 C        2.916    -0.051    29.257     8.870
    17   6 C        2.919    -0.028    28.699     8.785
    18   6 C        2.918    -0.028    28.701     8.785
    19   6 C        2.920    -0.049    29.205     8.862
    20   6 C        2.925     0.047    26.938     8.512
    21   6 C        2.917    -0.042    29.037     8.836
    22   6 C        2.921    -0.037    28.920     8.819
    23   6 C        2.972    -0.022    28.559     8.766
    24   6 C        2.928    -0.030    28.748     8.793
    25   6 C        2.916    -0.035    28.877     8.812
    26   6 C        2.918    -0.037    28.912     8.817
    27   6 C        2.925    -0.038    28.944     8.823
    28   6 C        2.976     0.003    27.954     8.673
    29   6 C        2.976     0.003    27.954     8.673
    30   6 C        2.925    -0.038    28.945     8.823
    31   6 C        2.918    -0.037    28.911     8.817
    32   6 C        2.916    -0.035    28.879     8.812
    33   6 C        2.928    -0.030    28.748     8.793
    34   6 C        2.972    -0.022    28.558     8.766
    35   6 C        2.832     0.192    23.902     8.012
    36   8 O        0.858    -0.523    24.300     6.609
    37   6 C        2.969    -0.017    28.430     8.746
    38   6 C        2.925    -0.013    28.342     8.730
    39   6 C        2.917    -0.038    28.956     8.824
    40   6 C        2.925     0.045    26.995     8.520
    41   7 N        2.752    -0.019    21.613     6.905
    42   6 C        2.926     0.048    26.931     8.510
    43   6 C        2.920    -0.047    29.162     8.856
    44   6 C        2.918    -0.027    28.677     8.782
    45   6 C        2.919    -0.028    28.698     8.785
    46   6 C        2.916    -0.051    29.266     8.871
    47   6 C        2.885     0.131    25.123     8.217
    48   8 O        1.709    -0.221    17.668     5.675
    49   6 C        2.885     0.132    25.117     8.216
    50   6 C        2.916    -0.051    29.257     8.870
    51   6 C        2.919    -0.028    28.697     8.785
    52   6 C        2.918    -0.028    28.702     8.785
    53   6 C        2.920    -0.049    29.208     8.863
    54   6 C        2.925     0.047    26.943     8.512
    55   6 C        2.917    -0.042    29.040     8.837
    56   6 C        2.921    -0.037    28.922     8.819
    57   1 H        0.926     0.042     2.416     2.431
    58   1 H        0.926     0.040     2.446     2.446
    59   1 H        0.926     0.054     2.267     2.355
    60   1 H        0.926     0.056     2.246     2.344
    61   1 H        0.926     0.062     2.172     2.305
    62   1 H        0.926     0.069     2.096     2.264
    63   1 H        0.926     0.069     2.100     2.266
    64   1 H        0.926     0.063     2.168     2.302
    65   1 H        0.926     0.059     2.211     2.325
    66   1 H        0.926     0.054     2.272     2.357
    67   1 H        0.926     0.044     2.391     2.418
    68   1 H        0.926     0.036     2.508     2.477
    69   1 H        0.925     0.027     2.636     2.539
    70   1 H        0.926     0.035     2.518     2.481
    71   1 H        0.926     0.036     2.501     2.473
    72   1 H        0.926     0.036     2.505     2.475
    73   1 H        0.926     0.036     2.506     2.475
    74   1 H        0.926     0.036     2.501     2.473
    75   1 H        0.926     0.035     2.514     2.479
    76   1 H        0.925     0.027     2.635     2.539
    77   1 H        0.926     0.042     2.418     2.431
    78   1 H        0.926     0.040     2.447     2.446
    79   1 H        0.926     0.055     2.262     2.352
    80   1 H        0.926     0.056     2.246     2.344
    81   1 H        0.926     0.062     2.171     2.304
    82   1 H        0.926     0.069     2.095     2.264
    83   1 H        0.926     0.069     2.099     2.266
    84   1 H        0.926     0.063     2.167     2.302
    85   1 H        0.926     0.059     2.209     2.324
    86   1 H        0.926     0.055     2.264     2.353
    87   1 H        0.926     0.045     2.385     2.415
    88   1 H        0.926     0.036     2.508     2.476

molecular dipole:
                 x           y           z       tot (Debye)
 q only:        0.024       0.162      -2.292
   full:        0.024       0.161      -2.284       5.819

 projected vibrational frequencies (cm⁻¹)
eigval :       -0.00    -0.00    -0.00     0.00     0.00     0.00
eigval :        8.73    11.77    14.15    21.22    24.67    30.76
eigval :       39.36    47.44    49.43    54.18    56.75    66.52
eigval :       71.28    76.67    98.94   108.00   109.20   119.94
eigval :      120.11   141.74   143.46   154.56   158.06   166.01
eigval :      174.15   192.49   206.32   212.68   217.06   237.40
eigval :      242.03   245.34   257.34   266.41   278.48   279.84
eigval :      288.08   297.19   310.14   322.64   336.46   370.23
eigval :      374.23   378.10   386.82   388.84   390.82   392.77
eigval :      398.06   404.28   418.82   421.15   431.95   434.37
eigval :      450.45   450.76   458.67   459.71   473.76   476.89
eigval :      496.52   497.80   500.92   522.62   529.88   530.16
eigval :      543.39   544.93   553.84   565.61   579.87   580.97
eigval :      586.64   588.09   589.31   598.60   606.19   610.28
eigval :      619.71   627.76   636.98   666.75   668.41   670.57
eigval :      671.73   674.36   674.93   680.47   680.78   705.56
eigval :      712.40   717.07   734.07   766.41   773.70   776.64
eigval :      777.39   780.84   781.04   783.83   798.92   800.06
eigval :      805.34   808.41   852.15   856.05   856.13   856.50
eigval :      869.91   870.35   873.26   874.13   875.98   883.12
eigval :      891.03   894.04   901.63   903.54   904.59   905.06
eigval :      905.80   906.91   907.48   912.93   913.72   915.19
eigval :      915.36   916.98   919.30   919.60   919.92   920.38
eigval :      923.62   923.68   934.97   940.66   996.81  1010.45
eigval :     1016.90  1082.29  1082.45  1083.83  1084.22  1097.15
eigval :     1100.60  1102.18  1113.49  1113.80  1119.19  1120.76
eigval :     1130.94  1132.71  1142.35  1159.22  1163.50  1166.92
eigval :     1169.59  1169.89  1172.67  1176.40  1178.66  1182.20
eigval :     1183.33  1190.85  1195.19  1209.60  1209.64  1214.04
eigval :     1219.76  1236.06  1236.34  1244.91  1248.25  1251.13
eigval :     1252.46  1255.35  1261.14  1261.96  1262.97  1281.40
eigval :     1304.46  1305.68  1306.35  1308.20  1310.40  1316.38
eigval :     1316.45  1324.76  1331.29  1332.45  1340.18  1345.50
eigval :     1401.25  1405.65  1407.62  1411.85  1415.10  1415.42
eigval :     1431.28  1432.49  1432.75  1437.64  1438.24  1446.55
eigval :     1455.95  1456.71  1463.46  1477.03  1477.99  1513.34
eigval :     1515.33  1538.13  1550.95  1551.30  1552.95  1554.31
eigval :     1558.30  1560.16  1560.23  1563.37  1565.48  1569.36
eigval :     1576.58  1579.89  1581.23  1587.45  3066.36  3066.66
eigval :     3067.48  3069.62  3076.38  3076.75  3076.89  3077.76
eigval :     3078.82  3079.55  3087.73  3088.73  3094.58  3095.09
eigval :     3097.22  3097.42  3097.61  3097.80  3099.75  3101.23
eigval :     3105.17  3105.34  3105.69  3105.70  3113.36  3113.53
eigval :     3114.66  3114.73  3116.52  3116.72  3117.54  3117.81

   temp. (K)  partition function   enthalpy   heat capacity  entropy
                                   cal/mol     cal/K/mol   cal/K/mol   J/K/mol
 298.15  VIB  0.984E+20            26039.068    166.084    161.086
         ROT  0.107E+09              888.752      2.981     39.726
         INT  0.106E+29            26927.820    169.065    200.812
         TR   0.189E+29             1481.254      4.968     45.601
         TOT                       28409.0739   174.0332   246.4130  1030.9922

       T/K    H(0)-H(T)+PV         H(T)/Eh          T*S/Eh         G(T)/Eh
   ------------------------------------------------------------------------
    298.15    0.452727E-01    0.703327E+00    0.117079E+00    0.586248E+00
   ------------------------------------------------------------------------

         :::::::::::::::::::::::::::::::::::::::::::::::::::::
         ::                  THERMODYNAMIC                  ::
         :::::::::::::::::::::::::::::::::::::::::::::::::::::
         :: total free energy        -144.939257031874 Eh   ::
         ::.................................................::
         :: total energy             -145.525505524323 Eh   ::
         :: zero point energy           0.658054539200 Eh   ::
         :: G(RRHO) w/o ZPVE           -0.071806046751 Eh   ::
         :: G(RRHO) contrib.            0.586248492449 Eh   ::
         :::::::::::::::::::::::::::::::::::::::::::::::::::::

           -------------------------------------------------
          | TOTAL ENERGY             -145.525505524323 Eh   |
          | TOTAL ENTHALPY           -144.822178244153 Eh   |
          | TOTAL FREE ENERGY        -144.939257031874 Eh   |
          | GRADIENT NORM               0.000048645458 Eh/α |
          | HOMO-LUMO GAP               0.555845613834 eV   |
           -------------------------------------------------

 * finished run on 2025/08/23 at 06:32:21.377
