   * xtb version 6.7.1 (edcfbbe) compiled by 'albert@albert-system' on 2024-07-22

   ID    Z sym.   atoms
    1    8 O      1, 14, 36, 48
    2    6 C      2-6, 8-13, 15-35, 37-40, 42-47, 49-56
    3    7 N      7, 41
    4    1 H      57-88

          program call               : xtb data2507/toluene/D-BP-PXZ/D-BP-PXZ_toluene_T1_crest.xyz --gfn 2 --uhf 2 --gbsa toluene --ohess vtight --parallel 40 --molden --ceasefiles --namespace data2507/toluene/D-BP-PXZ/D-BP-PXZ_toluene_T1_finalOpt
      * Solvation model:               GBSA
        Solvent                        toluene
        Solvent mass                       9.2140E+01 g/mol
          :  Hamiltonian                  GFN2-xTB          :
 * total energy  :  -145.5242249 Eh     change       -0.2497671E-08 Eh
 * total energy  :  -145.5245657 Eh     change       -0.3408395E-03 Eh
 * total energy  :  -145.5246784 Eh     change       -0.1126598E-03 Eh
 * total energy  :  -145.5246975 Eh     change       -0.1906019E-04 Eh
 * total energy  :  -145.5247134 Eh     change       -0.1596045E-04 Eh
 * total energy  :  -145.5247296 Eh     change       -0.1621301E-04 Eh
 * total energy  :  -145.5247397 Eh     change       -0.1003739E-04 Eh
 * total energy  :  -145.5247485 Eh     change       -0.8811790E-05 Eh
 * total energy  :  -145.5247544 Eh     change       -0.5888352E-05 Eh
 * total energy  :  -145.5247596 Eh     change       -0.5249910E-05 Eh
 * total energy  :  -145.5252483 Eh     change       -0.6580120E-06 Eh
 * total energy  :  -145.5252490 Eh     change       -0.6505188E-06 Eh
 * total energy  :  -145.5252495 Eh     change       -0.4771479E-06 Eh
 * total energy  :  -145.5252498 Eh     change       -0.3475711E-06 Eh
 * total energy  :  -145.5252501 Eh     change       -0.2782824E-06 Eh
 * total energy  :  -145.5252504 Eh     change       -0.2555780E-06 Eh
 * total energy  :  -145.5252506 Eh     change       -0.2760699E-06 Eh
 * total energy  :  -145.5252508 Eh     change       -0.2118754E-06 Eh
 * total energy  :  -145.5252509 Eh     change       -0.9824097E-07 Eh
   *** GEOMETRY OPTIMIZATION CONVERGED AFTER 62 ITERATIONS ***

 final structure:
================
88
 xtb: 6.7.1 (edcfbbe)
O            3.76138756607679       -0.85531579255264       -1.78241321575624
C            3.49841159227353       -1.20861675326204       -0.61070095802159
C            2.12592626585712       -1.51551774376390       -0.21972129396469
C            1.68116979086968       -1.61180599096876        1.10809240718125
C            0.37022524363581       -1.92736430542317        1.38854333089516
C           -0.53119961349377       -2.17894277462639        0.35159621658265
N           -1.87831793881346       -2.54451532670954        0.61204884642419
C           -2.78093919547125       -1.63099003712370        1.13163884249243
C           -2.39216959135911       -0.36234869393019        1.55802396325467
C           -3.32572165985454        0.52588674873254        2.05798151911502
C           -4.66499414491607        0.17708966026176        2.13283599351854
C           -5.07292340723409       -1.07358778653732        1.70422179425814
C           -4.14381072735370       -1.97456177958721        1.20852032934660
O           -4.61114556917647       -3.18420308523948        0.78675104641633
C           -3.70515339806367       -4.09514867802756        0.32647090455046
C           -4.18659092680054       -5.33872580686202       -0.05210324276848
C           -3.31334182581251       -6.30789291637677       -0.51452145892975
C           -1.95497535665989       -6.03529999257361       -0.58584215532603
C           -1.46644044575923       -4.79710552548253       -0.21414443079976
C           -2.33217713311762       -3.79926171854664        0.23477711570362
C           -0.10342955463945       -2.07967137184382       -0.97399702102289
C            1.19429060096690       -1.73226928549140       -1.25079197878745
C            4.59513469138318       -1.49353779298234        0.34273132857882
C            4.59708754025176       -2.65095804753702        1.11471900119865
C            5.66592115232540       -2.94668780324445        1.94191339171740
C            6.75075778657867       -2.08879375505500        2.00478292543777
C            6.76530917103245       -0.93838100647576        1.23406567866838
C            5.70077273820485       -0.63055076743275        0.39929854264801
C            5.70449945088654        0.60289792512375       -0.40215722093361
C            6.77186052107360        0.90532855106831       -1.23526146119650
C            6.76397098509395        2.05548533044294       -2.00647763515997
C            5.68289209309131        2.91828671852817       -1.94602538263794
C            4.61141025449611        2.62812312619087       -1.12026996944750
C            4.60298590077600        1.47127597249891       -0.34746259714051
C            3.50463594780662        1.19214055144958        0.60570637549402
O            3.76603160481646        0.83732693019879        1.77740961566562
C            2.13371266962640        1.50600108188136        0.21522528862872
C            1.20349455842735        1.72617842055242        1.24688752251846
C           -0.09264980545409        2.07987312164997        0.97093846263386
C           -0.52045338504877        2.18242833519248       -0.35441983206089
N           -1.86611443288632        2.55400475177184       -0.61374037041045
C           -2.31496281934524        3.80940599107771       -0.23264517165957
C           -1.44500339749560        4.80290812331471        0.21775870288354
C           -1.92857831573401        6.04176334492045        0.59370606220370
C           -3.28606904268420        6.31937476460598        0.52514677926290
C           -4.16342822545676        5.35468058537537        0.06115408604132
C           -3.68698266184584        4.11048022135879       -0.32167911555056
O           -4.59684000062550        3.20402997344206       -0.78318575600706
C           -4.13454123353307        1.99350901026419       -1.20797460414931
C           -5.06771994624335        1.09689615215526       -1.70393594129326
C           -4.66505144286683       -0.15442870499901       -2.13560393688516
C           -3.32695813083253       -0.50830177909569       -2.06346316615291
C           -2.38938105268040        0.37551323584555       -1.56320211572990
C           -2.77282729147544        1.64477948242588       -1.13381466264852
C            0.37941307376209        1.92777122115212       -1.39197950999675
C            1.68894533293071        1.60565987112331       -1.11235122937186
H            2.37089287321105       -1.39882071854510        1.91118901265321
H            0.03824637382185       -2.00099598847316        2.41395129143981
H           -1.35363275879941       -0.08230675859518        1.48864505862608
H           -3.00485455953020        1.49963734686118        2.39426132780523
H           -5.39019478320391        0.87431036763196        2.52070931514773
H           -6.10742684043571       -1.37409010255375        1.74200514840575
H           -5.24584192765141       -5.52351378605820        0.02679471683621
H           -3.69175848244639       -7.27351362507627       -0.80912124368958
H           -1.26784554728912       -6.79186641391364       -0.93092909395847
H           -0.40888693123751       -4.59275446177296       -0.26385437509379
H           -0.79611760006047       -2.28628897495385       -1.77605135924052
H            1.54291456621705       -1.63972451352019       -2.26902099787012
H            3.76264036469298       -3.33485650845670        1.04682089715688
H            5.65141456712793       -3.84939591785198        2.53551160240904
H            7.58582843598892       -2.31396778747867        2.65211575747826
H            7.60250089789618       -0.25679430072337        1.29054694604093
H            7.60594523303360        0.21980708750474       -1.29000781419428
H            7.60130444797953        2.27661173692790       -2.65229285623990
H            5.67347502392569        3.82062877514384       -2.54028856593854
H            3.78011729685692        3.31601880470428       -1.05409908516239
H            1.55210043329513        1.63089738326478        2.26486150201510
H           -0.78406901278192        2.28889256730094        1.77347441758974
H           -0.38811380778562        4.59465563674035        0.26532921143450
H           -1.23825088731463        6.79485607906080        0.94000111425849
H           -3.66062339388920        7.28545046475749        0.82314803981088
H           -5.22211637098740        5.54350012063649       -0.01564759863338
H           -6.10118013885122        1.40123491035608       -1.73944994091818
H           -5.39343269792512       -0.84824455731562       -2.52361111899454
H           -3.01017015634884       -1.48254642405426       -2.40215716268433
H           -1.35182211843282        0.09136881643318       -1.49587320413454
H            0.04742546066915        2.00417004092991       -2.41718251638098
H            2.37731227373596        1.39013497554637       -1.91592707108224

          :  Hamiltonian                  GFN2-xTB          :
         :: gradient norm              0.000055119319 Eh/a0 ::
         :: HOMO-LUMO gap              0.423293853974 eV    ::
         :: SCC energy              -148.015741667299 Eh    ::
         :: -> dispersion             -0.148867404963 Eh    ::
         :: -> Gsolv                  -0.073943530098 Eh    ::
         :: repulsion energy           2.490490686621 Eh    ::

    * Orbital Energies and Occupations

         #    Occupation            Energy/Eh            Energy/eV
      -------------------------------------------------------------
         1        2.0000           -0.7574893             -20.6123
       ...           ...                  ...                  ...
       122        2.0000           -0.4117222             -11.2035
       123        2.0000           -0.4115826             -11.1997
       124        2.0000           -0.4097165             -11.1490
       125        2.0000           -0.4083543             -11.1119
       126        2.0000           -0.4026390             -10.9564
       127        2.0000           -0.3988734             -10.8539
       128        2.0000           -0.3971944             -10.8082
       129        2.0000           -0.3822363             -10.4012
       130        1.9965           -0.3686999             -10.0328
       131        1.9771           -0.3668959              -9.9837
       132        1.5786           -0.3636300              -9.8949
       133        1.4478           -0.3631298              -9.8813
       134        0.9997           -0.2852142              -7.7611 (HOMO)
       135        0.0003           -0.2696585              -7.3378 (LUMO)
       136        0.0000           -0.2632276              -7.1628
       137                         -0.2607603              -7.0956
       138                         -0.2510985              -6.8327
       139                         -0.2478781              -6.7451
       140                         -0.2382467              -6.4830
       141                         -0.2375391              -6.4638
       142                         -0.2338067              -6.3622
       143                         -0.2325726              -6.3286
       144                         -0.2288657              -6.2278
       145                         -0.2273358              -6.1861
       ...                                ...                  ...
       256                          0.6908500              18.7990
      -------------------------------------------------------------
                  HL-Gap            0.0155558 Eh            0.4233 eV

     #   Z          covCN         q      C6AA      α(0)
     1   8 O        0.858    -0.519    24.203     6.596
     2   6 C        2.831     0.193    23.894     8.010
     3   6 C        2.969    -0.022    28.543     8.763
     4   6 C        2.918    -0.030    28.758     8.794
     5   6 C        2.916    -0.041    29.008     8.832
     6   6 C        2.923     0.040    27.094     8.536
     7   7 N        2.752    -0.018    21.603     6.903
     8   6 C        2.925     0.044    27.005     8.522
     9   6 C        2.921    -0.053    29.328     8.881
    10   6 C        2.919    -0.031    28.766     8.795
    11   6 C        2.919    -0.030    28.751     8.793
    12   6 C        2.917    -0.052    29.287     8.874
    13   6 C        2.887     0.131    25.132     8.219
    14   8 O        1.710    -0.220    17.654     5.673
    15   6 C        2.886     0.131    25.127     8.218
    16   6 C        2.916    -0.050    29.252     8.869
    17   6 C        2.919    -0.028    28.694     8.784
    18   6 C        2.918    -0.028    28.705     8.786
    19   6 C        2.921    -0.048    29.192     8.860
    20   6 C        2.927     0.045    26.983     8.519
    21   6 C        2.917    -0.043    29.071     8.842
    22   6 C        2.926    -0.029    28.714     8.788
    23   6 C        2.975    -0.011    28.277     8.723
    24   6 C        2.922    -0.036    28.884     8.813
    25   6 C        2.918    -0.034    28.844     8.807
    26   6 C        2.918    -0.032    28.808     8.802
    27   6 C        2.923    -0.034    28.859     8.810
    28   6 C        2.982     0.023    27.489     8.600
    29   6 C        2.982     0.023    27.490     8.601
    30   6 C        2.923    -0.035    28.859     8.810
    31   6 C        2.918    -0.032    28.809     8.802
    32   6 C        2.918    -0.034    28.844     8.807
    33   6 C        2.921    -0.036    28.884     8.813
    34   6 C        2.975    -0.011    28.276     8.722
    35   6 C        2.831     0.192    23.895     8.010
    36   8 O        0.858    -0.519    24.205     6.596
    37   6 C        2.969    -0.022    28.543     8.763
    38   6 C        2.926    -0.029    28.714     8.788
    39   6 C        2.917    -0.043    29.071     8.842
    40   6 C        2.923     0.040    27.094     8.536
    41   7 N        2.752    -0.018    21.603     6.903
    42   6 C        2.927     0.045    26.983     8.519
    43   6 C        2.921    -0.048    29.192     8.860
    44   6 C        2.918    -0.028    28.706     8.786
    45   6 C        2.919    -0.028    28.694     8.784
    46   6 C        2.916    -0.050    29.252     8.869
    47   6 C        2.886     0.131    25.127     8.218
    48   8 O        1.710    -0.220    17.654     5.673
    49   6 C        2.887     0.131    25.132     8.219
    50   6 C        2.917    -0.052    29.287     8.874
    51   6 C        2.919    -0.030    28.751     8.793
    52   6 C        2.919    -0.031    28.766     8.795
    53   6 C        2.921    -0.053    29.327     8.881
    54   6 C        2.925     0.044    27.005     8.522
    55   6 C        2.916    -0.041    29.009     8.832
    56   6 C        2.918    -0.030    28.759     8.794
    57   1 H        0.926     0.039     2.462     2.454
    58   1 H        0.926     0.044     2.390     2.418
    59   1 H        0.926     0.056     2.252     2.347
    60   1 H        0.926     0.050     2.323     2.383
    61   1 H        0.926     0.061     2.184     2.311
    62   1 H        0.926     0.070     2.085     2.258
    63   1 H        0.926     0.069     2.098     2.265
    64   1 H        0.926     0.062     2.179     2.308
    65   1 H        0.926     0.058     2.226     2.333
    66   1 H        0.926     0.054     2.273     2.358
    67   1 H        0.926     0.046     2.366     2.405
    68   1 H        0.926     0.043     2.411     2.428
    69   1 H        0.926     0.027     2.627     2.535
    70   1 H        0.926     0.036     2.505     2.475
    71   1 H        0.926     0.036     2.503     2.474
    72   1 H        0.926     0.031     2.575     2.509
    73   1 H        0.926     0.031     2.575     2.509
    74   1 H        0.926     0.036     2.503     2.474
    75   1 H        0.926     0.036     2.505     2.475
    76   1 H        0.926     0.027     2.627     2.534
    77   1 H        0.926     0.043     2.411     2.428
    78   1 H        0.926     0.046     2.366     2.405
    79   1 H        0.926     0.054     2.273     2.358
    80   1 H        0.926     0.058     2.226     2.333
    81   1 H        0.926     0.062     2.179     2.308
    82   1 H        0.926     0.069     2.098     2.265
    83   1 H        0.926     0.070     2.085     2.258
    84   1 H        0.926     0.061     2.184     2.311
    85   1 H        0.926     0.050     2.322     2.383
    86   1 H        0.926     0.056     2.251     2.346
    87   1 H        0.926     0.044     2.390     2.417
    88   1 H        0.926     0.039     2.462     2.454

molecular dipole:
                 x           y           z       tot (Debye)
 q only:       -7.729       0.017       0.004
   full:       -7.382       0.017       0.004      18.763

 projected vibrational frequencies (cm⁻¹)
eigval :       -0.00    -0.00    -0.00    -0.00     0.00     0.00
eigval :        8.39    14.04    23.77    28.56    29.02    33.51
eigval :       45.03    45.96    53.44    59.60    65.15    69.49
eigval :       78.69    80.17    92.90   102.14   103.15   107.32
eigval :      117.33   127.41   139.95   143.55   164.98   167.12
eigval :      172.06   185.12   205.21   208.90   220.16   244.32
eigval :      245.05   247.12   250.66   268.80   276.68   280.39
eigval :      280.68   296.30   317.17   322.17   343.01   351.16
eigval :      362.49   377.99   386.41   386.88   390.99   394.32
eigval :      394.67   398.77   419.22   424.09   434.48   435.35
eigval :      452.93   457.04   459.84   461.37   473.94   475.13
eigval :      499.38   499.75   510.50   530.23   530.49   532.11
eigval :      535.84   539.32   554.32   555.41   580.41   581.62
eigval :      585.88   589.09   589.62   602.45   606.67   607.91
eigval :      613.60   629.38   637.55   665.90   668.80   669.96
eigval :      670.58   675.19   675.83   678.15   684.31   709.51
eigval :      714.76   736.06   737.45   755.30   771.28   774.22
eigval :      776.95   777.99   779.31   781.26   800.07   801.16
eigval :      811.63   813.19   856.32   856.38   859.72   862.57
eigval :      869.14   871.13   871.35   872.83   876.54   880.63
eigval :      888.88   892.28   902.63   904.38   904.77   905.11
eigval :      905.22   908.06   911.21   912.36   914.25   915.33
eigval :      917.40   918.32   918.37   918.96   920.09   921.80
eigval :      927.58   928.28   931.54   937.34   994.89  1007.31
eigval :     1016.43  1081.94  1082.05  1085.80  1086.71  1092.02
eigval :     1092.35  1106.22  1113.31  1113.55  1118.55  1120.66
eigval :     1130.20  1131.03  1140.79  1150.61  1163.80  1166.36
eigval :     1169.07  1170.61  1170.74  1174.36  1176.94  1182.37
eigval :     1182.55  1193.55  1195.33  1210.24  1210.95  1214.89
eigval :     1217.76  1236.55  1236.66  1239.09  1240.98  1250.06
eigval :     1253.21  1255.86  1261.06  1261.46  1263.83  1288.46
eigval :     1300.18  1301.92  1305.72  1306.45  1310.62  1316.86
eigval :     1317.38  1321.54  1332.13  1333.40  1340.65  1345.38
eigval :     1392.84  1408.48  1412.27  1416.37  1417.90  1418.61
eigval :     1425.55  1434.46  1434.50  1438.18  1438.94  1443.82
eigval :     1451.60  1452.35  1463.51  1472.50  1475.70  1500.32
eigval :     1502.74  1524.10  1552.14  1552.42  1553.17  1560.39
eigval :     1560.56  1560.68  1564.06  1567.08  1568.96  1572.51
eigval :     1580.81  1581.46  1582.45  1583.88  3063.08  3064.49
eigval :     3065.56  3066.95  3073.22  3073.90  3077.99  3078.23
eigval :     3080.38  3080.66  3084.27  3085.11  3089.51  3090.66
eigval :     3091.81  3092.09  3092.34  3092.91  3097.38  3097.50
eigval :     3105.19  3105.31  3105.95  3106.17  3112.95  3113.03
eigval :     3115.87  3116.52  3116.55  3117.37  3117.77  3118.66

   temp. (K)  partition function   enthalpy   heat capacity  entropy
                                   cal/mol     cal/K/mol   cal/K/mol   J/K/mol
 298.15  VIB  0.277E+20            26034.102    166.738    160.791
         ROT  0.447E+08              888.752      2.981     37.986
         INT  0.124E+28            26922.854    169.719    198.777
         TR   0.189E+29             1481.254      4.968     45.601
         TOT                       28404.1078   174.6871   244.3785  1022.4797

       T/K    H(0)-H(T)+PV         H(T)/Eh          T*S/Eh         G(T)/Eh
   ------------------------------------------------------------------------
    298.15    0.452648E-01    0.703110E+00    0.116112E+00    0.586998E+00
   ------------------------------------------------------------------------

         :::::::::::::::::::::::::::::::::::::::::::::::::::::
         ::                  THERMODYNAMIC                  ::
         :::::::::::::::::::::::::::::::::::::::::::::::::::::
         :: total free energy        -144.938252777014 Eh   ::
         ::.................................................::
         :: total energy             -145.525250982313 Eh   ::
         :: zero point energy           0.657845494090 Eh   ::
         :: G(RRHO) w/o ZPVE           -0.070847288791 Eh   ::
         :: G(RRHO) contrib.            0.586998205299 Eh   ::
         :::::::::::::::::::::::::::::::::::::::::::::::::::::

           -------------------------------------------------
          | TOTAL ENERGY             -145.525250982313 Eh   |
          | TOTAL ENTHALPY           -144.822140661250 Eh   |
          | TOTAL FREE ENERGY        -144.938252777014 Eh   |
          | GRADIENT NORM               0.000055160821 Eh/α |
          | HOMO-LUMO GAP               0.423294332936 eV   |
           -------------------------------------------------

 * finished run on 2025/08/23 at 06:40:42.255
