   * xtb version 6.7.1 (edcfbbe) compiled by 'albert@albert-system' on 2024-07-22

   ID    Z sym.   atoms
    1    8 O      1, 14, 36, 48
    2    6 C      2-6, 8-13, 15-35, 37-40, 42-47, 49-56
    3    7 N      7, 41
    4    1 H      57-88

          program call               : xtb data2507/toluene/D-BP-PXZ/D-BP-PXZ.xyz --gfn 2 --gbsa toluene --ohess vtight --parallel 40 --molden --ceasefiles --namespace data2507/toluene/D-BP-PXZ/D-BP-PXZ_toluene_S0_preOpt
      * Solvation model:               GBSA
        Solvent                        toluene
        Solvent mass                       9.2140E+01 g/mol
          :  Hamiltonian                  GFN2-xTB          :
 * total energy  :  -145.5554756 Eh     change       -0.1145992E-08 Eh
 * total energy  :  -145.5684664 Eh     change       -0.1299078E-01 Eh
 * total energy  :  -145.5731672 Eh     change       -0.4700769E-02 Eh
 * total energy  :  -145.5748161 Eh     change       -0.1648989E-02 Eh
 * total energy  :  -145.5761182 Eh     change       -0.1302082E-02 Eh
 * total energy  :  -145.5769195 Eh     change       -0.8012943E-03 Eh
 * total energy  :  -145.5774409 Eh     change       -0.5213452E-03 Eh
 * total energy  :  -145.5778438 Eh     change       -0.4029591E-03 Eh
 * total energy  :  -145.5781619 Eh     change       -0.3180333E-03 Eh
 * total energy  :  -145.5783913 Eh     change       -0.2294009E-03 Eh
 * total energy  :  -145.5822211 Eh     change       -0.1199091E-05 Eh
 * total energy  :  -145.5822224 Eh     change       -0.1329892E-05 Eh
 * total energy  :  -145.5822235 Eh     change       -0.1071793E-05 Eh
 * total energy  :  -145.5822243 Eh     change       -0.7792005E-06 Eh
 * total energy  :  -145.5822250 Eh     change       -0.6866675E-06 Eh
 * total energy  :  -145.5822257 Eh     change       -0.7388767E-06 Eh
 * total energy  :  -145.5822265 Eh     change       -0.7854098E-06 Eh
 * total energy  :  -145.5822272 Eh     change       -0.6933215E-06 Eh
 * total energy  :  -145.5822272 Eh     change       -0.7444754E-08 Eh
   *** GEOMETRY OPTIMIZATION CONVERGED AFTER 152 ITERATIONS ***

 final structure:
================
88
 xtb: 6.7.1 (edcfbbe)
O            0.09958059063512        1.60036505017033        1.20857931614089
C           -0.44206810530879        1.13224348518720        0.21922461285671
C           -1.79919016069370        0.55106594277749        0.27538073524757
C           -2.57745582117442        0.37142320213553       -0.87070036309010
C           -3.85494006674074       -0.13760910078940       -0.77209241670024
C           -4.38416618480910       -0.48115813690321        0.47280861472446
N           -5.68839897656256       -0.99887797678092        0.56639138316109
C           -6.67651210329390       -0.32284562377307        1.29220936069644
C           -6.43720627108823        0.89070647352958        1.92644677152799
C           -7.44233262118081        1.53791414538171        2.62893050882100
C           -8.70852677403088        0.99229956229570        2.69974172476200
C           -8.97403590761329       -0.20022099781001        2.04337926931212
C           -7.97454172224317       -0.84868694806548        1.34068834095204
O           -8.32905201215107       -2.00545742381241        0.68787361779435
C           -7.34937600498887       -2.65541949739906       -0.02427696510943
C           -7.71646021012668       -3.82464937049330       -0.66585356749917
C           -6.77726862714398       -4.55909867610766       -1.37445645320566
C           -5.46735778942055       -4.12499498534072       -1.41680010460594
C           -5.09579393717634       -2.95247474111367       -0.77689122178144
C           -6.03180595074363       -2.18425283040634       -0.09421963994534
C           -3.61177594720599       -0.30020871325002        1.62101089655551
C           -2.33842727063849        0.21608687088657        1.51995700381363
C            0.24280316378768        1.08335004942792       -1.10315845506659
C            0.37060205562991       -0.14411665974156       -1.74821148951552
C            1.07328419218671       -0.24704434789471       -2.93428272361585
C            1.63753231465244        0.88534211620360       -3.50011583309778
C            1.51065392355841        2.10962001241583       -2.87078956501290
C            0.83177444708896        2.22473471021794       -1.66052857792262
C            0.67963585382592        3.54242719019203       -1.02264250634782
C           -0.58359502389241        3.98581000313326       -0.64152193486391
C           -0.76296639512466        5.24216627197266       -0.09308581431056
C            0.31991402705744        6.09304198338324        0.06224998335261
C            1.57733977384555        5.67676702332287       -0.33110282237553
C            1.77400394186061        4.40225247858804       -0.85647834555450
C            3.15872678999335        4.01955072959692       -1.24110637771096
O            3.87085111933020        4.78712292083799       -1.87221666993501
C            3.64677152217624        2.69637345789805       -0.79816384282377
C            3.14051740630542        2.06665929583443        0.33865903524237
C            3.64106624245368        0.84421225113117        0.73503895814643
C            4.64725486499631        0.22029832954555       -0.00119470787245
N            5.14537378885318       -1.03632923214536        0.39365426892412
C            4.30287647056844       -2.15103122909427        0.46093341967488
C            2.95515248081509       -2.08873172914495        0.12651937840979
C            2.15165722337653       -3.21649757667415        0.19982822324217
C            2.67992840011484       -4.42922510867380        0.59431741920969
C            4.03019198298245       -4.51648480649230        0.89883632822797
C            4.83604505623934       -3.39477109978373        0.82681061004356
O            6.16917576316590       -3.57342339806262        1.11091724337879
C            6.98121457532409       -2.46507646125549        1.05701612678584
C            8.31382368327185       -2.65287202688397        1.37567166267499
C            9.19123911259882       -1.57861987501097        1.37804222344990
C            8.71828951362611       -0.31606423857396        1.08082760175598
C            7.38312263047321       -0.12394237071823        0.75984607247169
C            6.49826373135907       -1.19507072886107        0.71495456968509
C            5.16421536240016        0.85356066807735       -1.13154562645080
C            4.67746897895271        2.08431068876317       -1.51339303664985
H           -2.18982176252915        0.65562851540892       -1.83728985152450
H           -4.46108946716062       -0.26055449226994       -1.65727506242928
H           -5.45985532819269        1.34205932364228        1.86478478757359
H           -7.22383940090200        2.47600286607781        3.11564498986515
H           -9.49365897807413        1.48905996600440        3.24755598721400
H           -9.95683125018583       -0.64465389386732        2.05831399629117
H           -8.74371925900568       -4.14553523232021       -0.59222435415274
H           -7.07378391567621       -5.46761865080677       -1.87447039104121
H           -4.71958652828201       -4.69694098132051       -1.94426017319676
H           -4.06500853067295       -2.63700963624797       -0.80305812889906
H           -4.01596070610917       -0.57483023924694        2.58383052115564
H           -1.72826268127789        0.35793675241364        2.39985675035156
H           -0.07058734462175       -1.02248874465887       -1.30105913670989
H            1.17672413384916       -1.20668297613392       -3.41724353437544
H            2.17508843936346        0.81553064267036       -4.43367702819147
H            1.93267113316283        2.99666658076697       -3.32129915836406
H           -1.43639459776851        3.33911874182123       -0.79193501836444
H           -1.75111225632590        5.56212751611320        0.20220289900240
H            0.18382913975969        7.07829342870515        0.48171382985927
H            2.43345888299161        6.32758203309149       -0.22497160705438
H            2.36317862329251        2.53485022861460        0.92260572989343
H            3.25669290621586        0.36894175190620        1.62512296618370
H            2.53046575583346       -1.15304327823793       -0.20104217288717
H            1.10681411328380       -3.13695222890772       -0.05723142414163
H            2.05832152012149       -5.30847307072181        0.65687654607195
H            4.48268166349578       -5.45114769989619        1.19095011612638
H            8.64332225678508       -3.64945146668811        1.62451082902275
H           10.22982220882904       -1.73515348754134        1.62324841973484
H            9.38211655333081        0.53460670800554        1.10006847915982
H            7.02534265987962        0.87126196766949        0.54848082556799
H            5.94231772204519        0.37128188172458       -1.70423107566164
H            5.06956719441176        2.58513817204888       -2.38641377589940

          :  Hamiltonian                  GFN2-xTB          :
         :: gradient norm              0.000063368509 Eh/a0 ::
         :: HOMO-LUMO gap              1.346358092618 eV    ::
         :: SCC energy              -148.086829981097 Eh    ::
         :: -> dispersion             -0.132136294528 Eh    ::
         :: -> Gsolv                  -0.060547560935 Eh    ::
         :: repulsion energy           2.504602771041 Eh    ::

    * Orbital Energies and Occupations

         #    Occupation            Energy/Eh            Energy/eV
      -------------------------------------------------------------
         1        2.0000           -0.7335466             -19.9608
       ...           ...                  ...                  ...
       121        2.0000           -0.4194842             -11.4147
       122        2.0000           -0.4182683             -11.3817
       123        2.0000           -0.4176825             -11.3657
       124        2.0000           -0.4172487             -11.3539
       125        2.0000           -0.4165135             -11.3339
       126        2.0000           -0.4148626             -11.2890
       127        2.0000           -0.4047117             -11.0128
       128        2.0000           -0.3982818             -10.8378
       129        2.0000           -0.3955152             -10.7625
       130        2.0000           -0.3943044             -10.7296
       131        2.0000           -0.3927518             -10.6873
       132        2.0000           -0.3488026              -9.4914
       133        2.0000           -0.3467603              -9.4358 (HOMO)
       134                         -0.2972826              -8.0895 (LUMO)
       135                         -0.2920015              -7.9458
       136                         -0.2582455              -7.0272
       137                         -0.2462964              -6.7021
       138                         -0.2443301              -6.6486
       139                         -0.2422441              -6.5918
       140                         -0.2418715              -6.5817
       141                         -0.2409419              -6.5564
       142                         -0.2388000              -6.4981
       143                         -0.2335335              -6.3548
       144                         -0.2320588              -6.3146
       ...                                ...                  ...
       256                          0.6740119              18.3408
      -------------------------------------------------------------
                  HL-Gap            0.0494777 Eh            1.3464 eV

     #   Z          covCN         q      C6AA      α(0)
     1   8 O        0.858    -0.417    22.025     6.292
     2   6 C        2.828     0.232    23.150     7.884
     3   6 C        2.971    -0.018    28.457     8.750
     4   6 C        2.919    -0.025    28.619     8.773
     5   6 C        2.920    -0.039    28.965     8.826
     6   6 C        2.921     0.073    26.358     8.419
     7   7 N        2.750    -0.066    22.518     7.048
     8   6 C        2.920     0.041    27.076     8.533
     9   6 C        2.924    -0.060    29.487     8.905
    10   6 C        2.919    -0.038    28.953     8.824
    11   6 C        2.919    -0.040    28.983     8.828
    12   6 C        2.920    -0.057    29.418     8.894
    13   6 C        2.883     0.124    25.287     8.244
    14   8 O        1.708    -0.269    18.461     5.801
    15   6 C        2.883     0.124    25.285     8.244
    16   6 C        2.919    -0.057    29.418     8.894
    17   6 C        2.919    -0.040    28.982     8.828
    18   6 C        2.919    -0.038    28.955     8.824
    19   6 C        2.924    -0.060    29.483     8.904
    20   6 C        2.921     0.041    27.080     8.534
    21   6 C        2.918    -0.038    28.955     8.824
    22   6 C        2.923    -0.015    28.391     8.738
    23   6 C        2.976    -0.017    28.431     8.746
    24   6 C        2.923    -0.027    28.677     8.782
    25   6 C        2.918    -0.027    28.686     8.783
    26   6 C        2.918    -0.024    28.609     8.771
    27   6 C        2.924    -0.030    28.755     8.794
    28   6 C        2.978     0.016    27.641     8.624
    29   6 C        2.977     0.018    27.614     8.620
    30   6 C        2.924    -0.027    28.683     8.783
    31   6 C        2.918    -0.023    28.583     8.767
    32   6 C        2.918    -0.027    28.679     8.782
    33   6 C        2.925    -0.019    28.484     8.752
    34   6 C        2.975    -0.015    28.384     8.739
    35   6 C        2.829     0.231    23.159     7.886
    36   8 O        0.858    -0.420    22.089     6.301
    37   6 C        2.972    -0.017    28.438     8.747
    38   6 C        2.920    -0.023    28.586     8.768
    39   6 C        2.920    -0.037    28.925     8.820
    40   6 C        2.921     0.071    26.403     8.426
    41   7 N        2.750    -0.068    22.566     7.055
    42   6 C        2.921     0.042    27.053     8.529
    43   6 C        2.923    -0.060    29.479     8.904
    44   6 C        2.919    -0.038    28.953     8.824
    45   6 C        2.919    -0.040    29.005     8.832
    46   6 C        2.920    -0.058    29.431     8.896
    47   6 C        2.883     0.123    25.291     8.245
    48   8 O        1.708    -0.269    18.460     5.801
    49   6 C        2.883     0.123    25.298     8.246
    50   6 C        2.919    -0.057    29.427     8.896
    51   6 C        2.919    -0.040    28.994     8.830
    52   6 C        2.919    -0.038    28.953     8.824
    53   6 C        2.924    -0.059    29.477     8.904
    54   6 C        2.921     0.042    27.060     8.531
    55   6 C        2.919    -0.040    29.005     8.832
    56   6 C        2.924    -0.018    28.456     8.748
    57   1 H        0.926     0.053     2.282     2.362
    58   1 H        0.926     0.055     2.262     2.352
    59   1 H        0.926     0.042     2.423     2.434
    60   1 H        0.926     0.043     2.411     2.428
    61   1 H        0.926     0.043     2.403     2.424
    62   1 H        0.926     0.049     2.329     2.387
    63   1 H        0.926     0.049     2.332     2.388
    64   1 H        0.926     0.044     2.401     2.423
    65   1 H        0.926     0.044     2.400     2.422
    66   1 H        0.926     0.042     2.419     2.432
    67   1 H        0.926     0.054     2.269     2.355
    68   1 H        0.926     0.058     2.220     2.330
    69   1 H        0.926     0.045     2.377     2.411
    70   1 H        0.926     0.051     2.302     2.373
    71   1 H        0.926     0.048     2.346     2.395
    72   1 H        0.926     0.036     2.506     2.476
    73   1 H        0.926     0.036     2.496     2.471
    74   1 H        0.926     0.048     2.351     2.398
    75   1 H        0.926     0.048     2.345     2.395
    76   1 H        0.926     0.044     2.400     2.422
    77   1 H        0.926     0.059     2.216     2.328
    78   1 H        0.926     0.051     2.310     2.377
    79   1 H        0.926     0.037     2.490     2.467
    80   1 H        0.926     0.040     2.446     2.446
    81   1 H        0.926     0.044     2.390     2.418
    82   1 H        0.926     0.050     2.322     2.383
    83   1 H        0.926     0.050     2.324     2.384
    84   1 H        0.926     0.044     2.398     2.422
    85   1 H        0.926     0.043     2.415     2.430
    86   1 H        0.926     0.040     2.447     2.446
    87   1 H        0.926     0.053     2.281     2.362
    88   1 H        0.926     0.055     2.256     2.349

molecular dipole:
                 x           y           z       tot (Debye)
 q only:       -1.501      -1.098      -0.474
   full:       -1.577      -1.058      -0.481       4.980

 projected vibrational frequencies (cm⁻¹)
eigval :       -0.00    -0.00     0.00     0.00     0.00     0.00
eigval :        4.54    12.66    15.93    17.91    27.03    29.38
eigval :       35.15    37.26    40.89    41.79    54.99    58.19
eigval :       62.82    70.99    76.12    86.13    88.48   117.95
eigval :      121.19   122.64   125.92   133.16   155.16   158.87
eigval :      168.77   177.06   188.74   208.82   217.47   236.16
eigval :      242.79   251.62   253.00   263.56   274.92   277.01
eigval :      281.15   293.32   305.47   323.70   342.31   346.03
eigval :      368.46   375.39   378.87   380.85   384.61   386.50
eigval :      393.43   395.74   419.59   420.24   432.33   432.37
eigval :      447.29   447.59   458.53   463.86   472.46   479.99
eigval :      508.23   510.70   510.72   523.56   523.82   528.33
eigval :      544.94   546.18   554.72   562.76   585.05   585.51
eigval :      588.88   591.33   592.73   607.59   608.95   627.56
eigval :      633.97   655.07   660.50   661.00   662.27   662.63
eigval :      663.58   669.76   676.73   694.74   710.00   722.29
eigval :      732.55   737.27   742.65   763.68   774.41   778.18
eigval :      778.65   780.88   783.86   790.72   799.59   800.28
eigval :      826.90   828.44   853.90   854.06   862.61   864.34
eigval :      866.31   869.50   875.85   878.49   887.80   890.84
eigval :      894.98   896.64   897.38   898.31   899.21   901.23
eigval :      909.38   914.60   915.52   915.57   915.84   916.57
eigval :      921.29   923.11   928.06   929.82   931.79   932.29
eigval :      935.52   937.26   939.09   943.85   998.36  1016.46
eigval :     1023.18  1089.26  1089.75  1090.43  1091.73  1094.48
eigval :     1096.45  1106.30  1106.49  1113.58  1117.61  1118.42
eigval :     1132.03  1134.64  1139.92  1168.02  1168.68  1172.48
eigval :     1172.79  1174.06  1175.97  1178.61  1179.01  1180.87
eigval :     1182.17  1190.05  1193.19  1198.18  1198.73  1219.70
eigval :     1221.58  1240.34  1241.58  1242.02  1246.13  1252.78
eigval :     1258.22  1259.80  1260.91  1261.16  1261.57  1287.77
eigval :     1303.66  1304.19  1305.53  1305.88  1310.66  1313.57
eigval :     1317.92  1318.07  1332.28  1333.00  1350.74  1351.55
eigval :     1403.97  1404.63  1408.40  1421.78  1421.96  1428.72
eigval :     1440.11  1440.40  1444.03  1468.90  1470.86  1477.54
eigval :     1477.84  1478.52  1500.28  1501.49  1549.54  1553.87
eigval :     1561.06  1565.80  1566.58  1566.67  1570.43  1573.58
eigval :     1578.44  1578.55  1582.57  1587.27  1587.96  1588.31
eigval :     1600.69  1601.09  1648.05  1654.81  3074.18  3075.48
eigval :     3079.53  3082.98  3084.61  3085.68  3086.25  3087.07
eigval :     3087.85  3087.95  3088.67  3088.88  3089.44  3090.38
eigval :     3095.42  3096.08  3096.43  3096.66  3096.78  3096.79
eigval :     3097.65  3097.84  3100.16  3104.12  3105.06  3105.37
eigval :     3105.47  3106.49  3109.33  3109.91  3110.09  3111.03

   temp. (K)  partition function   enthalpy   heat capacity  entropy
                                   cal/mol     cal/K/mol   cal/K/mol   J/K/mol
 298.15  VIB  0.143E+22            26277.212    164.279    164.511
         ROT  0.137E+09              888.752      2.981     40.216
         INT  0.196E+30            27165.964    167.259    204.727
         TR   0.189E+29             1481.254      4.968     45.601
         TOT                       28647.2179   172.2276   250.3281  1047.3730

       T/K    H(0)-H(T)+PV         H(T)/Eh          T*S/Eh         G(T)/Eh
   ------------------------------------------------------------------------
    298.15    0.456522E-01    0.705877E+00    0.118939E+00    0.586938E+00
   ------------------------------------------------------------------------

         :::::::::::::::::::::::::::::::::::::::::::::::::::::
         ::                  THERMODYNAMIC                  ::
         :::::::::::::::::::::::::::::::::::::::::::::::::::::
         :: total free energy        -144.995289281413 Eh   ::
         ::.................................................::
         :: total energy             -145.582227210736 Eh   ::
         :: zero point energy           0.660224660979 Eh   ::
         :: G(RRHO) w/o ZPVE           -0.073286731656 Eh   ::
         :: G(RRHO) contrib.            0.586937929323 Eh   ::
         :::::::::::::::::::::::::::::::::::::::::::::::::::::

           -------------------------------------------------
          | TOTAL ENERGY             -145.582227210736 Eh   |
          | TOTAL ENTHALPY           -144.876350302181 Eh   |
          | TOTAL FREE ENERGY        -144.995289281413 Eh   |
          | GRADIENT NORM               0.000063347711 Eh/α |
          | HOMO-LUMO GAP               1.346356916042 eV   |
           -------------------------------------------------

 * finished run on 2025/08/23 at 06:26:44.157
