   * xtb version 6.7.1 (edcfbbe) compiled by 'albert@albert-system' on 2024-07-22

   ID    Z sym.   atoms
    1    8 O      1, 14, 36, 48
    2    6 C      2-6, 8-13, 15-35, 37-40, 42-47, 49-56
    3    7 N      7, 41
    4    1 H      57-88

          program call               : xtb data2507/toluene/D-BP-PXZ/D-BP-PXZ_toluene_S0_crest.xyz --gfn 2 --gbsa toluene --ohess vtight --parallel 40 --molden --ceasefiles --namespace data2507/toluene/D-BP-PXZ/D-BP-PXZ_toluene_S0_finalOpt
      * Solvation model:               GBSA
        Solvent                        toluene
        Solvent mass                       9.2140E+01 g/mol
          :  Hamiltonian                  GFN2-xTB          :
 * total energy  :  -145.5846318 Eh     change       -0.1703427E-08 Eh
 * total energy  :  -145.5848948 Eh     change       -0.2630471E-03 Eh
 * total energy  :  -145.5850899 Eh     change       -0.1951339E-03 Eh
 * total energy  :  -145.5851631 Eh     change       -0.7312648E-04 Eh
 * total energy  :  -145.5852769 Eh     change       -0.1137956E-03 Eh
 * total energy  :  -145.5853269 Eh     change       -0.5001842E-04 Eh
 * total energy  :  -145.5853774 Eh     change       -0.5047422E-04 Eh
 * total energy  :  -145.5854086 Eh     change       -0.3121982E-04 Eh
 * total energy  :  -145.5854536 Eh     change       -0.4506388E-04 Eh
 * total energy  :  -145.5854732 Eh     change       -0.1960441E-04 Eh
 * total energy  :  -145.5858703 Eh     change       -0.2937978E-06 Eh
 * total energy  :  -145.5858706 Eh     change       -0.3143868E-06 Eh
 * total energy  :  -145.5858709 Eh     change       -0.3429324E-06 Eh
 * total energy  :  -145.5858713 Eh     change       -0.3776254E-06 Eh
 * total energy  :  -145.5858717 Eh     change       -0.4236023E-06 Eh
 * total energy  :  -145.5858722 Eh     change       -0.5015033E-06 Eh
 * total energy  :  -145.5858729 Eh     change       -0.6215114E-06 Eh
 * total energy  :  -145.5858737 Eh     change       -0.8142280E-06 Eh
 * total energy  :  -145.5858737 Eh     change       -0.3801546E-08 Eh
   *** GEOMETRY OPTIMIZATION CONVERGED AFTER 68 ITERATIONS ***

 final structure:
================
88
 xtb: 6.7.1 (edcfbbe)
O            0.06985216671894       -1.64262195068283        2.03792146757007
C           -0.36481685611158       -1.37465888553243        0.92821891130764
C           -1.79858202013304       -1.09262410324500        0.70015069689128
C           -2.54451517866361       -0.51299951062294        1.72572296392197
C           -3.88557764903166       -0.24579181324234        1.55074020131662
C           -4.51260703565890       -0.58105160988255        0.35179221661295
N           -5.88380519038113       -0.31411615694799        0.16797599116547
C           -6.36666479565082        0.99726838186809        0.22516158433168
C           -5.52499616127953        2.09199563731426        0.38201911761795
C           -6.03651428860780        3.37996200763805        0.42997040594192
C           -7.39419151628055        3.59885163460134        0.30871939136735
C           -8.24409458724712        2.51979351936252        0.11500735817428
C           -7.73871368693246        1.23339580928595        0.06576776705069
O           -8.64069524976136        0.22107348885118       -0.16367978684181
C           -8.15234144291571       -1.06390818191576       -0.20352171408319
C           -9.07397976462292       -2.07499989702192       -0.40572866896212
C           -8.66639622276189       -3.40083266718613       -0.42461144276817
C           -7.33554896116744       -3.70448746449941       -0.21877276424103
C           -6.40775596076492       -2.69368325801192       -0.01791429173997
C           -6.79310776135859       -1.35836541392836       -0.03131941334399
C           -3.77662421582012       -1.18915883668972       -0.66438078283212
C           -2.43104819083312       -1.43793232212674       -0.49397642493321
C            0.51960341272320       -1.38935636869175       -0.26600618924910
C            1.44010769202494       -2.43018933353122       -0.36740819566556
C            2.25674322155039       -2.54900121965635       -1.47536067470816
C            2.16892478338592       -1.61238653573375       -2.49309546171532
C            1.28007771203552       -0.55876085306466       -2.38923835482701
C            0.45329263197677       -0.42159136188818       -1.27706569941960
C           -0.44184116187648        0.74577939768857       -1.19047595356593
C           -1.28436111275442        1.03088577709939       -2.26226162002389
C           -2.16790818331926        2.09282153248599       -2.21480859841603
C           -2.23295139388628        2.89062106381284       -1.08334197515671
C           -1.40271743832801        2.62312057812137       -0.01235763116580
C           -0.48897181818829        1.57189294691508       -0.05934487306590
C            0.39633244607046        1.39613299891408        1.12198021195085
O           -0.04071408506276        1.53363732352850        2.25501297096040
C            1.82500076684397        1.11346912591743        0.86990901805864
C            2.55141440578492        0.42016780736140        1.83784498116857
C            3.88294281970128        0.12631813039383        1.63761225033623
C            4.52146870019922        0.54232556956514        0.47005450014191
N            5.87688482685255        0.22911898251128        0.25307015230210
C            6.30029001325021       -1.10436198965386        0.21561913210001
C            5.41325286150677       -2.16975826083784        0.31572270818441
C            5.86681141250837       -3.47934234542781        0.27238839450838
C            7.21122632766202       -3.74953000196967        0.11269662350043
C            8.10530080894286       -2.69842221986100       -0.02698633842462
C            7.65730223843479       -1.39047113363523        0.01487226322784
O            8.60062431113000       -0.40724257530350       -0.16837821004091
C            8.17142968461366        0.89796970948743       -0.11719337823637
C            9.13586649999885        1.87676632792211       -0.27429587759065
C            8.79112473251061        3.21816194617438       -0.19898178952673
C            7.48059829172704        3.56803178763375        0.05806535365122
C            6.51025571264655        2.58980400177268        0.21372928472687
C            6.83090201627287        1.24176555622900        0.10305267098856
C            3.80852730191540        1.27190332952708       -0.48106741988573
C            2.47308514529014        1.55297598592018       -0.28433999660063
H           -2.04568614982497       -0.25973082481060        2.64956650080280
H           -4.45816128423745        0.21071740949826        2.34429206747190
H           -4.46056598722837        1.93723764013129        0.46091063167445
H           -5.36065759016895        4.21028464343165        0.56496071064122
H           -7.79813729234923        4.59807913399301        0.35115610516419
H           -9.30759223367764        2.65530375821294       -0.00454008900265
H          -10.10900368699820       -1.80247928397433       -0.54032539149376
H           -9.39181705909675       -4.18251061826259       -0.58606885824761
H           -7.00512535581942       -4.73181755630079       -0.20780194867849
H           -5.37504747784243       -2.94771114379636        0.16079652354495
H           -4.26693794672886       -1.45429510739302       -1.58907027000663
H           -1.86886801160763       -1.91530535686518       -1.28234074274074
H            1.48523923563342       -3.15176510007603        0.43587922625988
H            2.95772202329374       -3.36610164132833       -1.54654797964574
H            2.80284911185668       -1.69825723987094       -3.36263608640316
H            1.23643653730009        0.18767126633055       -3.16820157194424
H           -1.25657542511920        0.39241260920264       -3.13256435843779
H           -2.81541545599748        2.29329391976440       -3.05492472175111
H           -2.92711283013753        3.71533034333978       -1.03802465873991
H           -1.43349027704427        3.23277131260993        0.87948787285009
H            2.04295528597139        0.09952074831516        2.73506094789434
H            4.43874405255791       -0.41800063375000        2.38645654005266
H            4.35790813290123       -1.97516152564740        0.42150801124885
H            5.15599798278733       -4.28607706043503        0.36531533855645
H            7.57030079518831       -4.76620627040755        0.08446715311702
H            9.15964721724977       -2.87198863820383       -0.17486398287025
H           10.15391307452989        1.56575857180482       -0.44905831692718
H            9.54929225695968        3.97459539655918       -0.32654080367371
H            7.19937132829779        4.60638205390991        0.14420821240513
H            5.49506684652634        2.87888049572649        0.43440899330912
H            4.30698860641867        1.60292514192067       -1.37973128553496
H            1.93083601563662        2.12511160613753       -1.02179859312354

          :  Hamiltonian                  GFN2-xTB          :
         :: gradient norm              0.000048881657 Eh/a0 ::
         :: HOMO-LUMO gap              1.270557064290 eV    ::
         :: SCC energy              -148.091998150443 Eh    ::
         :: -> dispersion             -0.140406282002 Eh    ::
         :: -> Gsolv                  -0.060833199335 Eh    ::
         :: repulsion energy           2.506124480086 Eh    ::

    * Orbital Energies and Occupations

         #    Occupation            Energy/Eh            Energy/eV
      -------------------------------------------------------------
         1        2.0000           -0.7321101             -19.9217
       ...           ...                  ...                  ...
       121        2.0000           -0.4185082             -11.3882
       122        2.0000           -0.4182741             -11.3818
       123        2.0000           -0.4181984             -11.3798
       124        2.0000           -0.4180439             -11.3756
       125        2.0000           -0.4150614             -11.2944
       126        2.0000           -0.4149602             -11.2916
       127        2.0000           -0.4055406             -11.0353
       128        2.0000           -0.3998745             -10.8811
       129        2.0000           -0.3979066             -10.8276
       130        2.0000           -0.3928496             -10.6900
       131        2.0000           -0.3925760             -10.6825
       132        2.0000           -0.3469924              -9.4421
       133        2.0000           -0.3466432              -9.4326 (HOMO)
       134                         -0.2999511              -8.1621 (LUMO)
       135                         -0.2913313              -7.9275
       136                         -0.2585483              -7.0355
       137                         -0.2472737              -6.7287
       138                         -0.2449565              -6.6656
       139                         -0.2419307              -6.5833
       140                         -0.2410574              -6.5595
       141                         -0.2405199              -6.5449
       142                         -0.2400632              -6.5325
       143                         -0.2321612              -6.3174
       144                         -0.2319649              -6.3121
       ...                                ...                  ...
       256                          0.6716099              18.2754
      -------------------------------------------------------------
                  HL-Gap            0.0466921 Eh            1.2706 eV

     #   Z          covCN         q      C6AA      α(0)
     1   8 O        0.858    -0.421    22.101     6.303
     2   6 C        2.830     0.229    23.197     7.892
     3   6 C        2.973    -0.018    28.447     8.749
     4   6 C        2.923    -0.013    28.336     8.730
     5   6 C        2.920    -0.038    28.939     8.822
     6   6 C        2.921     0.072    26.387     8.424
     7   7 N        2.751    -0.068    22.565     7.055
     8   6 C        2.921     0.042    27.066     8.532
     9   6 C        2.923    -0.060    29.483     8.904
    10   6 C        2.919    -0.038    28.947     8.823
    11   6 C        2.919    -0.040    29.001     8.831
    12   6 C        2.920    -0.057    29.428     8.896
    13   6 C        2.883     0.123    25.292     8.245
    14   8 O        1.708    -0.269    18.467     5.802
    15   6 C        2.883     0.123    25.295     8.245
    16   6 C        2.919    -0.057    29.427     8.896
    17   6 C        2.919    -0.040    29.000     8.831
    18   6 C        2.919    -0.038    28.956     8.824
    19   6 C        2.924    -0.060    29.495     8.906
    20   6 C        2.921     0.042    27.062     8.531
    21   6 C        2.920    -0.040    28.999     8.831
    22   6 C        2.920    -0.026    28.653     8.778
    23   6 C        2.974    -0.021    28.523     8.760
    24   6 C        2.925    -0.019    28.495     8.754
    25   6 C        2.917    -0.028    28.690     8.784
    26   6 C        2.918    -0.023    28.584     8.767
    27   6 C        2.925    -0.031    28.784     8.798
    28   6 C        2.977     0.012    27.752     8.641
    29   6 C        2.976     0.011    27.755     8.642
    30   6 C        2.925    -0.032    28.790     8.799
    31   6 C        2.918    -0.023    28.582     8.767
    32   6 C        2.917    -0.028    28.692     8.784
    33   6 C        2.926    -0.019    28.494     8.754
    34   6 C        2.974    -0.021    28.521     8.760
    35   6 C        2.830     0.229    23.207     7.894
    36   8 O        0.858    -0.422    22.135     6.308
    37   6 C        2.972    -0.018    28.459     8.750
    38   6 C        2.924    -0.013    28.327     8.728
    39   6 C        2.920    -0.038    28.951     8.824
    40   6 C        2.921     0.072    26.392     8.425
    41   7 N        2.750    -0.067    22.545     7.052
    42   6 C        2.921     0.041    27.071     8.532
    43   6 C        2.923    -0.060    29.482     8.904
    44   6 C        2.919    -0.038    28.947     8.823
    45   6 C        2.919    -0.040    28.996     8.830
    46   6 C        2.920    -0.057    29.426     8.896
    47   6 C        2.883     0.123    25.288     8.244
    48   8 O        1.708    -0.269    18.458     5.801
    49   6 C        2.883     0.123    25.293     8.245
    50   6 C        2.919    -0.057    29.424     8.895
    51   6 C        2.919    -0.040    28.994     8.830
    52   6 C        2.919    -0.038    28.955     8.824
    53   6 C        2.924    -0.060    29.490     8.906
    54   6 C        2.920     0.042    27.066     8.531
    55   6 C        2.920    -0.041    29.015     8.833
    56   6 C        2.920    -0.026    28.656     8.778
    57   1 H        0.926     0.053     2.282     2.362
    58   1 H        0.926     0.052     2.296     2.370
    59   1 H        0.926     0.039     2.460     2.453
    60   1 H        0.926     0.042     2.423     2.434
    61   1 H        0.926     0.044     2.400     2.423
    62   1 H        0.926     0.049     2.329     2.386
    63   1 H        0.926     0.049     2.327     2.386
    64   1 H        0.926     0.043     2.403     2.424
    65   1 H        0.926     0.042     2.418     2.432
    66   1 H        0.926     0.040     2.454     2.450
    67   1 H        0.926     0.057     2.230     2.335
    68   1 H        0.926     0.051     2.301     2.372
    69   1 H        0.926     0.043     2.410     2.427
    70   1 H        0.926     0.052     2.300     2.372
    71   1 H        0.926     0.053     2.284     2.364
    72   1 H        0.926     0.054     2.265     2.353
    73   1 H        0.926     0.054     2.267     2.355
    74   1 H        0.926     0.053     2.285     2.364
    75   1 H        0.926     0.051     2.303     2.373
    76   1 H        0.926     0.043     2.405     2.425
    77   1 H        0.926     0.053     2.279     2.361
    78   1 H        0.926     0.052     2.298     2.371
    79   1 H        0.926     0.040     2.448     2.447
    80   1 H        0.926     0.042     2.422     2.434
    81   1 H        0.926     0.044     2.398     2.422
    82   1 H        0.926     0.050     2.325     2.385
    83   1 H        0.926     0.050     2.325     2.384
    84   1 H        0.926     0.044     2.400     2.423
    85   1 H        0.926     0.043     2.415     2.430
    86   1 H        0.926     0.040     2.445     2.445
    87   1 H        0.926     0.057     2.235     2.338
    88   1 H        0.926     0.051     2.302     2.373

molecular dipole:
                 x           y           z       tot (Debye)
 q only:        0.054       0.185      -2.976
   full:        0.054       0.181      -2.875       7.324

 projected vibrational frequencies (cm⁻¹)
eigval :       -0.00    -0.00    -0.00     0.00     0.00     0.00
eigval :        5.82     9.90    16.62    20.37    23.73    24.93
eigval :       34.33    42.99    47.37    51.11    56.36    58.87
eigval :       61.97    74.81    87.77    89.50    94.78   117.95
eigval :      122.39   125.64   130.92   139.30   148.89   159.55
eigval :      162.54   185.39   189.64   209.53   211.75   227.51
eigval :      246.44   251.60   256.42   269.59   276.62   276.78
eigval :      283.12   289.82   294.69   320.69   332.82   358.42
eigval :      370.45   372.27   377.20   378.66   381.87   390.88
eigval :      394.99   401.06   418.89   420.05   431.58   432.72
eigval :      445.97   447.56   454.85   459.92   468.25   475.98
eigval :      506.58   507.62   509.10   520.53   521.36   522.42
eigval :      542.54   545.06   560.60   568.64   584.51   584.88
eigval :      587.67   590.85   591.87   609.54   609.64   631.64
eigval :      634.37   652.64   657.05   657.53   659.56   660.36
eigval :      661.90   670.14   677.82   692.62   704.75   719.39
eigval :      729.92   737.34   738.90   768.25   778.50   778.56
eigval :      779.49   780.68   785.12   794.31   799.72   800.48
eigval :      825.07   825.67   853.23   853.75   863.63   863.72
eigval :      867.72   867.97   877.15   878.10   887.06   893.36
eigval :      895.50   897.56   897.73   898.15   899.34   899.67
eigval :      914.04   914.14   915.49   915.84   915.99   917.04
eigval :      921.69   926.03   926.57   927.65   933.57   934.01
eigval :      935.26   936.91   938.55   944.73  1000.70  1019.13
eigval :     1025.56  1088.58  1090.41  1090.62  1092.29  1095.56
eigval :     1097.55  1103.53  1106.14  1106.37  1117.75  1117.94
eigval :     1132.29  1133.37  1145.54  1167.44  1167.64  1170.93
eigval :     1173.21  1175.19  1176.44  1177.61  1178.65  1181.08
eigval :     1185.30  1189.88  1190.83  1197.92  1201.14  1220.10
eigval :     1221.05  1239.77  1241.66  1242.23  1246.59  1259.06
eigval :     1259.96  1260.90  1261.48  1262.05  1262.46  1280.40
eigval :     1304.12  1304.23  1306.29  1307.26  1312.28  1317.13
eigval :     1318.14  1318.73  1333.02  1333.17  1351.35  1351.55
eigval :     1403.40  1403.89  1412.70  1415.40  1421.74  1422.43
eigval :     1440.16  1441.04  1448.47  1471.46  1471.60  1477.28
eigval :     1478.62  1478.75  1501.27  1501.53  1554.33  1555.18
eigval :     1560.26  1566.57  1566.63  1567.13  1576.46  1577.64
eigval :     1578.24  1578.58  1580.41  1585.36  1588.45  1588.51
eigval :     1600.96  1601.02  1647.96  1655.07  3079.87  3080.36
eigval :     3083.34  3084.58  3085.77  3086.36  3087.21  3087.58
eigval :     3087.68  3087.93  3088.11  3088.27  3092.36  3093.03
eigval :     3096.26  3096.51  3096.58  3096.89  3096.95  3097.26
eigval :     3097.90  3098.71  3102.68  3103.07  3105.05  3105.68
eigval :     3105.71  3106.74  3109.40  3109.98  3110.23  3111.09

   temp. (K)  partition function   enthalpy   heat capacity  entropy
                                   cal/mol     cal/K/mol   cal/K/mol   J/K/mol
 298.15  VIB  0.782E+21            26236.468    164.841    164.013
         ROT  0.110E+09              888.752      2.981     39.782
         INT  0.862E+29            27125.220    167.822    203.795
         TR   0.189E+29             1481.254      4.968     45.601
         TOT                       28606.4740   172.7901   249.3968  1043.4762

       T/K    H(0)-H(T)+PV         H(T)/Eh          T*S/Eh         G(T)/Eh
   ------------------------------------------------------------------------
    298.15    0.455873E-01    0.705978E+00    0.118496E+00    0.587481E+00
   ------------------------------------------------------------------------

         :::::::::::::::::::::::::::::::::::::::::::::::::::::
         ::                  THERMODYNAMIC                  ::
         :::::::::::::::::::::::::::::::::::::::::::::::::::::
         :: total free energy        -144.998392286164 Eh   ::
         ::.................................................::
         :: total energy             -145.585873671252 Eh   ::
         :: zero point energy           0.660390530933 Eh   ::
         :: G(RRHO) w/o ZPVE           -0.072909145845 Eh   ::
         :: G(RRHO) contrib.            0.587481385087 Eh   ::
         :::::::::::::::::::::::::::::::::::::::::::::::::::::

           -------------------------------------------------
          | TOTAL ENERGY             -145.585873671252 Eh   |
          | TOTAL ENTHALPY           -144.879895822196 Eh   |
          | TOTAL FREE ENERGY        -144.998392286164 Eh   |
          | GRADIENT NORM               0.000048889165 Eh/α |
          | HOMO-LUMO GAP               1.270556486307 eV   |
           -------------------------------------------------

 * finished run on 2025/08/23 at 06:32:05.015
