   * xtb version 6.7.1 (edcfbbe) compiled by 'albert@albert-system' on 2024-07-22

   ID    Z sym.   atoms
    1    7 N      1, 9, 25, 32
    2    6 C      2-8, 10-24, 26-31, 33-46
    3    1 H      47-72

          program call               : xtb data2507/toluene/2CzP-INN/2CzP-INN_toluene_S0_crest.xyz --gfn 2 --gbsa toluene --ohess vtight --parallel 40 --molden --ceasefiles --namespace data2507/toluene/2CzP-INN/2CzP-INN_toluene_S0_finalOpt
      * Solvation model:               GBSA
        Solvent                        toluene
        Solvent mass                       9.2140E+01 g/mol
          :  Hamiltonian                  GFN2-xTB          :
 * total energy  :  -114.9653715 Eh     change       -0.8732428E-09 Eh
 * total energy  :  -114.9654051 Eh     change       -0.3363410E-04 Eh
 * total energy  :  -114.9654250 Eh     change       -0.1988602E-04 Eh
 * total energy  :  -114.9654332 Eh     change       -0.8204422E-05 Eh
 * total energy  :  -114.9654402 Eh     change       -0.7013450E-05 Eh
 * total energy  :  -114.9654434 Eh     change       -0.3221174E-05 Eh
 * total energy  :  -114.9654472 Eh     change       -0.3738346E-05 Eh
 * total energy  :  -114.9654515 Eh     change       -0.4280132E-05 Eh
 * total energy  :  -114.9654553 Eh     change       -0.3827903E-05 Eh
 * total energy  :  -114.9654596 Eh     change       -0.4273708E-05 Eh
 * total energy  :  -114.9654978 Eh     change       -0.1881343E-06 Eh
 * total energy  :  -114.9654980 Eh     change       -0.1627873E-06 Eh
 * total energy  :  -114.9654981 Eh     change       -0.1223003E-06 Eh
 * total energy  :  -114.9654982 Eh     change       -0.1231765E-06 Eh
 * total energy  :  -114.9654984 Eh     change       -0.1323662E-06 Eh
 * total energy  :  -114.9654985 Eh     change       -0.1903033E-06 Eh
 * total energy  :  -114.9654988 Eh     change       -0.2302699E-06 Eh
 * total energy  :  -114.9654989 Eh     change       -0.1737187E-06 Eh
 * total energy  :  -114.9654989 Eh     change       -0.4643113E-09 Eh
   *** GEOMETRY OPTIMIZATION CONVERGED AFTER 44 ITERATIONS ***

 final structure:
================
72
 xtb: 6.7.1 (edcfbbe)
N            0.00157947095043       -0.93274231068717       -0.31528471311723
C            0.00172077282871        0.20415820861574       -0.15548155000908
C            0.00198661051076        1.61382919681642       -0.03230696304136
C           -1.21334464080406        2.32009344597799       -0.03065103886684
C           -2.50922287221037        1.63580171486027       -0.00979112010884
C           -3.53338987349620        2.04313966493271       -0.86384606882036
C           -4.75236409994333        1.39745361212775       -0.85858548106847
C           -4.98192540110634        0.33911718058487        0.01903532599617
N           -6.21540159192224       -0.31986863429385        0.02481293029749
C           -7.45828378944435        0.28411290268585        0.07732743885757
C           -7.78543987688936        1.62798003960116        0.19179556203831
C           -9.12489727556883        1.96432287842927        0.25033286516094
C          -10.12183446088780        0.99200291239601        0.20653437059866
C           -9.80180230703738       -0.34867722864046        0.12079124229125
C           -8.46228443217166       -0.71107333134771        0.05972603912178
C           -7.78377690732461       -1.97569950318149       -0.01398916490028
C           -8.22277538209101       -3.29194159265509       -0.08038830755347
C           -7.28250068427105       -4.29919393745497       -0.17185757215503
C           -5.92098779135902       -4.00599787948363       -0.21367381754533
C           -5.46002715465925       -2.70440593139518       -0.14900263684330
C           -6.39942405481562       -1.68975463343170       -0.03014066652709
C           -3.96926881257161       -0.05640470005401        0.89103231494544
C           -2.74579765075917        0.58068451126889        0.86979762743447
C           -1.13306293494519        3.71299233230196       -0.05531587968407
N            0.00282336781561        4.38422239091987       -0.07204922657057
C            1.13833110025142        3.71236323476951       -0.05371313348362
C            1.21772115910191        2.31944279291872       -0.02906957738669
C            2.51294509221202        1.63394322811827       -0.00718920605521
C            2.74761909630944        0.57845619378596        0.87245772334644
C            3.96970504442817       -0.06125203807369        0.89318525126763
C            4.98278791550250        0.33190738630799        0.02059108906333
N            6.21392310263383       -0.33143350902391        0.02456338023630
C            6.39218177776588       -1.70204839425226       -0.03179521527743
C            5.44841632944658       -2.71269057602889       -0.15029164630864
C            5.90388826454440       -4.01612175218133       -0.21671707304116
C            7.26422964426817       -4.31500258154498       -0.17702910362696
C            8.20879284663207       -3.31173446744383       -0.08601159354767
C            7.77533998902034       -1.99374233746045       -0.01788905372892
C            8.45918391936138       -0.73199439786208        0.05575164305946
C            9.80030042556054       -0.37527460977895        0.11499032065797
C           10.12610546128408        0.96399088922163        0.20110372162364
C            9.13331397013532        1.94044894795794        0.24701105851559
C            7.79235662498820        1.60977474189123        0.19030634713008
C            7.45935988481289        0.26736389417017        0.07558971722340
C            4.75554805928222        1.39138717599557       -0.85623057261161
C            3.53794806553169        2.03970811712065       -0.86097133427519
H           -3.35756706813671        2.84882139101890       -1.56106305426853
H           -5.52723064629010        1.69566784835304       -1.54828736937866
H           -7.02187307438917        2.38911968146102        0.24555202242821
H           -9.40457332736696        3.00441677222916        0.33488950031647
H          -11.15771695958256        1.29495273480514        0.25098987953580
H          -10.57374367655359       -1.10347382962152        0.10480349314626
H           -9.27855276797605       -3.51790278522159       -0.06630730612995
H           -7.60246532963296       -5.32966923230061       -0.22204537657339
H           -5.20865151259306       -4.81326506082714       -0.30272448066781
H           -4.40325215686485       -2.48948074580398       -0.20145392236405
H           -4.15116920455860       -0.85570109550585        1.59309179864368
H           -1.97569103784454        0.27454212846438        1.56274557055221
H           -2.03361944577183        4.31222934306492       -0.04956905367636
H            2.03922417150473        4.31108127198574       -0.04668903989419
H            1.97704935254471        0.27387223778214        1.56558069490245
H            4.15010195097220       -0.86108811672856        1.59501713766557
H            4.39246639980492       -2.49336969027464       -0.20117838141682
H            5.18809815003793       -4.82035206332899       -0.30557321723734
H            7.57983860277471       -5.34675383998572       -0.22860035162464
H            9.26365211374009       -3.54204572773280       -0.07364817904401
H           10.56900519813067       -1.13332846295096        0.09727363631054
H           11.16332025350705        1.26256607327985        0.24412243623225
H            9.41747548030879        2.97931247511451        0.33171909784950
H            7.03209786148208        2.37410342459997        0.24563291994671
H            5.53089768704231        1.68816420409386       -1.54600755096122
H            3.36371256261106        2.84607077212946       -1.55780177719980

          :  Hamiltonian                  GFN2-xTB          :
         :: gradient norm              0.000071973777 Eh/a0 ::
         :: HOMO-LUMO gap              1.788205441238 eV    ::
         :: SCC energy              -117.156475757462 Eh    ::
         :: -> dispersion             -0.100441324397 Eh    ::
         :: -> Gsolv                  -0.049981834910 Eh    ::
         :: repulsion energy           2.190976812311 Eh    ::

    * Orbital Energies and Occupations

         #    Occupation            Energy/Eh            Energy/eV
      -------------------------------------------------------------
         1        2.0000           -0.6895161             -18.7627
       ...           ...                  ...                  ...
        95        2.0000           -0.4206063             -11.4453
        96        2.0000           -0.4203057             -11.4371
        97        2.0000           -0.4188739             -11.3981
        98        2.0000           -0.4187214             -11.3940
        99        2.0000           -0.4166989             -11.3390
       100        2.0000           -0.4092212             -11.1355
       101        2.0000           -0.4069825             -11.0746
       102        2.0000           -0.4069526             -11.0737
       103        2.0000           -0.3864960             -10.5171
       104        2.0000           -0.3804317             -10.3521
       105        2.0000           -0.3804266             -10.3519
       106        2.0000           -0.3655471              -9.9470
       107        2.0000           -0.3653918              -9.9428 (HOMO)
       108                         -0.2996764              -8.1546 (LUMO)
       109                         -0.2756247              -7.5001
       110                         -0.2489601              -6.7746
       111                         -0.2466369              -6.7113
       112                         -0.2424884              -6.5984
       113                         -0.2411682              -6.5625
       114                         -0.2408111              -6.5528
       115                         -0.2241439              -6.0993
       116                         -0.2237639              -6.0889
       117                         -0.2237473              -6.0885
       118                         -0.2212317              -6.0200
       ...                                ...                  ...
       210                          1.1425834              31.0913
      -------------------------------------------------------------
                  HL-Gap            0.0657153 Eh            1.7882 eV

     #   Z          covCN         q      C6AA      α(0)
     1   7 N        0.911    -0.265    26.865     7.496
     2   6 C        1.909     0.124    28.063     8.555
     3   6 C        2.987     0.018    27.599     8.618
     4   6 C        2.976     0.010    27.800     8.649
     5   6 C        2.976     0.003    27.964     8.674
     6   6 C        2.924    -0.031    28.785     8.798
     7   6 C        2.921    -0.041    29.021     8.834
     8   6 C        2.912     0.068    26.475     8.437
     9   7 N        2.801    -0.043    22.063     6.976
    10   6 C        3.072     0.046    26.886     8.502
    11   6 C        2.910    -0.052    29.284     8.874
    12   6 C        2.924    -0.034    28.857     8.809
    13   6 C        2.920    -0.042    29.034     8.836
    14   6 C        2.912    -0.034    28.849     8.808
    15   6 C        3.066    -0.017    28.367     8.733
    16   6 C        3.066    -0.017    28.371     8.734
    17   6 C        2.912    -0.034    28.853     8.808
    18   6 C        2.920    -0.041    29.029     8.835
    19   6 C        2.924    -0.034    28.846     8.808
    20   6 C        2.909    -0.051    29.268     8.871
    21   6 C        3.072     0.047    26.884     8.501
    22   6 C        2.921    -0.040    29.004     8.832
    23   6 C        2.923    -0.027    28.688     8.784
    24   6 C        2.914     0.053    26.803     8.490
    25   7 N        1.833    -0.220    26.644     7.649
    26   6 C        2.914     0.053    26.803     8.490
    27   6 C        2.976     0.010    27.800     8.649
    28   6 C        2.976     0.003    27.964     8.674
    29   6 C        2.923    -0.027    28.688     8.784
    30   6 C        2.921    -0.040    29.004     8.832
    31   6 C        2.912     0.068    26.475     8.437
    32   7 N        2.801    -0.043    22.063     6.976
    33   6 C        3.072     0.046    26.884     8.501
    34   6 C        2.909    -0.051    29.268     8.871
    35   6 C        2.924    -0.034    28.846     8.808
    36   6 C        2.920    -0.041    29.029     8.835
    37   6 C        2.912    -0.034    28.853     8.808
    38   6 C        3.066    -0.017    28.371     8.734
    39   6 C        3.066    -0.017    28.367     8.733
    40   6 C        2.912    -0.034    28.849     8.808
    41   6 C        2.920    -0.042    29.034     8.836
    42   6 C        2.924    -0.034    28.857     8.809
    43   6 C        2.910    -0.052    29.284     8.874
    44   6 C        3.072     0.046    26.886     8.502
    45   6 C        2.921    -0.041    29.021     8.834
    46   6 C        2.924    -0.031    28.785     8.798
    47   1 H        0.926     0.046     2.365     2.405
    48   1 H        0.926     0.052     2.297     2.370
    49   1 H        0.926     0.031     2.568     2.506
    50   1 H        0.926     0.032     2.560     2.502
    51   1 H        0.926     0.030     2.592     2.517
    52   1 H        0.926     0.032     2.557     2.500
    53   1 H        0.926     0.032     2.553     2.499
    54   1 H        0.926     0.030     2.588     2.516
    55   1 H        0.926     0.032     2.561     2.503
    56   1 H        0.926     0.031     2.577     2.511
    57   1 H        0.926     0.050     2.320     2.382
    58   1 H        0.926     0.037     2.485     2.465
    59   1 H        0.925     0.050     2.316     2.380
    60   1 H        0.925     0.050     2.316     2.380
    61   1 H        0.926     0.037     2.485     2.465
    62   1 H        0.926     0.050     2.320     2.382
    63   1 H        0.926     0.031     2.577     2.511
    64   1 H        0.926     0.032     2.561     2.503
    65   1 H        0.926     0.030     2.588     2.516
    66   1 H        0.926     0.032     2.553     2.499
    67   1 H        0.926     0.032     2.557     2.500
    68   1 H        0.926     0.030     2.592     2.518
    69   1 H        0.926     0.032     2.560     2.502
    70   1 H        0.926     0.031     2.568     2.506
    71   1 H        0.926     0.052     2.298     2.370
    72   1 H        0.926     0.046     2.365     2.405

molecular dipole:
                 x           y           z       tot (Debye)
 q only:        0.000       0.885       0.083
   full:        0.000       0.970       0.143       2.493

 projected vibrational frequencies (cm⁻¹)
eigval :       -0.00    -0.00    -0.00     0.00     0.00     0.00
eigval :       10.85    15.49    19.69    24.27    35.00    37.89
eigval :       50.29    54.37    76.31    80.73    95.38    99.44
eigval :      105.40   114.82   118.84   125.67   143.18   147.33
eigval :      155.07   168.29   187.84   200.34   224.71   240.44
eigval :      252.32   260.39   274.62   274.69   278.27   298.31
eigval :      359.58   376.50   378.83   381.65   386.06   388.12
eigval :      396.71   399.24   406.38   411.46   425.49   428.19
eigval :      438.06   440.12   440.21   492.76   496.31   517.92
eigval :      518.04   531.91   535.80   539.67   542.81   542.85
eigval :      573.17   575.96   580.10   582.42   588.70   595.45
eigval :      604.25   615.10   615.69   631.34   649.64   674.81
eigval :      675.00   688.17   695.92   703.02   708.93   711.32
eigval :      722.36   732.67   755.79   756.96   769.09   769.41
eigval :      780.51   780.85   797.23   819.43   820.42   835.81
eigval :      856.87   865.78   866.33   873.79   874.35   878.27
eigval :      879.46   897.34   897.78   901.34   901.96   904.05
eigval :      904.47   904.67   919.53   919.71   920.79   921.02
eigval :      926.05   927.60   927.72   934.32   934.72   939.22
eigval :      999.17  1011.11  1011.14  1016.89  1062.22  1069.31
eigval :     1069.33  1073.24  1073.37  1116.62  1116.82  1136.21
eigval :     1138.17  1151.52  1151.80  1159.48  1161.45  1175.30
eigval :     1175.45  1180.19  1180.47  1182.74  1183.62  1201.98
eigval :     1203.63  1210.42  1234.12  1234.18  1241.77  1243.51
eigval :     1252.12  1257.90  1267.52  1269.01  1298.10  1298.88
eigval :     1299.01  1299.23  1312.99  1315.20  1323.36  1354.79
eigval :     1355.45  1359.18  1359.34  1360.34  1367.77  1397.98
eigval :     1398.55  1409.99  1422.25  1426.30  1426.60  1427.64
eigval :     1430.87  1473.50  1473.58  1486.27  1486.36  1494.09
eigval :     1496.48  1521.50  1536.64  1555.99  1557.15  1573.97
eigval :     1574.02  1586.74  1586.76  1590.39  1591.02  1596.93
eigval :     1596.96  1612.14  1612.16  2353.62  3065.39  3065.49
eigval :     3071.88  3071.90  3072.78  3072.84  3077.86  3077.87
eigval :     3078.47  3078.48  3080.12  3080.79  3084.46  3084.60
eigval :     3085.48  3085.54  3086.55  3086.57  3092.11  3092.11
eigval :     3094.18  3094.21  3098.11  3098.24  3099.73  3099.98

   temp. (K)  partition function   enthalpy   heat capacity  entropy
                                   cal/mol     cal/K/mol   cal/K/mol   J/K/mol
 298.15  VIB  0.267E+16            20472.027    131.932    126.044
         ROT  0.101E+09              888.752      2.981     39.600
         INT  0.268E+24            21360.779    134.913    165.644
         TR   0.137E+29             1481.254      4.968     44.972
         TOT                       22842.0328   139.8807   210.6159   881.2170

       T/K    H(0)-H(T)+PV         H(T)/Eh          T*S/Eh         G(T)/Eh
   ------------------------------------------------------------------------
    298.15    0.364011E-01    0.580471E+00    0.100070E+00    0.480401E+00
   ------------------------------------------------------------------------

         :::::::::::::::::::::::::::::::::::::::::::::::::::::
         ::                  THERMODYNAMIC                  ::
         :::::::::::::::::::::::::::::::::::::::::::::::::::::
         :: total free energy        -114.485098147020 Eh   ::
         ::.................................................::
         :: total energy             -114.965498946003 Eh   ::
         :: zero point energy           0.544070126963 Eh   ::
         :: G(RRHO) w/o ZPVE           -0.063669327980 Eh   ::
         :: G(RRHO) contrib.            0.480400798983 Eh   ::
         :::::::::::::::::::::::::::::::::::::::::::::::::::::

           -------------------------------------------------
          | TOTAL ENERGY             -114.965498946003 Eh   |
          | TOTAL ENTHALPY           -114.385027722716 Eh   |
          | TOTAL FREE ENERGY        -114.485098147020 Eh   |
          | GRADIENT NORM               0.000071930718 Eh/α |
          | HOMO-LUMO GAP               1.788205417967 eV   |
           -------------------------------------------------

 * finished run on 2025/07/19 at 14:19:55.753
