   * xtb version 6.7.1 (edcfbbe) compiled by 'albert@albert-system' on 2024-07-22

   ID    Z sym.   atoms
    1    7 N      1, 9, 25, 32
    2    6 C      2-8, 10-24, 26-31, 33-46
    3    1 H      47-72

          program call               : xtb data2507/toluene/2CzP-INN/2CzP-INN_toluene_S0_finalOpt.xtbopt.xyz --gfn 2 --uhf 2 --gbsa toluene --ohess vtight --parallel 40 --molden --ceasefiles --namespace data2507/toluene/2CzP-INN/2CzP-INN_toluene_T1_preOpt
      * Solvation model:               GBSA
        Solvent                        toluene
        Solvent mass                       9.2140E+01 g/mol
          :  Hamiltonian                  GFN2-xTB          :
 * total energy  :  -114.8775226 Eh     change       -0.1071498E-09 Eh
 * total energy  :  -114.8814046 Eh     change       -0.3882011E-02 Eh
 * total energy  :  -114.8822602 Eh     change       -0.8555795E-03 Eh
 * total energy  :  -114.8823932 Eh     change       -0.1330013E-03 Eh
 * total energy  :  -114.8825585 Eh     change       -0.1653485E-03 Eh
 * total energy  :  -114.8826267 Eh     change       -0.6819602E-04 Eh
 * total energy  :  -114.8826865 Eh     change       -0.5975340E-04 Eh
 * total energy  :  -114.8827236 Eh     change       -0.3711476E-04 Eh
 * total energy  :  -114.8827394 Eh     change       -0.1584937E-04 Eh
 * total energy  :  -114.8827700 Eh     change       -0.3054577E-04 Eh
 * total energy  :  -114.8832551 Eh     change       -0.1815674E-06 Eh
 * total energy  :  -114.8832553 Eh     change       -0.1705017E-06 Eh
 * total energy  :  -114.8832555 Eh     change       -0.2367315E-06 Eh
 * total energy  :  -114.8832559 Eh     change       -0.3738719E-06 Eh
 * total energy  :  -114.8832564 Eh     change       -0.4730473E-06 Eh
 * total energy  :  -114.8832568 Eh     change       -0.4574461E-06 Eh
 * total energy  :  -114.8832573 Eh     change       -0.4293954E-06 Eh
 * total energy  :  -114.8832573 Eh     change        0.1441265E-08 Eh
 * total energy  :  -114.8832573 Eh     change       -0.5099324E-08 Eh
   *** GEOMETRY OPTIMIZATION CONVERGED AFTER 69 ITERATIONS ***

 final structure:
================
72
 xtb: 6.7.1 (edcfbbe)
N           -0.00174067915189       -0.89296071232200       -0.94740809479105
C           -0.00029108563982        0.24657214161193       -0.70902598932879
C            0.00129462714134        1.59083414638020       -0.41058391028196
C           -1.23522341853363        2.33267232378281       -0.35316312964920
C           -2.51854189298593        1.67041812993017       -0.22885992324511
C           -3.65607436544648        2.15983447053768       -0.89052823879035
C           -4.86607062806125        1.51429994899188       -0.79509955311201
C           -4.98732619760297        0.35272135882983       -0.02611042844111
N           -6.20920897775789       -0.31756590870160        0.05862694511166
C           -7.43300688768355        0.26273891804243        0.32763822096206
C           -7.73765493822502        1.58414415917235        0.62930016181714
C           -9.05837570099476        1.89745920786276        0.89496379697553
C          -10.05406659329376        0.92398623874315        0.87353960920960
C           -9.75210466631041       -0.39967109181536        0.60214387018624
C           -8.43481295848137       -0.73727635589084        0.33256615819816
C           -7.76968485664992       -1.98162731534697        0.04504537560058
C           -8.21127196239641       -3.28783739849846       -0.09934996067947
C           -7.28469866565212       -4.26913031498338       -0.40782747924896
C           -5.94021773607377       -3.95506527801828       -0.59049759858737
C           -5.47661260256762       -2.65914883311142       -0.45296499270984
C           -6.39676192834754       -1.67556946980038       -0.11241758598072
C           -3.86758082366712       -0.13280678153116        0.65589064133960
C           -2.66069963701037        0.51769138648276        0.55867843019807
C           -1.14685422609031        3.70982805179758       -0.39116908810060
N            0.00418405694290        4.37467569373255       -0.40352152935791
C            1.15383948922245        3.70748228264562       -0.39155311693116
C            1.23945266776707        2.33012794532250       -0.35352277302002
C            2.52130282252315        1.66511666744361       -0.22938888275684
C            2.66064275586743        0.51144335905902        0.55731901450019
C            3.86583443359287       -0.14224898875099        0.65390767123909
C            4.98676893551488        0.34099256239010       -0.02776797185720
N            6.20695373828165       -0.33245379146491        0.05628705054003
C            6.39123260612318       -1.69071241248343       -0.11628039453368
C            5.46871482506678       -2.67164439051431       -0.45803948759197
C            5.92923861881896       -3.96845462483588       -0.59747085637867
C            7.27298327405600       -4.28594069915169       -0.41534589597838
C            8.20188583439757       -3.30729597073526       -0.10541701088872
C            7.76342704325039       -2.00025388909426        0.04086423849747
C            8.43153176526072       -0.75781340184066        0.32988821107172
C            9.74957032155386       -0.42358934665339        0.60000913307900
C           10.05461815291297        0.89908402997670        0.87282038846787
C            9.06124887889778        1.87490661805649        0.89511174979606
C            7.73982632823788        1.56496869654634        0.62902721080212
C            7.43210003067479        0.24458666019595        0.32598571237298
C            4.86846112945765        1.50363309187630       -0.79565403186437
C            3.66012298794954        2.15233265789844       -0.89053264937339
H           -3.56726584459156        3.03386899729742       -1.51818134918938
H           -5.71988592342442        1.87709535572657       -1.34764092903585
H           -6.96940220401593        2.34065061074301        0.67060505816268
H           -9.32120057132202        2.91831920287223        1.12900844785914
H          -11.07454935000990        1.20727942465577        1.08391671532024
H          -10.52280153140884       -1.15516472632539        0.60555424102475
H           -9.25581341301580       -3.53087982499700        0.02150260953845
H           -7.60765308962412       -5.29324288146264       -0.52072148910457
H           -5.24365027701242       -4.73816323789382       -0.85027370956783
H           -4.43649130119532       -2.42256637010900       -0.61764515817533
H           -3.96263295685738       -1.00623432201646        1.28336621669687
H           -1.81064820702828        0.14337658549723        1.10909106349889
H           -2.03424633510145        4.32535122982256       -0.33767430421326
H            2.04247562988374        4.32119925194222       -0.33826661289326
H            1.80968732596859        0.13888732562730        1.10751566464535
H            3.95868230680026       -1.01646066514628        1.28062612396239
H            4.42913339278267       -2.43233900943473       -0.62222973188450
H            5.23079643321359       -4.74953670400445       -0.85830000108947
H            7.59355154973689       -5.31062838179246       -0.52983856782950
H            9.24585026440007       -3.55302802300061        0.01499264689679
H           10.51849150521761       -1.18088348050650        0.60287180224460
H           11.07572692256986        1.17972351609079        1.08368740262403
H            9.32647129035915        2.89492130176295        1.13014355922760
H            6.97332268922913        2.32321419449600        0.67098795158727
H            5.72320385295841        1.86472115401629       -1.34787871688665
H            3.57359910075007        3.02716919156691       -1.51739007448512

          :  Hamiltonian                  GFN2-xTB          :
         :: gradient norm              0.000149595475 Eh/a0 ::
         :: HOMO-LUMO gap              0.416684507952 eV    ::
         :: SCC energy              -117.056884328016 Eh    ::
         :: -> dispersion             -0.100371730953 Eh    ::
         :: -> Gsolv                  -0.055976786072 Eh    ::
         :: repulsion energy           2.173627048013 Eh    ::

    * Orbital Energies and Occupations

         #    Occupation            Energy/Eh            Energy/eV
      -------------------------------------------------------------
         1        2.0000           -0.6891353             -18.7523
       ...           ...                  ...                  ...
        96        2.0000           -0.4180710             -11.3763
        97        2.0000           -0.4168420             -11.3428
        98        2.0000           -0.4154316             -11.3045
        99        2.0000           -0.4148736             -11.2893
       100        2.0000           -0.4043807             -11.0038
       101        2.0000           -0.3970621             -10.8046
       102        2.0000           -0.3962003             -10.7812
       103        2.0000           -0.3894680             -10.5980
       104        2.0000           -0.3894619             -10.5978
       105        1.9989           -0.3760663             -10.2333
       106        1.8193           -0.3710032             -10.0955
       107        1.1817           -0.3681373             -10.0175
       108        0.9997           -0.2791860              -7.5970 (HOMO)
       109        0.0003           -0.2638731              -7.1804 (LUMO)
       110                         -0.2550914              -6.9414
       111                         -0.2535982              -6.9008
       112                         -0.2359579              -6.4207
       113                         -0.2342756              -6.3750
       114                         -0.2339966              -6.3674
       115                         -0.2332447              -6.3469
       116                         -0.2332163              -6.3461
       117                         -0.2130701              -5.7979
       118                         -0.2011965              -5.4748
       119                         -0.1963194              -5.3421
       ...                                ...                  ...
       210                          1.1605075              31.5790
      -------------------------------------------------------------
                  HL-Gap            0.0153128 Eh            0.4167 eV

     #   Z          covCN         q      C6AA      α(0)
     1   7 N        0.911    -0.377    29.722     7.885
     2   6 C        1.907     0.097    28.680     8.649
     3   6 C        2.974    -0.032    28.804     8.803
     4   6 C        2.970    -0.010    28.268     8.721
     5   6 C        2.974     0.008    27.837     8.654
     6   6 C        2.922    -0.036    28.901     8.816
     7   6 C        2.917    -0.040    29.006     8.832
     8   6 C        2.913     0.056    26.734     8.479
     9   7 N        2.801    -0.014    21.523     6.890
    10   6 C        3.071     0.047    26.880     8.501
    11   6 C        2.909    -0.043    29.074     8.842
    12   6 C        2.923    -0.031    28.777     8.797
    13   6 C        2.920    -0.034    28.839     8.806
    14   6 C        2.912    -0.029    28.733     8.790
    15   6 C        3.064    -0.011    28.232     8.713
    16   6 C        3.065    -0.012    28.241     8.714
    17   6 C        2.912    -0.030    28.737     8.790
    18   6 C        2.920    -0.034    28.835     8.806
    19   6 C        2.923    -0.031    28.763     8.795
    20   6 C        2.909    -0.042    29.047     8.837
    21   6 C        3.071     0.047    26.875     8.500
    22   6 C        2.918    -0.040    28.982     8.828
    23   6 C        2.922    -0.028    28.707     8.786
    24   6 C        2.892     0.045    26.991     8.518
    25   7 N        1.835    -0.236    27.013     7.702
    26   6 C        2.892     0.045    26.990     8.518
    27   6 C        2.970    -0.010    28.269     8.721
    28   6 C        2.974     0.008    27.837     8.654
    29   6 C        2.922    -0.028    28.707     8.786
    30   6 C        2.918    -0.040    28.982     8.828
    31   6 C        2.913     0.056    26.735     8.479
    32   7 N        2.801    -0.014    21.522     6.890
    33   6 C        3.071     0.047    26.875     8.500
    34   6 C        2.909    -0.042    29.047     8.837
    35   6 C        2.923    -0.031    28.763     8.795
    36   6 C        2.920    -0.034    28.835     8.806
    37   6 C        2.912    -0.030    28.737     8.790
    38   6 C        3.065    -0.012    28.241     8.714
    39   6 C        3.064    -0.011    28.232     8.713
    40   6 C        2.912    -0.029    28.733     8.790
    41   6 C        2.920    -0.034    28.839     8.806
    42   6 C        2.923    -0.031    28.777     8.797
    43   6 C        2.909    -0.043    29.074     8.842
    44   6 C        3.071     0.047    26.880     8.501
    45   6 C        2.917    -0.040    29.006     8.832
    46   6 C        2.922    -0.036    28.901     8.816
    47   1 H        0.926     0.041     2.437     2.441
    48   1 H        0.926     0.049     2.328     2.386
    49   1 H        0.926     0.041     2.439     2.442
    50   1 H        0.926     0.041     2.437     2.441
    51   1 H        0.926     0.041     2.441     2.443
    52   1 H        0.926     0.043     2.408     2.427
    53   1 H        0.926     0.044     2.402     2.424
    54   1 H        0.926     0.041     2.437     2.441
    55   1 H        0.926     0.040     2.444     2.445
    56   1 H        0.926     0.039     2.457     2.451
    57   1 H        0.926     0.046     2.367     2.406
    58   1 H        0.926     0.035     2.518     2.481
    59   1 H        0.925     0.035     2.516     2.481
    60   1 H        0.925     0.035     2.516     2.480
    61   1 H        0.926     0.035     2.518     2.481
    62   1 H        0.926     0.046     2.368     2.406
    63   1 H        0.926     0.039     2.457     2.451
    64   1 H        0.926     0.040     2.444     2.445
    65   1 H        0.926     0.041     2.437     2.441
    66   1 H        0.926     0.044     2.402     2.424
    67   1 H        0.926     0.043     2.408     2.427
    68   1 H        0.926     0.041     2.440     2.443
    69   1 H        0.926     0.041     2.437     2.441
    70   1 H        0.926     0.041     2.438     2.442
    71   1 H        0.926     0.049     2.329     2.386
    72   1 H        0.926     0.041     2.437     2.441

molecular dipole:
                 x           y           z       tot (Debye)
 q only:        0.000      -0.589       0.688
   full:        0.000      -0.344       0.743       2.081

 projected vibrational frequencies (cm⁻¹)
eigval :       -0.00    -0.00    -0.00     0.00     0.00     0.00
eigval :        4.75     8.52    11.89    19.47    33.00    34.18
eigval :       45.25    56.20    69.27    81.27    96.42    96.73
eigval :      103.50   112.60   115.14   125.63   138.63   144.62
eigval :      149.61   166.48   190.67   199.08   220.51   238.85
eigval :      251.45   262.95   269.42   269.51   291.50   292.46
eigval :      350.28   370.70   374.11   376.60   381.70   385.05
eigval :      386.88   392.66   402.24   407.69   419.98   423.76
eigval :      428.30   435.92   438.39   460.24   478.15   499.43
eigval :      510.09   513.93   515.39   519.26   533.89   534.07
eigval :      542.17   542.83   573.09   579.41   584.35   591.15
eigval :      601.00   605.37   609.34   616.39   632.63   650.15
eigval :      671.48   671.59   684.50   685.01   698.63   706.93
eigval :      708.45   727.16   754.04   754.83   765.26   768.15
eigval :      768.55   776.66   776.77   804.59   809.36   815.92
eigval :      827.11   837.65   849.63   855.90   870.34   870.48
eigval :      871.61   872.36   895.73   895.79   902.93   903.03
eigval :      903.17   903.27   916.00   916.24   918.15   918.36
eigval :      919.37   924.34   924.67   925.25   928.57   928.78
eigval :      987.97  1006.87  1009.64  1009.66  1034.80  1058.76
eigval :     1066.75  1066.88  1070.13  1074.32  1112.69  1115.82
eigval :     1123.70  1129.36  1137.23  1139.77  1142.33  1143.67
eigval :     1171.77  1173.12  1175.95  1176.20  1177.68  1184.34
eigval :     1202.50  1211.10  1227.49  1227.57  1235.60  1236.63
eigval :     1242.71  1259.39  1263.28  1263.83  1281.31  1281.61
eigval :     1288.73  1289.23  1312.73  1320.64  1323.40  1330.43
eigval :     1337.57  1337.64  1352.03  1355.05  1359.78  1361.01
eigval :     1374.71  1397.35  1408.50  1408.74  1416.02  1417.17
eigval :     1418.55  1419.50  1458.59  1458.75  1475.37  1477.41
eigval :     1478.52  1479.09  1490.38  1505.54  1506.59  1552.43
eigval :     1563.48  1563.50  1574.09  1575.98  1576.12  1576.52
eigval :     1579.65  1595.90  1598.97  2227.35  3057.34  3057.58
eigval :     3080.11  3080.19  3080.40  3080.58  3082.18  3082.24
eigval :     3084.34  3084.69  3085.93  3086.03  3086.77  3086.84
eigval :     3092.90  3093.02  3093.63  3093.67  3094.34  3094.40
eigval :     3096.22  3096.55  3098.49  3098.63  3099.00  3100.50

   temp. (K)  partition function   enthalpy   heat capacity  entropy
                                   cal/mol     cal/K/mol   cal/K/mol   J/K/mol
 298.15  VIB  0.419E+17            20832.527    133.620    129.950
         ROT  0.101E+09              888.752      2.981     39.617
         INT  0.425E+25            21721.280    136.601    169.567
         TR   0.137E+29             1481.254      4.968     44.972
         TOT                       23202.5335   141.5690   214.5384   897.6285

       T/K    H(0)-H(T)+PV         H(T)/Eh          T*S/Eh         G(T)/Eh
   ------------------------------------------------------------------------
    298.15    0.369756E-01    0.576502E+00    0.101934E+00    0.474568E+00
   ------------------------------------------------------------------------

         :::::::::::::::::::::::::::::::::::::::::::::::::::::
         ::                  THERMODYNAMIC                  ::
         :::::::::::::::::::::::::::::::::::::::::::::::::::::
         :: total free energy        -114.408689204096 Eh   ::
         ::.................................................::
         :: total energy             -114.883257281701 Eh   ::
         :: zero point energy           0.539526588152 Eh   ::
         :: G(RRHO) w/o ZPVE           -0.064958510546 Eh   ::
         :: G(RRHO) contrib.            0.474568077605 Eh   ::
         :::::::::::::::::::::::::::::::::::::::::::::::::::::

           -------------------------------------------------
          | TOTAL ENERGY             -114.883257281701 Eh   |
          | TOTAL ENTHALPY           -114.306755102761 Eh   |
          | TOTAL FREE ENERGY        -114.408689204096 Eh   |
          | GRADIENT NORM               0.000149264852 Eh/α |
          | HOMO-LUMO GAP               0.416682683363 eV   |
           -------------------------------------------------

 * finished run on 2025/07/19 at 14:20:04.372
