   * xtb version 6.7.1 (edcfbbe) compiled by 'albert@albert-system' on 2024-07-22

   ID    Z sym.   atoms
    1    7 N      1, 9, 25, 32
    2    6 C      2-8, 10-24, 26-31, 33-46
    3    1 H      47-72

          program call               : xtb data2507/toluene/2CzP-INN/2CzP-INN.xyz --gfn 2 --gbsa toluene --ohess vtight --parallel 40 --molden --ceasefiles --namespace data2507/toluene/2CzP-INN/2CzP-INN_toluene_S0_preOpt
      * Solvation model:               GBSA
        Solvent                        toluene
        Solvent mass                       9.2140E+01 g/mol
          :  Hamiltonian                  GFN2-xTB          :
 * total energy  :  -114.9424908 Eh     change       -0.4835528E-09 Eh
 * total energy  :  -114.9569454 Eh     change       -0.1445468E-01 Eh
 * total energy  :  -114.9595790 Eh     change       -0.2633570E-02 Eh
 * total energy  :  -114.9600028 Eh     change       -0.4238065E-03 Eh
 * total energy  :  -114.9604092 Eh     change       -0.4063859E-03 Eh
 * total energy  :  -114.9605853 Eh     change       -0.1760945E-03 Eh
 * total energy  :  -114.9607308 Eh     change       -0.1454878E-03 Eh
 * total energy  :  -114.9608482 Eh     change       -0.1173608E-03 Eh
 * total energy  :  -114.9609752 Eh     change       -0.1270991E-03 Eh
 * total energy  :  -114.9611228 Eh     change       -0.1475169E-03 Eh
 * total energy  :  -114.9650430 Eh     change       -0.2549754E-06 Eh
 * total energy  :  -114.9650432 Eh     change       -0.2420527E-06 Eh
 * total energy  :  -114.9650435 Eh     change       -0.2460139E-06 Eh
 * total energy  :  -114.9650437 Eh     change       -0.2589518E-06 Eh
 * total energy  :  -114.9650440 Eh     change       -0.2791691E-06 Eh
 * total energy  :  -114.9650443 Eh     change       -0.3133515E-06 Eh
 * total energy  :  -114.9650447 Eh     change       -0.3527578E-06 Eh
 * total energy  :  -114.9650450 Eh     change       -0.3741389E-06 Eh
 * total energy  :  -114.9650450 Eh     change       -0.1579195E-08 Eh
   *** GEOMETRY OPTIMIZATION CONVERGED AFTER 122 ITERATIONS ***

 final structure:
================
72
 xtb: 6.7.1 (edcfbbe)
N           -0.01499519961625       -0.94987019963604       -0.01443893033373
C           -0.01845213707145        0.17330913504084       -0.25141432124020
C           -0.02420782522355        1.54104524875833       -0.61402060956666
C           -1.24379662456675        2.20795680295324       -0.82362842809732
C           -2.53442360849506        1.57367738215815       -0.53940434909991
C           -3.58173087952583        1.66607661479947       -1.45538590341810
C           -4.79558526144462        1.06256391983287       -1.19953026592022
C           -4.99693795461840        0.36998576441107       -0.00678871883731
N           -6.22411054452486       -0.24722003855367        0.25515880645806
C           -7.47069570482555        0.33926932315498        0.13737148100947
C           -7.80717802365272        1.64316744672547       -0.19791513605573
C           -9.14727414403992        1.98182413858474       -0.21108428477260
C          -10.13549491153013        1.05330772898283        0.10913612746296
C           -9.80538307592280       -0.23871263184176        0.46810705295303
C           -8.46498658425834       -0.60246712574995        0.48884925548849
C           -7.77643776266371       -1.81786171643990        0.82629294843216
C           -8.20365244132734       -3.07916554096229        1.22155571481138
C           -7.25616417298023       -4.05787479395596        1.44807029295200
C           -5.89938033749276       -3.79635046260426        1.26872469070741
C           -5.44993974422403       -2.54928967776673        0.87680138622708
C           -6.39593296675736       -1.55454926636024        0.67309298428007
C           -3.96118348027936        0.29537703246861        0.92253960000214
C           -2.74324399358118        0.88487608701468        0.65434484307789
C           -1.17302131192852        3.50981747694840       -1.32085061535110
N           -0.04194389730522        4.13379583448497       -1.58968060488037
C            1.09799322667070        3.50610445907418       -1.37121567547179
C            1.18676080518139        2.20346949080999       -0.87879808009782
C            2.48879080672708        1.56561342653317       -0.65732211936797
C            2.75929384061298        0.88244519678477        0.52691370551730
C            3.98859746620853        0.28992552952627        0.73242341917864
C            4.97822615800528        0.37067295899213       -0.24481027762323
N            6.22439423936447       -0.23279144285093       -0.04229805706584
C            6.86743605718567       -1.07584412585749       -0.92994107479323
C            6.43896547271069       -1.56126713767646       -2.15740912272632
C            7.27670569742861       -2.42393604080820       -2.83895482240147
C            8.50953892661344       -2.80694697011747       -2.31458421366446
C            8.92893112068175       -2.34928424890522       -1.08105686918373
C            8.10396666066025       -1.48103379590057       -0.37726331035898
C            8.20730500246551       -0.84243155668228        0.90578722181256
C            9.18393090043032       -0.83739055895152        1.89357930119559
C            8.97635688071751       -0.07467897800256        3.02586810504623
C            7.81993235941889        0.68860079244666        3.17258279890059
C            6.83401625469527        0.69904980652190        2.20383365761088
C            7.02515722142077       -0.08557705877667        1.07523376715407
C            4.71617371319232        1.06056779082930       -1.42710873069331
C            3.48633456816557        1.65269422082299       -1.62751476211566
H           -3.42805627709413        2.18353528639650       -2.39072055644592
H           -5.58904144192583        1.10784559974035       -1.92992934407388
H           -7.04958096308904        2.37633627840781       -0.42965205837773
H           -9.43427802597231        2.99011449307660       -0.47206173434262
H          -11.17223848761246        1.35538919622722        0.08451439872851
H          -10.57036880284871       -0.95326322363239        0.73281830576615
H           -9.25611163952836       -3.28724822442875        1.34341965175125
H           -7.56722730304599       -5.04474210500197        1.75806394670216
H           -5.18181620982846       -4.58637261847599        1.43608084671058
H           -4.39734852785538       -2.36456691902920        0.72295822848200
H           -4.12106514560062       -0.21436062083297        1.86033395860628
H           -1.95522529976050        0.83297216693549        1.39122730684491
H           -2.07667667787497        4.07707371356769       -1.49862214151705
H            1.99478448041657        4.07062322722000       -1.58833487052680
H            2.00553085537883        0.82098800183575        1.29825230042188
H            4.18193034450893       -0.25223607833908        1.64539331495760
H            5.47747346885436       -1.28726859846439       -2.56473056783956
H            6.96632330289075       -2.81260875323278       -3.79794222470181
H            9.13764207662376       -3.48008836303041       -2.87950716646622
H            9.87582800198814       -2.66102821145971       -0.66621029778369
H           10.08774699520445       -1.41543677072868        1.77173807808317
H            9.72228235818999       -0.05875636650617        3.80695595731306
H            7.69225861822558        1.28854035179814        4.06193306601241
H            5.95025274050086        1.30781769912400        2.32103059394013
H            5.48623964545057        1.14086845936790       -2.17926091880254
H            3.28809112305870        2.17521913915466       -2.55159295054879

          :  Hamiltonian                  GFN2-xTB          :
         :: gradient norm              0.000038592066 Eh/a0 ::
         :: HOMO-LUMO gap              1.785532198525 eV    ::
         :: SCC energy              -117.156204892094 Eh    ::
         :: -> dispersion             -0.100254798823 Eh    ::
         :: -> Gsolv                  -0.050009022827 Eh    ::
         :: repulsion energy           2.191159845156 Eh    ::

    * Orbital Energies and Occupations

         #    Occupation            Energy/Eh            Energy/eV
      -------------------------------------------------------------
         1        2.0000           -0.6897407             -18.7688
       ...           ...                  ...                  ...
        95        2.0000           -0.4209931             -11.4558
        96        2.0000           -0.4203925             -11.4395
        97        2.0000           -0.4191089             -11.4045
        98        2.0000           -0.4187652             -11.3952
        99        2.0000           -0.4166396             -11.3373
       100        2.0000           -0.4092866             -11.1373
       101        2.0000           -0.4070690             -11.0769
       102        2.0000           -0.4069281             -11.0731
       103        2.0000           -0.3866990             -10.5226
       104        2.0000           -0.3805057             -10.3541
       105        2.0000           -0.3803715             -10.3504
       106        2.0000           -0.3654789              -9.9452
       107        2.0000           -0.3653928              -9.9428 (HOMO)
       108                         -0.2997757              -8.1573 (LUMO)
       109                         -0.2755813              -7.4989
       110                         -0.2489942              -6.7755
       111                         -0.2467289              -6.7138
       112                         -0.2425565              -6.6003
       113                         -0.2412845              -6.5657
       114                         -0.2409060              -6.5554
       115                         -0.2243673              -6.1053
       116                         -0.2238462              -6.0912
       117                         -0.2236950              -6.0871
       118                         -0.2212710              -6.0211
       ...                                ...                  ...
       210                          1.1434472              31.1148
      -------------------------------------------------------------
                  HL-Gap            0.0656171 Eh            1.7855 eV

     #   Z          covCN         q      C6AA      α(0)
     1   7 N        0.911    -0.264    26.835     7.492
     2   6 C        1.909     0.124    28.067     8.556
     3   6 C        2.987     0.018    27.592     8.617
     4   6 C        2.976     0.010    27.798     8.648
     5   6 C        2.976     0.003    27.962     8.674
     6   6 C        2.924    -0.031    28.784     8.798
     7   6 C        2.920    -0.041    29.019     8.834
     8   6 C        2.912     0.068    26.474     8.437
     9   7 N        2.802    -0.043    22.064     6.976
    10   6 C        3.072     0.046    26.886     8.502
    11   6 C        2.910    -0.052    29.284     8.873
    12   6 C        2.924    -0.034    28.857     8.809
    13   6 C        2.920    -0.042    29.035     8.836
    14   6 C        2.912    -0.034    28.849     8.808
    15   6 C        3.066    -0.017    28.367     8.734
    16   6 C        3.066    -0.017    28.372     8.734
    17   6 C        2.912    -0.034    28.853     8.808
    18   6 C        2.920    -0.041    29.029     8.835
    19   6 C        2.924    -0.034    28.846     8.808
    20   6 C        2.909    -0.051    29.267     8.871
    21   6 C        3.072     0.046    26.884     8.501
    22   6 C        2.921    -0.040    29.002     8.831
    23   6 C        2.923    -0.027    28.688     8.784
    24   6 C        2.914     0.053    26.801     8.489
    25   7 N        1.834    -0.220    26.637     7.648
    26   6 C        2.914     0.053    26.803     8.489
    27   6 C        2.976     0.010    27.797     8.648
    28   6 C        2.976     0.003    27.957     8.673
    29   6 C        2.923    -0.027    28.688     8.783
    30   6 C        2.921    -0.040    28.999     8.831
    31   6 C        2.912     0.068    26.475     8.437
    32   7 N        2.801    -0.043    22.070     6.977
    33   6 C        3.073     0.047    26.880     8.501
    34   6 C        2.910    -0.051    29.275     8.872
    35   6 C        2.924    -0.034    28.852     8.809
    36   6 C        2.920    -0.042    29.033     8.836
    37   6 C        2.912    -0.034    28.850     8.808
    38   6 C        3.066    -0.017    28.371     8.734
    39   6 C        3.067    -0.017    28.369     8.734
    40   6 C        2.912    -0.034    28.850     8.808
    41   6 C        2.920    -0.042    29.035     8.836
    42   6 C        2.924    -0.034    28.856     8.809
    43   6 C        2.910    -0.052    29.281     8.873
    44   6 C        3.072     0.047    26.881     8.501
    45   6 C        2.921    -0.041    29.015     8.833
    46   6 C        2.924    -0.031    28.785     8.798
    47   1 H        0.926     0.047     2.364     2.404
    48   1 H        0.926     0.052     2.297     2.370
    49   1 H        0.926     0.031     2.570     2.507
    50   1 H        0.926     0.032     2.560     2.502
    51   1 H        0.926     0.030     2.592     2.518
    52   1 H        0.926     0.032     2.557     2.501
    53   1 H        0.926     0.032     2.553     2.499
    54   1 H        0.926     0.030     2.589     2.516
    55   1 H        0.926     0.032     2.561     2.503
    56   1 H        0.926     0.031     2.578     2.511
    57   1 H        0.926     0.050     2.320     2.382
    58   1 H        0.926     0.037     2.484     2.465
    59   1 H        0.925     0.051     2.313     2.378
    60   1 H        0.925     0.051     2.313     2.378
    61   1 H        0.926     0.037     2.483     2.464
    62   1 H        0.926     0.050     2.319     2.382
    63   1 H        0.926     0.030     2.587     2.515
    64   1 H        0.926     0.031     2.566     2.505
    65   1 H        0.926     0.030     2.591     2.517
    66   1 H        0.926     0.032     2.554     2.499
    67   1 H        0.926     0.032     2.555     2.500
    68   1 H        0.926     0.030     2.592     2.518
    69   1 H        0.926     0.031     2.566     2.505
    70   1 H        0.926     0.030     2.585     2.514
    71   1 H        0.926     0.052     2.299     2.371
    72   1 H        0.926     0.046     2.365     2.405

molecular dipole:
                 x           y           z       tot (Debye)
 q only:       -0.039       0.872      -0.233
   full:       -0.033       0.973      -0.205       2.530

 projected vibrational frequencies (cm⁻¹)
eigval :       -0.00    -0.00    -0.00     0.00     0.00     0.00
eigval :        8.88    12.23    13.79    23.15    34.88    36.53
eigval :       48.88    52.74    76.56    85.74    96.87    98.28
eigval :      101.90   111.43   116.10   129.31   142.05   144.88
eigval :      151.31   168.89   185.52   207.46   224.75   235.41
eigval :      247.54   255.06   270.51   272.19   284.56   305.44
eigval :      343.88   375.09   378.81   383.91   385.39   387.82
eigval :      393.56   399.37   405.02   422.29   423.31   426.13
eigval :      435.22   438.06   439.61   491.98   496.46   517.67
eigval :      518.03   530.35   532.80   537.99   540.04   541.04
eigval :      571.77   576.10   580.59   582.79   588.25   599.04
eigval :      602.65   613.77   618.09   629.90   649.03   672.47
eigval :      673.45   689.70   697.33   702.89   707.05   709.97
eigval :      723.25   732.64   755.70   756.91   766.69   769.11
eigval :      779.21   780.95   796.70   819.78   820.88   835.20
eigval :      858.13   864.51   865.39   871.40   873.39   877.58
eigval :      879.42   897.12   897.23   898.64   900.14   903.63
eigval :      904.85   905.93   916.05   919.39   921.41   922.25
eigval :      925.69   925.82   927.60   933.55   933.72   938.99
eigval :      999.13  1010.98  1011.07  1016.70  1061.86  1068.92
eigval :     1069.16  1072.35  1073.04  1115.76  1116.19  1135.77
eigval :     1138.13  1150.81  1150.96  1157.55  1160.09  1173.90
eigval :     1174.52  1179.20  1179.38  1181.74  1182.73  1201.91
eigval :     1203.88  1208.31  1234.00  1234.27  1240.40  1242.71
eigval :     1250.38  1257.14  1266.63  1268.91  1297.18  1298.26
eigval :     1298.51  1298.90  1312.60  1315.16  1322.79  1354.55
eigval :     1355.12  1358.76  1359.14  1360.21  1367.58  1397.11
eigval :     1398.34  1409.55  1421.95  1426.25  1426.38  1427.65
eigval :     1430.95  1472.97  1473.16  1485.65  1485.87  1493.98
eigval :     1496.30  1522.08  1536.08  1556.29  1557.80  1573.46
eigval :     1573.50  1586.71  1586.93  1590.64  1592.23  1596.87
eigval :     1596.93  1611.91  1612.07  2355.10  3064.67  3065.25
eigval :     3072.15  3072.54  3072.67  3072.96  3077.77  3077.82
eigval :     3078.48  3078.69  3079.24  3082.30  3084.45  3084.82
eigval :     3085.37  3085.58  3086.45  3086.67  3091.92  3092.13
eigval :     3094.12  3094.36  3097.32  3097.79  3099.67  3100.25

   temp. (K)  partition function   enthalpy   heat capacity  entropy
                                   cal/mol     cal/K/mol   cal/K/mol   J/K/mol
 298.15  VIB  0.694E+16            20528.882    131.961    127.078
         ROT  0.103E+09              888.752      2.981     39.653
         INT  0.717E+24            21417.634    134.942    166.732
         TR   0.137E+29             1481.254      4.968     44.972
         TOT                       22898.8880   139.9100   211.7031   885.7657

       T/K    H(0)-H(T)+PV         H(T)/Eh          T*S/Eh         G(T)/Eh
   ------------------------------------------------------------------------
    298.15    0.364917E-01    0.580308E+00    0.100587E+00    0.479721E+00
   ------------------------------------------------------------------------

         :::::::::::::::::::::::::::::::::::::::::::::::::::::
         ::                  THERMODYNAMIC                  ::
         :::::::::::::::::::::::::::::::::::::::::::::::::::::
         :: total free energy        -114.485323848664 Eh   ::
         ::.................................................::
         :: total energy             -114.965045044150 Eh   ::
         :: zero point energy           0.543816459489 Eh   ::
         :: G(RRHO) w/o ZPVE           -0.064095264002 Eh   ::
         :: G(RRHO) contrib.            0.479721195486 Eh   ::
         :::::::::::::::::::::::::::::::::::::::::::::::::::::

           -------------------------------------------------
          | TOTAL ENERGY             -114.965045044150 Eh   |
          | TOTAL ENTHALPY           -114.384736883815 Eh   |
          | TOTAL FREE ENERGY        -114.485323848664 Eh   |
          | GRADIENT NORM               0.000038562494 Eh/α |
          | HOMO-LUMO GAP               1.785531934709 eV   |
           -------------------------------------------------

 * finished run on 2025/07/19 at 14:15:50.217
