   * xtb version 6.7.1 (edcfbbe) compiled by 'albert@albert-system' on 2024-07-22

   ID    Z sym.   atoms
    1    7 N      1, 9, 25, 32
    2    6 C      2-8, 10-24, 26-31, 33-46
    3    1 H      47-72

          program call               : xtb data2507/toluene/2CzP-INN/2CzP-INN_toluene_T1_crest.xyz --gfn 2 --uhf 2 --gbsa toluene --ohess vtight --parallel 40 --molden --ceasefiles --namespace data2507/toluene/2CzP-INN/2CzP-INN_toluene_T1_finalOpt
      * Solvation model:               GBSA
        Solvent                        toluene
        Solvent mass                       9.2140E+01 g/mol
          :  Hamiltonian                  GFN2-xTB          :
 * total energy  :  -114.8831489 Eh     change       -0.3447180E-07 Eh
 * total energy  :  -114.8832206 Eh     change       -0.7169867E-04 Eh
 * total energy  :  -114.8832522 Eh     change       -0.3160049E-04 Eh
 * total energy  :  -114.8832637 Eh     change       -0.1148868E-04 Eh
 * total energy  :  -114.8832705 Eh     change       -0.6788167E-05 Eh
 * total energy  :  -114.8832754 Eh     change       -0.4863591E-05 Eh
 * total energy  :  -114.8832782 Eh     change       -0.2877278E-05 Eh
 * total energy  :  -114.8832797 Eh     change       -0.1491542E-05 Eh
 * total energy  :  -114.8832816 Eh     change       -0.1890823E-05 Eh
 * total energy  :  -114.8832830 Eh     change       -0.1364632E-05 Eh
 * total energy  :  -114.8832864 Eh     change       -0.4148837E-06 Eh
 * total energy  :  -114.8832869 Eh     change       -0.4543488E-06 Eh
 * total energy  :  -114.8832875 Eh     change       -0.5926804E-06 Eh
 * total energy  :  -114.8832882 Eh     change       -0.7039032E-06 Eh
 * total energy  :  -114.8832888 Eh     change       -0.6922318E-06 Eh
 * total energy  :  -114.8832893 Eh     change       -0.4622140E-06 Eh
 * total energy  :  -114.8832897 Eh     change       -0.3406775E-06 Eh
 * total energy  :  -114.8832900 Eh     change       -0.3219876E-06 Eh
 * total energy  :  -114.8832900 Eh     change       -0.1190816E-07 Eh
   *** GEOMETRY OPTIMIZATION CONVERGED AFTER 22 ITERATIONS ***

 final structure:
================
72
 xtb: 6.7.1 (edcfbbe)
N           -0.00173461774006       -0.91272812730296       -0.95288226719463
C           -0.00184492038466        0.22903585847111       -0.72563868522097
C           -0.00176817587475        1.57645647429723       -0.44171238708108
C           -1.23908239588571        2.31776487555633       -0.39105209370406
C           -2.52127345072933        1.65634188689178       -0.25373387448497
C           -3.66282168754886        2.13736616460386       -0.91484442214172
C           -4.87216955400026        1.49291978574284       -0.80451144606265
C           -4.98890168430974        0.34112679560756       -0.02021751244703
N           -6.21002612581039       -0.32789457393439        0.08234936438169
C           -7.43179712075126        0.25492448713550        0.35554229774888
C           -7.73587524798923        1.58083869409818        0.63729690037683
C           -9.05416029273257        1.89626470231832        0.91248403788943
C          -10.04787989251578        0.92059253936549        0.92042705710721
C           -9.74610365966008       -0.40712473960067        0.66945724147206
C           -8.43128300191974       -0.74684893042481        0.39069649679646
C           -7.76686841949624       -1.99506321421557        0.11867629516844
C           -8.20676165031420       -3.30507122415522        0.00685329667199
C           -7.28161569630134       -4.29013176543825       -0.29383791838185
C           -5.94057030329057       -3.97649280682024       -0.50093632324454
C           -5.47873115826588       -2.67693580310248       -0.39568223087065
C           -6.39684548516329       -1.68911386971215       -0.06184872691029
C           -3.86484727465521       -0.13604245890519        0.66083232418465
C           -2.65865006302873        0.51296804495834        0.54829449928792
C           -1.15187168297883        3.69454196073994       -0.44566729017668
N           -0.00157658388276        4.36018354439011       -0.46735630932575
C            1.14875238301086        3.69419382638071       -0.44746807265717
C            1.23555322566455        2.31748455466739       -0.39284960705916
C            2.51812870589591        1.65599925679227       -0.25740900735590
C            2.65744448445263        0.51417622941108        0.54630256843324
C            3.86471613048771       -0.13294220009266        0.65937482334804
C            4.98763099352955        0.34487277402966       -0.02289723422379
N            6.21096807916745       -0.31983572391615        0.08254628148016
C            6.40380921646528       -1.68044329960644       -0.05875875258436
C            5.49035160690087       -2.67286921174684       -0.39164942482965
C            5.95801680658456       -3.97055588592200       -0.49420206665407
C            7.30022184380106       -4.27793485508865       -0.28517265319033
C            8.22065992619740       -3.28837283487016        0.01515388001289
C            7.77490334413870       -1.98012256737018        0.12432273027048
C            8.43347113987643       -0.72861527995470        0.39541480498356
C            9.74624814373847       -0.38261225282699        0.67617254906334
C           10.04162423372106        0.94680244472302        0.92574114160303
C            9.04366142283533        1.91810737743638        0.91425677000248
C            7.72735074013176        1.59642007622558        0.63696012945568
C            7.42971772900815        0.26870920294944        0.35685596133431
C            4.86845613543767        1.49407718467328       -0.81049653614327
C            3.65806409040213        2.13650783714690       -0.92144641603043
H           -3.57792718798901        3.00381362403629       -1.55347552489216
H           -5.72919217108579        1.84882687137171       -1.35656133186051
H           -6.96899346522504        2.33959931947430        0.65609900838440
H           -9.31647133472655        2.92065250929593        1.13119941208066
H          -11.06647053155385        1.20557718413696        1.13753101654529
H          -10.51490256842993       -1.16408659453427        0.69599736631621
H           -9.24895195791459       -3.54821179260799        0.14630699466163
H           -7.60319245925902       -5.31713947074201       -0.38157916138247
H           -5.24540034767499       -4.76289894865232       -0.75439066423686
H           -4.44149530156961       -2.44112324327826       -0.57868970308270
H           -3.95617640498639       -1.00135846140118        1.29999762954109
H           -1.80531908498165        0.14534763675032        1.09813415870948
H           -2.03970523219054        4.30983823634361       -0.39767009355012
H            2.03683573373808        4.30926603036097       -0.40128960998957
H            1.80497915682180        0.14646598986945        1.09742993125520
H            3.95770207758542       -0.99693338444724        1.30010027243605
H            4.45225614544902       -2.44186542705235       -0.57592593564835
H            5.26661707908502       -4.76051690152555       -0.74693035603383
H            7.62641674647532       -5.30365487287606       -0.37094150807519
H            9.26372717542029       -3.52671427530952        0.15638009820297
H           10.51835561749777       -1.13610074459268        0.70541634002655
H           11.05848507072734        1.23663031532413        1.14453622519149
H            9.30100284310149        2.94398060253383        1.13191010359813
H            6.95702330141185        2.35175915653859        0.65286491011595
H            5.72457554058725        1.84977675187293       -1.36409265708088
H            3.57126447556684        3.00116474620576       -1.56224438663001

          :  Hamiltonian                  GFN2-xTB          :
         :: gradient norm              0.000079745573 Eh/a0 ::
         :: HOMO-LUMO gap              0.417506755782 eV    ::
         :: SCC energy              -117.056933924715 Eh    ::
         :: -> dispersion             -0.100365863084 Eh    ::
         :: -> Gsolv                  -0.056020221543 Eh    ::
         :: repulsion energy           2.173643940230 Eh    ::

    * Orbital Energies and Occupations

         #    Occupation            Energy/Eh            Energy/eV
      -------------------------------------------------------------
         1        2.0000           -0.6891513             -18.7528
       ...           ...                  ...                  ...
        96        2.0000           -0.4180838             -11.3766
        97        2.0000           -0.4168612             -11.3434
        98        2.0000           -0.4154314             -11.3045
        99        2.0000           -0.4148802             -11.2895
       100        2.0000           -0.4043885             -11.0040
       101        2.0000           -0.3970692             -10.8048
       102        2.0000           -0.3962119             -10.7815
       103        2.0000           -0.3894785             -10.5982
       104        2.0000           -0.3894546             -10.5976
       105        1.9990           -0.3760817             -10.2337
       106        1.8196           -0.3710006             -10.0954
       107        1.1815           -0.3681313             -10.0174
       108        0.9997           -0.2792373              -7.5984 (HOMO)
       109        0.0003           -0.2638944              -7.1809 (LUMO)
       110                         -0.2550992              -6.9416
       111                         -0.2536024              -6.9009
       112                         -0.2359466              -6.4204
       113                         -0.2342768              -6.3750
       114                         -0.2339995              -6.3675
       115                         -0.2332530              -6.3471
       116                         -0.2332178              -6.3462
       117                         -0.2131005              -5.7988
       118                         -0.2011857              -5.4745
       119                         -0.1963320              -5.3425
       ...                                ...                  ...
       210                          1.1606491              31.5829
      -------------------------------------------------------------
                  HL-Gap            0.0153430 Eh            0.4175 eV

     #   Z          covCN         q      C6AA      α(0)
     1   7 N        0.911    -0.377    29.719     7.884
     2   6 C        1.907     0.098    28.679     8.649
     3   6 C        2.974    -0.032    28.803     8.803
     4   6 C        2.970    -0.010    28.269     8.721
     5   6 C        2.974     0.008    27.837     8.654
     6   6 C        2.922    -0.036    28.902     8.816
     7   6 C        2.917    -0.041    29.007     8.832
     8   6 C        2.913     0.056    26.735     8.479
     9   7 N        2.801    -0.014    21.521     6.890
    10   6 C        3.071     0.047    26.881     8.501
    11   6 C        2.909    -0.043    29.074     8.842
    12   6 C        2.923    -0.031    28.777     8.797
    13   6 C        2.920    -0.034    28.839     8.806
    14   6 C        2.912    -0.029    28.733     8.790
    15   6 C        3.064    -0.011    28.232     8.713
    16   6 C        3.065    -0.012    28.241     8.714
    17   6 C        2.912    -0.030    28.737     8.790
    18   6 C        2.920    -0.033    28.834     8.806
    19   6 C        2.923    -0.031    28.763     8.795
    20   6 C        2.909    -0.042    29.046     8.837
    21   6 C        3.072     0.047    26.876     8.500
    22   6 C        2.918    -0.040    28.983     8.828
    23   6 C        2.922    -0.028    28.708     8.787
    24   6 C        2.892     0.045    26.989     8.518
    25   7 N        1.835    -0.236    27.012     7.702
    26   6 C        2.892     0.045    26.992     8.518
    27   6 C        2.970    -0.010    28.267     8.721
    28   6 C        2.974     0.008    27.837     8.654
    29   6 C        2.922    -0.028    28.707     8.786
    30   6 C        2.918    -0.040    28.983     8.828
    31   6 C        2.913     0.056    26.734     8.479
    32   7 N        2.801    -0.014    21.524     6.890
    33   6 C        3.072     0.047    26.875     8.500
    34   6 C        2.909    -0.042    29.047     8.837
    35   6 C        2.923    -0.031    28.763     8.795
    36   6 C        2.920    -0.034    28.835     8.806
    37   6 C        2.912    -0.030    28.737     8.790
    38   6 C        3.065    -0.012    28.241     8.714
    39   6 C        3.064    -0.011    28.233     8.713
    40   6 C        2.912    -0.029    28.733     8.790
    41   6 C        2.920    -0.034    28.840     8.807
    42   6 C        2.923    -0.031    28.777     8.797
    43   6 C        2.909    -0.043    29.075     8.842
    44   6 C        3.071     0.047    26.880     8.501
    45   6 C        2.917    -0.040    29.006     8.832
    46   6 C        2.922    -0.036    28.901     8.816
    47   1 H        0.926     0.041     2.437     2.441
    48   1 H        0.926     0.049     2.328     2.386
    49   1 H        0.926     0.041     2.438     2.442
    50   1 H        0.926     0.041     2.437     2.441
    51   1 H        0.926     0.041     2.440     2.443
    52   1 H        0.926     0.043     2.408     2.427
    53   1 H        0.926     0.044     2.402     2.424
    54   1 H        0.926     0.041     2.437     2.441
    55   1 H        0.926     0.040     2.444     2.445
    56   1 H        0.926     0.039     2.457     2.451
    57   1 H        0.926     0.046     2.368     2.406
    58   1 H        0.926     0.035     2.519     2.482
    59   1 H        0.925     0.035     2.515     2.480
    60   1 H        0.925     0.035     2.516     2.480
    61   1 H        0.926     0.035     2.518     2.482
    62   1 H        0.926     0.046     2.368     2.406
    63   1 H        0.926     0.039     2.458     2.452
    64   1 H        0.926     0.040     2.444     2.445
    65   1 H        0.926     0.041     2.438     2.441
    66   1 H        0.926     0.043     2.403     2.424
    67   1 H        0.926     0.043     2.409     2.427
    68   1 H        0.926     0.041     2.441     2.443
    69   1 H        0.926     0.041     2.437     2.441
    70   1 H        0.926     0.041     2.439     2.442
    71   1 H        0.926     0.049     2.328     2.386
    72   1 H        0.926     0.041     2.437     2.441

molecular dipole:
                 x           y           z       tot (Debye)
 q only:       -0.005      -0.573       0.732
   full:       -0.005      -0.327       0.783       2.158

 projected vibrational frequencies (cm⁻¹)
eigval :       -0.00    -0.00    -0.00    -0.00     0.00     0.00
eigval :        9.98    12.48    16.43    22.16    37.60    38.70
eigval :       48.53    56.88    69.49    83.83    97.16    99.02
eigval :      104.64   113.80   115.12   127.45   141.39   146.96
eigval :      150.14   167.32   191.59   199.99   221.15   238.87
eigval :      251.46   263.36   271.45   271.64   291.43   292.67
eigval :      350.18   371.20   374.62   376.71   380.73   385.58
eigval :      386.82   396.89   404.64   407.95   420.87   424.69
eigval :      428.85   436.07   438.51   460.40   478.82   499.69
eigval :      511.09   513.98   515.88   519.58   536.22   536.28
eigval :      541.48   542.27   573.25   579.61   584.50   591.20
eigval :      600.97   605.48   609.42   616.36   633.46   650.56
eigval :      673.65   673.69   684.78   685.18   699.04   708.97
eigval :      710.45   727.39   754.23   754.98   764.93   768.15
eigval :      768.62   777.00   777.65   804.91   809.87   816.03
eigval :      827.66   838.39   849.64   855.86   870.43   870.70
eigval :      872.34   872.97   895.84   895.87   902.48   902.59
eigval :      904.21   904.49   916.18   916.28   917.91   918.33
eigval :      919.35   924.38   924.71   925.10   928.63   928.82
eigval :      988.00  1006.58  1009.77  1009.79  1034.76  1059.00
eigval :     1066.91  1066.98  1070.40  1074.66  1112.94  1116.02
eigval :     1123.55  1129.40  1137.63  1140.00  1142.64  1144.13
eigval :     1172.05  1173.34  1176.43  1176.55  1178.06  1184.68
eigval :     1202.68  1211.50  1227.48  1227.57  1235.84  1236.74
eigval :     1242.72  1259.27  1263.21  1263.98  1281.32  1281.66
eigval :     1288.99  1289.43  1312.95  1320.64  1323.33  1330.47
eigval :     1337.90  1338.00  1352.04  1355.24  1360.07  1361.07
eigval :     1374.84  1397.36  1408.57  1408.83  1415.96  1417.19
eigval :     1418.57  1419.47  1458.83  1459.02  1475.37  1477.43
eigval :     1478.82  1479.39  1490.42  1505.30  1506.53  1552.26
eigval :     1563.92  1563.95  1574.06  1576.08  1576.25  1576.61
eigval :     1579.79  1596.34  1599.31  2227.55  3057.68  3057.71
eigval :     3080.20  3080.23  3080.66  3080.71  3082.29  3082.36
eigval :     3084.32  3084.69  3086.01  3086.10  3086.84  3086.95
eigval :     3093.03  3093.20  3093.79  3093.86  3094.42  3094.56
eigval :     3096.23  3096.54  3098.58  3098.75  3099.16  3100.65

   temp. (K)  partition function   enthalpy   heat capacity  entropy
                                   cal/mol     cal/K/mol   cal/K/mol   J/K/mol
 298.15  VIB  0.576E+16            20753.220    133.820    128.012
         ROT  0.102E+09              888.752      2.981     39.619
         INT  0.586E+24            21641.972    136.801    167.631
         TR   0.137E+29             1481.254      4.968     44.972
         TOT                       23123.2263   141.7689   212.6024   889.5286

       T/K    H(0)-H(T)+PV         H(T)/Eh          T*S/Eh         G(T)/Eh
   ------------------------------------------------------------------------
    298.15    0.368492E-01    0.576607E+00    0.101014E+00    0.475592E+00
   ------------------------------------------------------------------------

         :::::::::::::::::::::::::::::::::::::::::::::::::::::
         ::                  THERMODYNAMIC                  ::
         :::::::::::::::::::::::::::::::::::::::::::::::::::::
         :: total free energy        -114.407697627910 Eh   ::
         ::.................................................::
         :: total energy             -114.883289986519 Eh   ::
         :: zero point energy           0.539757435319 Eh   ::
         :: G(RRHO) w/o ZPVE           -0.064165076711 Eh   ::
         :: G(RRHO) contrib.            0.475592358608 Eh   ::
         :::::::::::::::::::::::::::::::::::::::::::::::::::::

           -------------------------------------------------
          | TOTAL ENERGY             -114.883289986519 Eh   |
          | TOTAL ENTHALPY           -114.306683344463 Eh   |
          | TOTAL FREE ENERGY        -114.407697627910 Eh   |
          | GRADIENT NORM               0.000079508645 Eh/α |
          | HOMO-LUMO GAP               0.417503303498 eV   |
           -------------------------------------------------

 * finished run on 2025/07/19 at 14:25:08.818
