   * xtb version 6.7.1 (edcfbbe) compiled by 'albert@albert-system' on 2024-07-22

   ID    Z sym.   atoms
    1    7 N      1, 7, 17, 33
    2    6 C      2-6, 8-16, 18-23, 25-32, 34-39, 41-49
    3    8 O      24, 40
    4    1 H      50-77

          program call               : xtb data2507/gas/CNTPA-PXZ/CNTPA-PXZ_gas_T1_crest.xyz --gfn 2 --spinpol --tblite --uhf 2 --ohess vtight --parallel 40 --molden --ceasefiles --namespace data2507/gas/CNTPA-PXZ/CNTPA-PXZ_gas_T1_finalOpt
 * total energy  :  -126.1174717 Eh     change        0.1193474E-06 Eh
 * total energy  :  -126.1175781 Eh     change       -0.1063513E-03 Eh
 * total energy  :  -126.1176334 Eh     change       -0.5539608E-04 Eh
 * total energy  :  -126.1176163 Eh     change        0.1714207E-04 Eh
 * total energy  :  -126.1176545 Eh     change       -0.3816927E-04 Eh
 * total energy  :  -126.1176569 Eh     change       -0.2463734E-05 Eh
 * total energy  :  -126.1176604 Eh     change       -0.3416643E-05 Eh
 * total energy  :  -126.1176633 Eh     change       -0.2925673E-05 Eh
 * total energy  :  -126.1176667 Eh     change       -0.3422403E-05 Eh
 * total energy  :  -126.1176684 Eh     change       -0.1740224E-05 Eh
 * total energy  :  -126.1176832 Eh     change        0.6475588E-08 Eh
 * total energy  :  -126.1176836 Eh     change       -0.3525445E-06 Eh
 * total energy  :  -126.1176839 Eh     change       -0.3644118E-06 Eh
 * total energy  :  -126.1176843 Eh     change       -0.4095222E-06 Eh
 * total energy  :  -126.1176847 Eh     change       -0.3864111E-06 Eh
 * total energy  :  -126.1176854 Eh     change       -0.6355546E-06 Eh
 * total energy  :  -126.1176857 Eh     change       -0.3853979E-06 Eh
 * total energy  :  -126.1176860 Eh     change       -0.2087883E-06 Eh
 * total energy  :  -126.1176861 Eh     change       -0.9862686E-07 Eh
   *** GEOMETRY OPTIMIZATION CONVERGED AFTER 34 ITERATIONS ***

 final structure:
================
77
 xtb: 6.7.1 (edcfbbe)
N           -7.51049664494549        3.08885923442805        1.38173089340810
C           -6.39914905431874        2.99087517624593        1.09671862409863
C           -5.04501836482273        2.87050968433207        0.75215939766217
C           -4.52901844155819        3.55601840128802       -0.35998755177654
C           -3.20412211488847        3.43159803929042       -0.69813054574663
C           -2.34877536274641        2.62527025477472        0.06385331760103
N           -1.00068032527370        2.48449211399837       -0.28960579056714
C           -0.28395465414534        3.59775675865052       -0.75411605900872
C            0.64946108933378        3.45964345870256       -1.77994591788183
C            1.35760230818047        4.55724649628096       -2.22865994822707
C            1.13604669299694        5.80720594950377       -1.67437370202975
C            0.19964576790659        5.95162304287979       -0.66371834991578
C           -0.50412901894886        4.85702238906180       -0.19976967020623
C           -0.38336173247009        1.24963083077969       -0.17944170448952
C            0.97052681996983        1.15308986204133        0.17633380710500
C            1.56983565433587       -0.08463980528193        0.28927478498651
N            2.94564401934455       -0.16268088362319        0.63344247973792
C            3.89582099876231        0.23206326487562       -0.27661164440373
C            3.58459986038252        0.65528563390159       -1.57433476009590
C            4.56966178646256        1.05713862627764       -2.43922156364641
C            5.92614266907840        1.04546990431107       -2.03792592106308
C            6.26590843661513        0.60659903486257       -0.78072144088173
C            5.28237989523887        0.18809924435584        0.11103263462581
O            5.66045962911295       -0.26351572211694        1.32632587364022
C            4.71627388065336       -0.67375047412681        2.20015271803825
C            5.12194094140234       -1.13784403979281        3.44890853274484
C            4.19283145925009       -1.53707912054695        4.37909684518892
C            2.81356450062558       -1.46114478065966        4.07774221600119
C            2.39160016036753       -1.00697097277250        2.85382191453446
C            3.31458688181632       -0.62075482029978        1.87509165862951
C            0.85572139355334       -1.26188024267088        0.07538801601232
C           -0.49169704198578       -1.16423296988510       -0.28015414048710
N           -1.23260644982521       -2.34518616846666       -0.51907937575498
C           -0.93118188702088       -3.15802607273027       -1.60848176335059
C            0.07959855943942       -2.84607463613753       -2.51093807420565
C            0.35411291667361       -3.68034546626067       -3.58235655082540
C           -0.38131251492877       -4.83372548428753       -3.77687958153762
C           -1.40963063259160       -5.14675989511991       -2.90145866361787
C           -1.68945111239565       -4.31787614461285       -1.82980000249544
O           -2.73472732047428       -4.67553706442953       -1.02023448474209
C           -3.03013063948864       -3.85544129626490        0.03734303445056
C           -4.09267271002497       -4.22228441187488        0.84365910591752
C           -4.43170024557781       -3.45253860160503        1.94540625982244
C           -3.69099756276091       -2.32508226374437        2.24515138366708
C           -2.62651139687373       -1.95288412203293        1.44147079389002
C           -2.29138820832548       -2.69587829530585        0.31553840385695
C           -1.10164819589858        0.06763517665814       -0.41237163801293
C           -2.86144900137941        1.95329732959953        1.18163200130265
C           -4.18644187053287        2.06761013306908        1.52026092252055
H           -5.18761282002330        4.17532889917959       -0.95088046917012
H           -2.81062204317930        3.95280932208023       -1.55869479091554
H            0.80818797096525        2.48984198889839       -2.22813349987440
H            2.07983071593211        4.43630751912671       -3.02236313727827
H            1.68750700455774        6.66397809899640       -2.03010005377467
H            0.02092822239996        6.92277090422485       -0.22671648648726
H           -1.22735334421437        4.96839680809780        0.59457990116470
H            1.54472751417732        2.04768703652131        0.36287638848966
H            2.55236226986381        0.65756165461270       -1.88826748779982
H            4.31312213035697        1.38105241025343       -3.43494481157257
H            6.68965249624824        1.37116442861715       -2.72491413395277
H            7.29356349196790        0.57022754671207       -0.45484859188149
H            6.17962752624825       -1.16928592644240        3.65824311953208
H            4.50997273773343       -1.89869154548319        5.34333546901888
H            2.09026590435862       -1.75906065611532        4.81941907427233
H            1.33724559590884       -0.94315961898058        2.63328572548155
H            1.33286087636068       -2.22328383193546        0.17534986676002
H            0.65174893605660       -1.94192108063580       -2.37609349270000
H            1.14696849305262       -3.41763871536516       -4.26543195089805
H           -0.16843721414137       -5.48648576242839       -4.60836344422715
H           -2.01282562192703       -6.03030960612008       -3.03472043682039
H           -4.63991250823139       -5.11645273160230        0.59206764627400
H           -5.26486420975262       -3.74214567392584        2.56545537170303
H           -3.93522597829321       -1.72682307032099        3.10902302151240
H           -2.04601365339397       -1.07937105058511        1.68994862797345
H           -2.13947409274335        0.12161133352358       -0.70423374602957
H           -2.19662634540200        1.35454127314729        1.78718164967569
H           -4.57694232558702        1.55134959163116        2.38481069025139

 projected vibrational frequencies (cm⁻¹)
eigval :       -0.00    -0.00     0.00     0.00     0.00     0.00
eigval :        9.45    10.72    14.00    16.39    18.92    24.96
eigval :       32.39    42.55    50.53    53.91    66.65    68.33
eigval :       73.13    85.10    95.31   104.72   112.60   129.01
eigval :      131.08   136.61   162.50   204.05   218.30   230.04
eigval :      232.12   238.18   242.32   247.79   255.12   261.62
eigval :      266.72   270.74   297.72   299.17   323.81   341.98
eigval :      363.17   376.42   380.09   381.92   384.73   396.42
eigval :      401.49   402.46   414.15   421.95   428.61   434.00
eigval :      438.50   441.03   461.76   474.51   482.35   498.26
eigval :      506.17   513.15   516.42   521.61   534.08   543.24
eigval :      564.43   566.42   569.96   578.09   588.65   591.18
eigval :      604.38   608.57   616.35   620.98   623.73   631.44
eigval :      652.38   654.13   658.62   661.28   662.69   664.37
eigval :      695.89   712.84   736.14   738.90   755.91   770.71
eigval :      775.54   776.84   797.68   800.71   804.26   810.96
eigval :      829.88   833.49   836.75   846.41   852.92   855.91
eigval :      862.91   864.18   869.84   873.85   880.05   883.50
eigval :      884.79   888.97   889.27   890.38   896.66   897.38
eigval :      898.55   907.05   913.18   914.33   915.46   917.32
eigval :      918.58   928.02   929.90   963.09   986.06  1007.73
eigval :     1016.90  1034.81  1044.44  1045.11  1082.46  1087.69
eigval :     1088.45  1108.28  1110.30  1118.81  1119.92  1121.49
eigval :     1132.19  1134.95  1159.90  1160.74  1165.03  1174.92
eigval :     1178.86  1180.23  1181.23  1184.30  1189.11  1197.37
eigval :     1203.13  1204.11  1220.46  1228.08  1234.45  1240.57
eigval :     1245.95  1255.89  1259.09  1259.78  1261.08  1278.17
eigval :     1285.96  1288.85  1313.27  1316.68  1320.35  1322.25
eigval :     1324.67  1329.21  1330.49  1340.41  1342.97  1346.94
eigval :     1368.14  1377.97  1395.51  1412.50  1419.43  1422.26
eigval :     1426.07  1428.94  1438.71  1442.38  1451.12  1453.78
eigval :     1458.63  1460.16  1469.33  1470.48  1471.90  1475.66
eigval :     1485.93  1498.32  1551.78  1563.78  1572.53  1580.87
eigval :     1583.70  1586.35  1594.97  1596.66  2319.45  3075.10
eigval :     3078.56  3079.56  3081.34  3088.19  3090.65  3092.07
eigval :     3092.46  3093.00  3094.04  3094.28  3095.19  3099.91
eigval :     3100.47  3100.63  3100.99  3101.09  3102.41  3105.13
eigval :     3106.18  3106.97  3108.78  3111.32  3114.06  3115.89
eigval :     3116.13  3116.41  3116.86

   temp. (K)  partition function   enthalpy   heat capacity  entropy
                                   cal/mol     cal/K/mol   cal/K/mol   J/K/mol
 298.15  VIB  0.580E+19            23130.610    145.069    144.502
         ROT  0.739E+08              888.752      2.981     38.988
         INT  0.429E+27            24019.362    148.050    183.490
         TR   0.154E+29             1481.254      4.968     45.197
         TOT                       25500.6161   153.0180   228.6864   956.8240

       T/K    H(0)-H(T)+PV         H(T)/Eh          T*S/Eh         G(T)/Eh
   ------------------------------------------------------------------------
    298.15    0.406378E-01    0.613690E+00    0.108656E+00    0.505034E+00
   ------------------------------------------------------------------------

         :::::::::::::::::::::::::::::::::::::::::::::::::::::
         ::                  THERMODYNAMIC                  ::
         :::::::::::::::::::::::::::::::::::::::::::::::::::::
         :: total free energy        -125.612652541604 Eh   ::
         ::.................................................::
         :: total energy             -126.117686116638 Eh   ::
         :: zero point energy           0.573052050669 Eh   ::
         :: G(RRHO) w/o ZPVE           -0.068018475634 Eh   ::
         :: G(RRHO) contrib.            0.505033575034 Eh   ::
         :::::::::::::::::::::::::::::::::::::::::::::::::::::

           -------------------------------------------------
          | TOTAL ENERGY             -126.117686116638 Eh   |
          | TOTAL ENTHALPY           -125.503996247547 Eh   |
          | TOTAL FREE ENERGY        -125.612652541604 Eh   |
          | GRADIENT NORM               0.000092150026 Eh/α |
           -------------------------------------------------

 * finished run on 2025/09/14 at 10:31:12.752
