   * xtb version 6.7.1 (edcfbbe) compiled by 'albert@albert-system' on 2024-07-22

   ID    Z sym.   atoms
    1    7 N      1, 7, 17, 33
    2    6 C      2-6, 8-16, 18-23, 25-32, 34-39, 41-49
    3    8 O      24, 40
    4    1 H      50-77

          program call               : xtb data2507/gas/CNTPA-PXZ/CNTPA-PXZ_gas_S0_crest.xyz --gfn 2 --ohess vtight --parallel 40 --molden --ceasefiles --namespace data2507/gas/CNTPA-PXZ/CNTPA-PXZ_gas_S0_finalOpt
          :  Hamiltonian                  GFN2-xTB          :
 * total energy  :  -126.2083769 Eh     change       -0.5787996E-08 Eh
 * total energy  :  -126.2083775 Eh     change       -0.6047444E-06 Eh
 * total energy  :  -126.2083786 Eh     change       -0.1098102E-05 Eh
 * total energy  :  -126.2083803 Eh     change       -0.1674502E-05 Eh
 * total energy  :  -126.2083815 Eh     change       -0.1208921E-05 Eh
 * total energy  :  -126.2083821 Eh     change       -0.5353756E-06 Eh
 * total energy  :  -126.2083824 Eh     change       -0.3956215E-06 Eh
 * total energy  :  -126.2083829 Eh     change       -0.4842312E-06 Eh
 * total energy  :  -126.2083834 Eh     change       -0.4274846E-06 Eh
 * total energy  :  -126.2083836 Eh     change       -0.2794353E-06 Eh
 * total energy  :  -126.2083849 Eh     change       -0.4348628E-06 Eh
 * total energy  :  -126.2083853 Eh     change       -0.3963923E-06 Eh
 * total energy  :  -126.2083856 Eh     change       -0.3057264E-06 Eh
 * total energy  :  -126.2083859 Eh     change       -0.2369811E-06 Eh
 * total energy  :  -126.2083861 Eh     change       -0.2137400E-06 Eh
 * total energy  :  -126.2083863 Eh     change       -0.2530354E-06 Eh
 * total energy  :  -126.2083866 Eh     change       -0.2673477E-06 Eh
 * total energy  :  -126.2083869 Eh     change       -0.2715239E-06 Eh
 * total energy  :  -126.2083869 Eh     change       -0.3777316E-08 Eh
   *** GEOMETRY OPTIMIZATION CONVERGED AFTER 22 ITERATIONS ***

 final structure:
================
77
 xtb: 6.7.1 (edcfbbe)
N           -7.30713284927598        3.55506856166224        1.72314663498443
C           -6.22632606292132        3.36858807318437        1.38664412968627
C           -4.89637056416843        3.14280334226048        0.97444151543262
C           -4.35746154929105        3.86904297212651       -0.09038800073944
C           -3.06077500962607        3.64631587962101       -0.49446495454177
C           -2.26618593383358        2.69659580764014        0.15650906740221
N           -0.95849338392362        2.47202205164088       -0.25412580084671
C           -0.19402556921942        3.51907647793663       -0.80256196327596
C            0.60040509298974        3.28856530350123       -1.92295646061703
C            1.37386231831602        4.30652028589370       -2.44628242654840
C            1.35373757267471        5.56575870057148       -1.86985314761922
C            0.55441341838759        5.80188154353883       -0.76339234900457
C           -0.21306564160733        4.78615410076423       -0.22556160697612
C           -0.37446627403587        1.20644794873779       -0.14460621110784
C            0.97080983745342        1.09080564400225        0.19858270063633
C            1.56932614802257       -0.15983878154574        0.27440014310302
N            2.93198499213328       -0.26211156005181        0.61879772134882
C            3.91081979951375        0.32982470215360       -0.18398682948898
C            3.60834591372987        0.94521730630126       -1.39154438404351
C            4.60283684311876        1.52533791043664       -2.16407377526949
C            5.91822387668923        1.48746720604663       -1.74987103206183
C            6.24228141776115        0.84520091744824       -0.56376622823794
C            5.25412357897719        0.26474653925395        0.20920210195663
O            5.65619418298506       -0.37968363840075        1.35179293809381
C            4.68376445716704       -0.95903867744707        2.12869728762017
C            5.10263401100658       -1.59359041305887        3.28312786690230
C            4.17824010298210       -2.17520661157573        4.13818463154964
C            2.83388620004110       -2.09972635524836        3.83738577204183
C            2.40891905720015       -1.46597138297102        2.67934673462613
C            3.32347145879272       -0.90655272786861        1.79649153494626
C            0.82419102570299       -1.30868361664393        0.03017443635812
C           -0.52203450222820       -1.19477194753503       -0.29611320483206
N           -1.29047589346473       -2.35080936912165       -0.54670735228205
C           -1.03378420116340       -3.15520898272163       -1.65988298069987
C            0.00885441729447       -2.89740612722698       -2.53983739308084
C            0.23321200570819       -3.71811594672138       -3.63522931917866
C           -0.58537285292661       -4.80280056328184       -3.87323158147991
C           -1.64726822866303       -5.05860595426272       -3.01788619367314
C           -1.87681377796340       -4.24265520105354       -1.92618091515768
O           -2.96540708461675       -4.54208672058059       -1.14451447967249
C           -3.19953285224069       -3.74593793579138       -0.05148947730491
C           -4.28513614949108       -4.06684962817086        0.74161248794140
C           -4.56592028723267       -3.32427519817644        1.87952610216677
C           -3.74052512285692       -2.27528363123587        2.22855807210018
C           -2.65032688609538       -1.95011990462323        1.43586240470629
C           -2.37780083897819       -2.65905862146490        0.27360260888620
C           -1.11797242899639        0.05556255094454       -0.39504009971041
C           -2.80849705071411        1.98247628747022        1.23028988229687
C           -4.10699673902943        2.19635142135943        1.63181910511629
H           -4.96830762746423        4.59879930383743       -0.60079128062547
H           -2.65177543937452        4.20043977054625       -1.32599821016954
H            0.59874838174845        2.31080449840840       -2.38210699994141
H            1.98805387643385        4.11764687864587       -3.31373513755959
H            1.95669917430702        6.36011995875124       -2.28198449380972
H            0.53495794110000        6.78106603296310       -0.30887763223197
H           -0.82733141797583        4.96599520801900        0.64466528474104
H            1.55221598752905        1.97598665232242        0.40790457420150
H            2.58713196347313        0.96694803471809       -1.73601008143804
H            4.33621445895380        2.00227024875241       -3.09459244904377
H            6.69593610734730        1.94082531880521       -2.34373998538726
H            7.26246291341070        0.77904807019535       -0.22116269217277
H            6.15903262356687       -1.61637867495629        3.49769202194029
H            4.51480564436806       -2.67131967283071        5.03459713653754
H            2.10002577530851       -2.53062264385027        4.50089990541155
H            1.35341100482629       -1.40201534373058        2.46681723690587
H            1.28680249628266       -2.28139915553615        0.09427809411567
H            0.64829421275733       -2.04454595573131       -2.37407854293803
H            1.05390700451038       -3.49623703861017       -4.29991504374163
H           -0.41343669815601       -5.44640281870184       -4.72131252466851
H           -2.31671043657462       -5.88708064407890       -3.18523016961341
H           -4.89843001485399       -4.90530343232062        0.45296723483650
H           -5.41859572006209       -3.57895703244063        2.48857183864858
H           -3.93290000738669       -1.70297230017809        3.12306230768164
H           -1.99791339695246       -1.14250191688545        1.72820970669139
H           -2.15855549958986        0.12994653455637       -0.67290067440274
H           -2.19488869409606        1.26749688358366        1.75637989014766
H           -4.51821942811936        1.64192252522967        2.46208911543226

          :  Hamiltonian                  GFN2-xTB          :
         :: gradient norm              0.000050520996 Eh/a0 ::
         :: HOMO-LUMO gap              1.959869319359 eV    ::
         :: SCC energy              -128.464243681010 Eh    ::
         :: -> dispersion             -0.112522168499 Eh    ::
         :: repulsion energy           2.255856817663 Eh    ::

    * Orbital Energies and Occupations

         #    Occupation            Energy/Eh            Energy/eV
      -------------------------------------------------------------
         1        2.0000           -0.7305328             -19.8788
       ...           ...                  ...                  ...
       104        2.0000           -0.4250903             -11.5673
       105        2.0000           -0.4234548             -11.5228
       106        2.0000           -0.4221242             -11.4866
       107        2.0000           -0.4189533             -11.4003
       108        2.0000           -0.4184088             -11.3855
       109        2.0000           -0.4179144             -11.3720
       110        2.0000           -0.4159666             -11.3190
       111        2.0000           -0.4150043             -11.2928
       112        2.0000           -0.3936608             -10.7121
       113        2.0000           -0.3927847             -10.6882
       114        2.0000           -0.3732042             -10.1554
       115        2.0000           -0.3475450              -9.4572
       116        2.0000           -0.3455391              -9.4026 (HOMO)
       117                         -0.2735152              -7.4427 (LUMO)
       118                         -0.2541699              -6.9163
       119                         -0.2532316              -6.8908
       120                         -0.2458289              -6.6893
       121                         -0.2414667              -6.5706
       122                         -0.2403923              -6.5414
       123                         -0.2402893              -6.5386
       124                         -0.2328881              -6.3372
       125                         -0.2319853              -6.3126
       126                         -0.2282717              -6.2116
       127                         -0.2170090              -5.9051
       ...                                ...                  ...
       224                          1.1746541              31.9640
      -------------------------------------------------------------
                  HL-Gap            0.0720239 Eh            1.9599 eV

     #   Z          covCN         q      C6AA      α(0)
     1   7 N        0.911    -0.240    26.278     7.414
     2   6 C        1.911     0.110    28.380     8.603
     3   6 C        2.973     0.009    27.808     8.650
     4   6 C        2.925    -0.020    28.512     8.757
     5   6 C        2.921    -0.047    29.164     8.856
     6   6 C        2.922     0.071    26.408     8.427
     7   7 N        2.753    -0.069    22.569     7.056
     8   6 C        2.927     0.063    26.590     8.456
     9   6 C        2.923    -0.043    29.074     8.842
    10   6 C        2.920    -0.026    28.662     8.779
    11   6 C        2.920    -0.034    28.837     8.806
    12   6 C        2.920    -0.027    28.680     8.782
    13   6 C        2.922    -0.044    29.100     8.846
    14   6 C        2.924     0.067    26.511     8.444
    15   6 C        2.926    -0.065    29.615     8.924
    16   6 C        2.920     0.068    26.470     8.437
    17   7 N        2.752    -0.071    22.623     7.064
    18   6 C        2.922     0.042    27.057     8.530
    19   6 C        2.924    -0.060    29.499     8.907
    20   6 C        2.919    -0.039    28.965     8.826
    21   6 C        2.919    -0.040    28.998     8.831
    22   6 C        2.920    -0.056    29.394     8.891
    23   6 C        2.884     0.125    25.255     8.239
    24   8 O        1.709    -0.254    18.215     5.762
    25   6 C        2.884     0.125    25.261     8.240
    26   6 C        2.920    -0.056    29.385     8.889
    27   6 C        2.919    -0.040    28.987     8.829
    28   6 C        2.919    -0.038    28.957     8.824
    29   6 C        2.924    -0.060    29.493     8.906
    30   6 C        2.921     0.042    27.055     8.530
    31   6 C        2.923    -0.063    29.572     8.918
    32   6 C        2.920     0.069    26.464     8.436
    33   7 N        2.753    -0.073    22.650     7.068
    34   6 C        2.922     0.042    27.049     8.529
    35   6 C        2.924    -0.061    29.505     8.908
    36   6 C        2.919    -0.039    28.961     8.825
    37   6 C        2.919    -0.040    28.995     8.830
    38   6 C        2.920    -0.056    29.386     8.890
    39   6 C        2.884     0.125    25.261     8.240
    40   8 O        1.709    -0.255    18.218     5.763
    41   6 C        2.884     0.125    25.256     8.239
    42   6 C        2.920    -0.056    29.384     8.889
    43   6 C        2.919    -0.040    28.987     8.829
    44   6 C        2.919    -0.039    28.962     8.825
    45   6 C        2.924    -0.060    29.479     8.904
    46   6 C        2.923     0.042    27.057     8.530
    47   6 C        2.925    -0.065    29.614     8.924
    48   6 C        2.921    -0.047    29.155     8.855
    49   6 C        2.925    -0.020    28.506     8.756
    50   1 H        0.926     0.044     2.402     2.424
    51   1 H        0.926     0.039     2.461     2.453
    52   1 H        0.926     0.032     2.559     2.501
    53   1 H        0.926     0.038     2.475     2.460
    54   1 H        0.926     0.038     2.481     2.463
    55   1 H        0.926     0.038     2.471     2.458
    56   1 H        0.926     0.035     2.512     2.479
    57   1 H        0.926     0.046     2.373     2.409
    58   1 H        0.926     0.031     2.569     2.506
    59   1 H        0.926     0.034     2.524     2.484
    60   1 H        0.926     0.039     2.469     2.457
    61   1 H        0.926     0.051     2.305     2.374
    62   1 H        0.926     0.051     2.304     2.373
    63   1 H        0.926     0.039     2.460     2.453
    64   1 H        0.926     0.037     2.491     2.468
    65   1 H        0.926     0.033     2.544     2.494
    66   1 H        0.926     0.053     2.286     2.365
    67   1 H        0.926     0.032     2.557     2.501
    68   1 H        0.926     0.036     2.503     2.474
    69   1 H        0.926     0.039     2.466     2.456
    70   1 H        0.926     0.051     2.304     2.374
    71   1 H        0.926     0.052     2.300     2.372
    72   1 H        0.926     0.040     2.452     2.449
    73   1 H        0.926     0.035     2.517     2.481
    74   1 H        0.926     0.027     2.624     2.533
    75   1 H        0.926     0.045     2.381     2.413
    76   1 H        0.926     0.037     2.491     2.468
    77   1 H        0.926     0.044     2.396     2.421

molecular dipole:
                 x           y           z       tot (Debye)
 q only:        1.326       0.404      -0.534
   full:        1.718       0.423      -0.681       4.818

 projected vibrational frequencies (cm⁻¹)
eigval :       -0.00    -0.00    -0.00    -0.00    -0.00     0.00
eigval :       10.39    12.96    15.64    17.07    18.18    23.01
eigval :       31.56    41.00    44.62    55.82    56.61    69.59
eigval :       72.58    87.56   102.53   112.87   114.68   130.94
eigval :      131.92   141.25   165.24   207.95   223.00   236.88
eigval :      240.01   242.13   249.75   250.68   263.35   266.67
eigval :      268.79   272.20   291.71   298.76   314.83   343.19
eigval :      355.34   375.46   382.15   382.99   397.15   398.62
eigval :      419.63   422.06   428.57   429.37   429.92   441.03
eigval :      448.69   466.55   476.27   501.03   510.21   510.45
eigval :      518.50   520.74   522.53   532.09   538.58   540.20
eigval :      566.24   573.08   576.98   581.06   589.29   597.52
eigval :      613.51   630.77   634.78   645.89   657.56   660.46
eigval :      660.94   661.02   661.27   663.97   671.04   678.16
eigval :      709.67   720.52   760.12   776.38   777.01   777.77
eigval :      779.17   779.46   805.39   813.89   815.62   836.28
eigval :      854.89   855.37   859.25   859.52   863.95   865.08
eigval :      868.23   876.45   878.32   889.37   891.34   895.76
eigval :      896.29   897.84   899.84   902.74   911.88   912.82
eigval :      914.82   915.65   916.40   917.93   918.49   921.99
eigval :      924.75   929.64   931.00   987.48   994.32  1016.72
eigval :     1036.81  1055.59  1081.92  1089.68  1090.50  1091.35
eigval :     1092.16  1108.11  1108.51  1120.23  1121.21  1125.46
eigval :     1137.20  1161.05  1162.69  1175.02  1175.62  1178.91
eigval :     1180.31  1181.98  1185.87  1188.89  1196.56  1200.58
eigval :     1201.85  1203.91  1226.97  1229.97  1242.55  1244.08
eigval :     1245.05  1260.14  1261.12  1263.62  1274.72  1280.99
eigval :     1283.48  1309.77  1310.42  1314.06  1322.28  1325.38
eigval :     1331.44  1338.39  1341.79  1349.50  1354.00  1387.36
eigval :     1412.28  1421.89  1423.43  1434.89  1439.28  1442.72
eigval :     1446.70  1448.48  1470.93  1482.82  1488.91  1491.78
eigval :     1503.95  1507.32  1544.19  1560.21  1561.97  1568.33
eigval :     1568.52  1581.51  1581.53  1582.57  1589.16  1590.99
eigval :     1591.77  1597.28  1604.11  1604.67  2369.03  3079.62
eigval :     3080.80  3087.19  3087.93  3088.71  3088.87  3089.55
eigval :     3089.79  3090.50  3092.98  3098.05  3098.40  3098.77
eigval :     3099.32  3099.72  3099.79  3100.90  3102.20  3102.82
eigval :     3104.74  3105.44  3106.20  3106.67  3112.03  3113.87
eigval :     3114.03  3114.70  3114.76

   temp. (K)  partition function   enthalpy   heat capacity  entropy
                                   cal/mol     cal/K/mol   cal/K/mol   J/K/mol
 298.15  VIB  0.326E+19            22778.617    142.505    142.032
         ROT  0.742E+08              888.752      2.981     38.995
         INT  0.242E+27            23667.369    145.486    181.027
         TR   0.154E+29             1481.254      4.968     45.197
         TOT                       25148.6230   150.4537   226.2233   946.5181

       T/K    H(0)-H(T)+PV         H(T)/Eh          T*S/Eh         G(T)/Eh
   ------------------------------------------------------------------------
    298.15    0.400769E-01    0.618835E+00    0.107486E+00    0.511349E+00
   ------------------------------------------------------------------------

         :::::::::::::::::::::::::::::::::::::::::::::::::::::
         ::                  THERMODYNAMIC                  ::
         :::::::::::::::::::::::::::::::::::::::::::::::::::::
         :: total free energy        -125.697037429051 Eh   ::
         ::.................................................::
         :: total energy             -126.208386863346 Eh   ::
         :: zero point energy           0.578758520149 Eh   ::
         :: G(RRHO) w/o ZPVE           -0.067409085854 Eh   ::
         :: G(RRHO) contrib.            0.511349434295 Eh   ::
         :::::::::::::::::::::::::::::::::::::::::::::::::::::

           -------------------------------------------------
          | TOTAL ENERGY             -126.208386863346 Eh   |
          | TOTAL ENTHALPY           -125.589551461463 Eh   |
          | TOTAL FREE ENERGY        -125.697037429051 Eh   |
          | GRADIENT NORM               0.000050567794 Eh/α |
          | HOMO-LUMO GAP               1.959869940618 eV   |
           -------------------------------------------------

 * finished run on 2025/09/14 at 10:21:48.302
