   * xtb version 6.7.1 (edcfbbe) compiled by 'albert@albert-system' on 2024-07-22

   ID    Z sym.   atoms
    1    7 N      1, 7, 17, 33
    2    6 C      2-6, 8-16, 18-23, 25-32, 34-39, 41-49
    3    8 O      24, 40
    4    1 H      50-77

          program call               : xtb data2507/gas/CNTPA-PXZ/CNTPA-PXZ_gas_S0_finalOpt.xtbopt.xyz --gfn 2 --spinpol --tblite --uhf 2 --ohess vtight --parallel 40 --molden --ceasefiles --namespace data2507/gas/CNTPA-PXZ/CNTPA-PXZ_gas_T1_preOpt
 * total energy  :  -126.1126911 Eh     change        0.7867840E-09 Eh
 * total energy  :  -126.1152621 Eh     change       -0.2571072E-02 Eh
 * total energy  :  -126.1160071 Eh     change       -0.7449903E-03 Eh
 * total energy  :  -126.1160789 Eh     change       -0.7173515E-04 Eh
 * total energy  :  -126.1161783 Eh     change       -0.9947787E-04 Eh
 * total energy  :  -126.1164246 Eh     change       -0.2462386E-03 Eh
 * total energy  :  -126.1143220 Eh     change        0.2102562E-02 Eh
 * total energy  :  -126.1166460 Eh     change       -0.2323973E-02 Eh
 * total energy  :  -126.1168390 Eh     change       -0.1930512E-03 Eh
 * total energy  :  -126.1170611 Eh     change       -0.2220221E-03 Eh
 * total energy  :  -126.1176881 Eh     change       -0.2241663E-06 Eh
 * total energy  :  -126.1176883 Eh     change       -0.2209346E-06 Eh
 * total energy  :  -126.1176886 Eh     change       -0.2111354E-06 Eh
 * total energy  :  -126.1176887 Eh     change       -0.1546773E-06 Eh
 * total energy  :  -126.1176889 Eh     change       -0.1511150E-06 Eh
 * total energy  :  -126.1176890 Eh     change       -0.1353756E-06 Eh
 * total energy  :  -126.1176891 Eh     change       -0.1214729E-06 Eh
 * total energy  :  -126.1176892 Eh     change       -0.1107213E-06 Eh
 * total energy  :  -126.1176893 Eh     change       -0.7290728E-07 Eh
   *** GEOMETRY OPTIMIZATION CONVERGED AFTER 66 ITERATIONS ***

 final structure:
================
77
 xtb: 6.7.1 (edcfbbe)
N           -7.42171902072692        3.27346433890187        1.44290485902078
C           -6.31254821227053        3.14733181013030        1.16035959043923
C           -4.96130853923317        2.99267560200728        0.81831276123213
C           -4.41678435485503        3.69501350663223       -0.26953689476789
C           -3.09489493486261        3.53717481962690       -0.60533101818845
C           -2.27081813633883        2.67952588610569        0.13483041951828
N           -0.92580353632863        2.50745766000129       -0.21722431067501
C           -0.17408022072588        3.61443719250400       -0.64098249235302
C            0.75370465551728        3.48621468043188       -1.67308802257588
C            1.49623505206975        4.57723936107029       -2.08045835379664
C            1.31491071222947        5.81130273793602       -1.47800124747135
C            0.38383384643276        5.94658585513390       -0.46118805734603
C           -0.35424097776467        4.85783048461143       -0.03858412499287
C           -0.34552653459382        1.25254269343975       -0.14497510478358
C            1.00722796476482        1.10587703622826        0.19760845776031
C            1.57130036639030       -0.15131846857722        0.26969824417519
N            2.94751642065006       -0.27806832725240        0.59723403385743
C            3.89920600762072        0.11690462829821       -0.31113508675441
C            3.58704987854496        0.58501269414557       -1.59315025567723
C            4.57411257706056        0.98570280075613       -2.45624896521162
C            5.93355124151991        0.92728432201607       -2.06922848322730
C            6.27349347284868        0.44349751444812       -0.82866734780801
C            5.28777203441421        0.02519955407982        0.06075462134431
O            5.66518802376316       -0.47138506429352        1.25853088520991
C            4.71879726872942       -0.88202682369964        2.12971893142421
C            5.12383275849456       -1.39322309521116        3.36016266399615
C            4.19334158208148       -1.79479174749248        4.28793620964317
C            2.81374500995537       -1.67335771388397        4.00334290315932
C            2.39236730112749       -1.17224805452116        2.79767545016588
C            3.31591337680874       -0.78218611923613        1.82102390993583
C            0.82143370110004       -1.30091727431073        0.02910261730295
C           -0.52515317991588       -1.15359624403869       -0.31104938990966
N           -1.30398478644170       -2.30501152425690       -0.57361306241182
C           -1.04392722790730       -3.09311617346143       -1.69127756718341
C           -0.03421410870935       -2.78742166204099       -2.59697563325185
C            0.19843041142610       -3.59673908699333       -3.69708149644583
C           -0.57819945710173       -4.71812121055310       -3.91690763170483
C           -1.60549425544894       -5.02371781743761       -3.03760756807571
C           -1.84371571241621       -4.21962568516089       -1.93742981304119
O           -2.89021838765995       -4.56707762620460       -1.12484161568232
C           -3.14103987317423       -3.77371604022912       -0.03578635316115
C           -4.20182211561258       -4.13215303005061        0.77656603166495
C           -4.49676285841082       -3.38877441529009        1.90873861156399
C           -3.71408081756265       -2.29684313493492        2.23236900489962
C           -2.65121768483370       -1.93306354875589        1.42267536053688
C           -2.35979272855030       -2.64881124909610        0.26735064287766
C           -1.09975348230857        0.09861582339486       -0.40473193614967
C           -2.81156333090896        1.99029513702765        1.22859864766151
C           -4.13394840915053        2.13801399200788        1.56458506738498
H           -5.05123652845248        4.35395612646611       -0.84373432678051
H           -2.67955619257304        4.07167072128426       -1.44729182700394
H            0.88138666375602        2.52979590104109       -2.15838087952622
H            2.21400361480505        4.46402413308191       -2.87931959053739
H            1.89351844667662        6.66306379321434       -1.80115702067497
H            0.23627329040738        6.90540149139687        0.01307282486232
H           -1.07359274618551        4.96140382259238        0.76033187440142
H            1.60904068347765        1.97733737006826        0.40541148480868
H            2.55232730864898        0.62283830658201       -1.89646450528071
H            4.31678790899274        1.34445097593100       -3.43976105867898
H            6.69886292812201        1.25264773172942       -2.75437119577549
H            7.30289304130212        0.37079137859322       -0.51459592280669
H            6.18225969707688       -1.45891217231311        3.55748006131408
H            4.50997063030127       -2.19292728083344        5.23785275832739
H            2.08988141167352       -1.97369526815253        4.74349066787758
H            1.33803925093040       -1.07388906630456        2.59006737090367
H            1.27088161081612       -2.27828820069082        0.09751096439839
H            0.56999767191709       -1.90770134467730       -2.44178065911212
H            0.99125684262527       -3.33983367911280       -4.38239182474699
H           -0.39799439654610       -5.35148191888276       -4.77081547648974
H           -2.23982174700839       -5.88205909603949       -3.18975036811885
H           -4.78280024351684       -4.99891596127322        0.50548139230772
H           -5.32879218847306       -3.67145224633470        2.53349951453995
H           -3.92388934552068       -1.72023933512308        3.11971611985089
H           -2.03753393839942       -1.08791117613981        1.68914211810638
H           -2.13770204306931        0.19016287491609       -0.68648300454761
H           -2.17067860849435        1.35079818421197        1.81798212114387
H           -4.54611176091520        1.60804793342272        2.41058859311298

 projected vibrational frequencies (cm⁻¹)
eigval :       -0.00    -0.00    -0.00    -0.00     0.00     0.00
eigval :        9.42    10.76    13.70    16.28    18.33    25.03
eigval :       32.57    42.32    50.34    54.00    66.51    67.93
eigval :       73.07    85.05    95.48   104.99   112.71   128.77
eigval :      131.41   136.36   162.49   203.91   218.41   229.92
eigval :      232.13   238.03   242.31   247.70   254.90   261.65
eigval :      267.08   270.45   297.80   299.10   323.79   342.00
eigval :      363.24   376.39   380.44   381.82   384.68   396.83
eigval :      401.51   402.48   414.13   422.00   428.52   434.08
eigval :      438.35   440.94   461.66   474.65   482.36   498.33
eigval :      506.20   513.19   516.32   521.60   534.05   543.27
eigval :      564.28   566.56   569.90   578.04   588.64   591.14
eigval :      604.23   608.48   616.39   620.92   623.78   631.35
eigval :      652.34   654.02   658.67   661.28   662.65   664.33
eigval :      697.44   713.11   736.06   738.78   755.93   770.19
eigval :      775.61   776.75   797.45   800.49   804.14   811.26
eigval :      829.73   833.30   837.11   846.53   852.62   855.89
eigval :      862.97   864.05   869.81   873.82   879.57   883.24
eigval :      884.57   889.09   889.47   890.33   896.94   897.22
eigval :      898.34   906.78   912.34   914.10   915.34   917.30
eigval :      918.47   928.10   929.84   963.54   985.87  1007.73
eigval :     1017.67  1034.21  1044.87  1047.06  1082.21  1087.56
eigval :     1088.24  1108.41  1110.33  1118.73  1119.68  1121.38
eigval :     1131.75  1134.97  1159.80  1160.63  1164.70  1174.76
eigval :     1178.76  1180.07  1181.09  1184.39  1188.53  1197.11
eigval :     1202.18  1203.73  1220.16  1228.26  1234.30  1240.33
eigval :     1246.46  1255.66  1258.93  1259.80  1261.03  1278.41
eigval :     1286.42  1288.94  1313.19  1316.18  1320.49  1322.13
eigval :     1324.44  1328.94  1330.72  1340.51  1342.94  1346.94
eigval :     1368.42  1377.94  1396.07  1413.28  1419.49  1422.28
eigval :     1426.00  1428.88  1438.35  1442.13  1451.10  1454.00
eigval :     1458.85  1459.56  1469.35  1470.58  1471.50  1475.44
eigval :     1485.63  1499.18  1552.43  1563.70  1572.54  1580.78
eigval :     1583.53  1586.94  1595.06  1596.41  2319.15  3075.56
eigval :     3078.66  3079.35  3081.32  3088.29  3090.69  3092.24
eigval :     3092.32  3093.30  3093.83  3093.91  3094.79  3099.86
eigval :     3100.27  3100.68  3100.81  3100.95  3102.29  3104.85
eigval :     3105.95  3106.73  3108.47  3111.38  3113.17  3115.08
eigval :     3115.89  3116.21  3116.67

   temp. (K)  partition function   enthalpy   heat capacity  entropy
                                   cal/mol     cal/K/mol   cal/K/mol   J/K/mol
 298.15  VIB  0.617E+19            23132.800    145.060    144.558
         ROT  0.740E+08              888.752      2.981     38.988
         INT  0.456E+27            24021.552    148.041    183.546
         TR   0.154E+29             1481.254      4.968     45.197
         TOT                       25502.8064   153.0094   228.7425   957.0588

       T/K    H(0)-H(T)+PV         H(T)/Eh          T*S/Eh         G(T)/Eh
   ------------------------------------------------------------------------
    298.15    0.406413E-01    0.613674E+00    0.108683E+00    0.504991E+00
   ------------------------------------------------------------------------

         :::::::::::::::::::::::::::::::::::::::::::::::::::::
         ::                  THERMODYNAMIC                  ::
         :::::::::::::::::::::::::::::::::::::::::::::::::::::
         :: total free energy        -125.612698590145 Eh   ::
         ::.................................................::
         :: total energy             -126.117689329320 Eh   ::
         :: zero point energy           0.573032390684 Eh   ::
         :: G(RRHO) w/o ZPVE           -0.068041651509 Eh   ::
         :: G(RRHO) contrib.            0.504990739176 Eh   ::
         :::::::::::::::::::::::::::::::::::::::::::::::::::::

           -------------------------------------------------
          | TOTAL ENERGY             -126.117689329320 Eh   |
          | TOTAL ENTHALPY           -125.504015629784 Eh   |
          | TOTAL FREE ENERGY        -125.612698590145 Eh   |
          | GRADIENT NORM               0.000059474770 Eh/α |
           -------------------------------------------------

 * finished run on 2025/09/14 at 10:22:03.970
