   * xtb version 6.7.1 (edcfbbe) compiled by 'albert@albert-system' on 2024-07-22

   ID    Z sym.   atoms
    1    7 N      1, 7, 17, 33
    2    6 C      2-6, 8-16, 18-23, 25-32, 34-39, 41-49
    3    8 O      24, 40
    4    1 H      50-77

          program call               : xtb data2507/gas/CNTPA-PXZ/CNTPA-PXZ.xyz --gfn 2 --ohess vtight --parallel 40 --molden --ceasefiles --namespace data2507/gas/CNTPA-PXZ/CNTPA-PXZ_gas_S0_preOpt
          :  Hamiltonian                  GFN2-xTB          :
 * total energy  :  -126.1827996 Eh     change       -0.4950834E-08 Eh
 * total energy  :  -126.1963318 Eh     change       -0.1353218E-01 Eh
 * total energy  :  -126.2026616 Eh     change       -0.6329804E-02 Eh
 * total energy  :  -126.2050564 Eh     change       -0.2394851E-02 Eh
 * total energy  :  -126.2062914 Eh     change       -0.1235008E-02 Eh
 * total energy  :  -126.2067411 Eh     change       -0.4496576E-03 Eh
 * total energy  :  -126.2068780 Eh     change       -0.1369251E-03 Eh
 * total energy  :  -126.2069689 Eh     change       -0.9090583E-04 Eh
 * total energy  :  -126.2070433 Eh     change       -0.7434846E-04 Eh
 * total energy  :  -126.2071389 Eh     change       -0.9566545E-04 Eh
 * total energy  :  -126.2083729 Eh     change       -0.1059326E-05 Eh
 * total energy  :  -126.2083737 Eh     change       -0.8025403E-06 Eh
 * total energy  :  -126.2083743 Eh     change       -0.6162490E-06 Eh
 * total energy  :  -126.2083748 Eh     change       -0.5129383E-06 Eh
 * total energy  :  -126.2083753 Eh     change       -0.4885250E-06 Eh
 * total energy  :  -126.2083758 Eh     change       -0.4848207E-06 Eh
 * total energy  :  -126.2083763 Eh     change       -0.4985617E-06 Eh
 * total energy  :  -126.2083768 Eh     change       -0.5170129E-06 Eh
 * total energy  :  -126.2083768 Eh     change       -0.2734183E-08 Eh
   *** GEOMETRY OPTIMIZATION CONVERGED AFTER 94 ITERATIONS ***

 final structure:
================
77
 xtb: 6.7.1 (edcfbbe)
N           -6.67761890080379        4.72678521202899        1.75167115654926
C           -5.64011183491042        4.35353904025885        1.43482624149912
C           -4.36285841019182        3.89755595435275        1.04689087617446
C           -3.66111969979232        4.55203323695755        0.03156436078921
C           -2.41607044570276        4.10511603551291       -0.34855530148302
C           -1.83657588343999        2.99662121109526        0.27782101112200
N           -0.58009240874721        2.54701507874675       -0.10870471300260
C            0.38727679394995        3.45590423851577       -0.57755910111923
C            1.17114507216841        3.13157670730110       -1.68205684052100
C            2.14089731081386        4.00934136943521       -2.12637682349191
C            2.33025625355262        5.22306331539048       -1.48649591334009
C            1.54323212147451        5.55447896086573       -0.39578776079172
C            0.57943813723423        4.67692442015352        0.06355339569998
C           -0.24882550032184        1.19061966196815       -0.04662980124261
C            1.03995931319845        0.80581870782482        0.31690379236331
C            1.38646977850834       -0.53807939258708        0.34981765220844
N            2.69636121715714       -0.91072672244792        0.71492845016360
C            3.78619460517954       -0.50180841830867       -0.05725497705285
C            3.62990423620701        0.17166792475598       -1.26146208262726
C            4.73205009446008        0.56310601282146       -2.00611194946021
C            6.00762464232129        0.27565815969308       -1.56617446996569
C            6.18029371944193       -0.42586939525068       -0.38175753427836
C            5.08450208784420       -0.81860379322779        0.36363413702795
O            5.33270948976927       -1.53428027711816        1.50781839688303
C            4.25123428634184       -1.92969297374541        2.25589754193571
C            4.51661750389154       -2.63730003880340        3.41321323704314
C            3.47906398961586       -3.04633835284757        4.23814385815042
C            2.17905900149167       -2.72791584382189        3.90348794691296
C            1.90739705327975       -2.01943483063284        2.74256702141246
C            2.93238561849053       -1.62675121494484        1.89196830253757
C            0.44455095306156       -1.51335240832493        0.04092089695785
C           -0.84471582270444       -1.13068777338982       -0.31025092118969
N           -1.81013913487634       -2.10723285724818       -0.63372625730720
C           -1.68345528810931       -2.88352283388178       -1.78847722561374
C           -0.58566519744963       -2.78701687402382       -2.63305282552437
C           -0.49450826332515       -3.57340721609092       -3.77194456287186
C           -1.50187666446322       -4.46114243742206       -4.08879987636019
C           -2.61689312451243       -4.55140041512577       -3.26822446606677
C           -2.71389974726322       -3.76862623713350       -2.13325561927343
O           -3.86093503427254       -3.89285773944470       -1.38845498310323
C           -3.96883621039575       -3.12386795388368       -0.25685079359848
C           -5.11952029828046       -3.26624074640482        0.49556197058044
C           -5.28470229388974       -2.54222963225648        1.66763105222533
C           -4.28255028676174       -1.69357307474786        2.09071265997807
C           -3.12656407626261       -1.54775998150998        1.33898153751231
C           -2.96178396328785       -2.23701954134836        0.14507458260836
C           -1.18905469966183        0.21327786342924       -0.36489116532733
C           -2.53982300590626        2.35405341316051        1.30227184117277
C           -3.78822628436933        2.79271695343652        1.67943521325933
H           -4.10633932721175        5.40436894404599       -0.45983563328567
H           -1.88182839476761        4.60570700420435       -1.14214317577418
H            1.00852917954426        2.19271299392632       -2.19071482820119
H            2.74560669244829        3.74759152137254       -2.98144712099398
H            3.08658867185144        5.90829056300264       -1.83697811520063
H            1.68658196211788        6.49851792390987        0.10819484534568
H           -0.02604487304721        4.92909387844541        0.92190164286066
H            1.77461816474611        1.55355002676825        0.57491736855094
H            2.63783370626678        0.38701981628068       -1.62448237050898
H            4.58009439315946        1.09010799289911       -2.93545157084100
H            6.86920385704707        0.58053488070540       -2.13871495062843
H            7.16265456096388       -0.68330830443408       -0.01952365936703
H            5.54503197597240       -2.85358145785078        3.65431426426985
H            3.69592163542107       -3.60016991346063        5.13771501742133
H            1.36166974183775       -3.02426013218268        4.54266006693508
H            0.88716333669636       -1.76515204821572        2.50182562731965
H            0.71179460920543       -2.55824356388998        0.07280025447812
H            0.20307112477513       -2.08733709639418       -2.40482154384711
H            0.37230899273120       -3.48031166523697       -4.40797218268969
H           -1.43485655108620       -5.07730221489220       -4.97134566363528
H           -3.42970803597455       -5.22205358071068       -3.49644262515276
H           -5.87523954214283       -3.95243470916386        0.14846758238609
H           -6.18840982314854       -2.65632939831143        2.24482627810902
H           -4.38726108224540       -1.14096293089089        3.01177942117908
H           -2.33881522740356       -0.89885318395617        1.68811581433722
H           -2.18791120255637        0.49568316570674       -0.66178406355332
H           -2.08996657643551        1.51478895167589        1.80996526537884
H           -4.32449176850804        2.29220003491315        2.47173388693116

          :  Hamiltonian                  GFN2-xTB          :
         :: gradient norm              0.000042080209 Eh/a0 ::
         :: HOMO-LUMO gap              1.949482411148 eV    ::
         :: SCC energy              -128.464353119049 Eh    ::
         :: -> dispersion             -0.112441961266 Eh    ::
         :: repulsion energy           2.255976322482 Eh    ::

    * Orbital Energies and Occupations

         #    Occupation            Energy/Eh            Energy/eV
      -------------------------------------------------------------
         1        2.0000           -0.7302542             -19.8712
       ...           ...                  ...                  ...
       104        2.0000           -0.4252299             -11.5711
       105        2.0000           -0.4235996             -11.5267
       106        2.0000           -0.4222122             -11.4890
       107        2.0000           -0.4187737             -11.3954
       108        2.0000           -0.4186534             -11.3921
       109        2.0000           -0.4179340             -11.3726
       110        2.0000           -0.4158371             -11.3155
       111        2.0000           -0.4150160             -11.2932
       112        2.0000           -0.3935536             -10.7091
       113        2.0000           -0.3928270             -10.6894
       114        2.0000           -0.3734064             -10.1609
       115        2.0000           -0.3473673              -9.4523
       116        2.0000           -0.3455036              -9.4016 (HOMO)
       117                         -0.2738615              -7.4521 (LUMO)
       118                         -0.2543636              -6.9216
       119                         -0.2533938              -6.8952
       120                         -0.2460967              -6.6966
       121                         -0.2412507              -6.5648
       122                         -0.2404042              -6.5417
       123                         -0.2403125              -6.5392
       124                         -0.2327232              -6.3327
       125                         -0.2320064              -6.3132
       126                         -0.2282153              -6.2101
       127                         -0.2169633              -5.9039
       ...                                ...                  ...
       224                          1.1744008              31.9571
      -------------------------------------------------------------
                  HL-Gap            0.0716422 Eh            1.9495 eV

     #   Z          covCN         q      C6AA      α(0)
     1   7 N        0.911    -0.240    26.271     7.413
     2   6 C        1.911     0.110    28.379     8.603
     3   6 C        2.973     0.009    27.804     8.649
     4   6 C        2.925    -0.020    28.512     8.757
     5   6 C        2.921    -0.047    29.160     8.855
     6   6 C        2.922     0.071    26.408     8.427
     7   7 N        2.753    -0.068    22.563     7.055
     8   6 C        2.927     0.063    26.592     8.457
     9   6 C        2.923    -0.043    29.075     8.843
    10   6 C        2.920    -0.026    28.663     8.779
    11   6 C        2.920    -0.034    28.837     8.806
    12   6 C        2.920    -0.027    28.680     8.782
    13   6 C        2.922    -0.044    29.101     8.846
    14   6 C        2.924     0.067    26.508     8.443
    15   6 C        2.926    -0.065    29.607     8.923
    16   6 C        2.920     0.069    26.464     8.436
    17   7 N        2.752    -0.072    22.636     7.066
    18   6 C        2.923     0.042    27.055     8.530
    19   6 C        2.924    -0.060    29.494     8.906
    20   6 C        2.919    -0.039    28.965     8.826
    21   6 C        2.919    -0.040    29.001     8.831
    22   6 C        2.920    -0.056    29.395     8.891
    23   6 C        2.884     0.125    25.256     8.239
    24   8 O        1.709    -0.255    18.219     5.763
    25   6 C        2.884     0.125    25.262     8.240
    26   6 C        2.920    -0.056    29.385     8.889
    27   6 C        2.919    -0.040    28.991     8.829
    28   6 C        2.919    -0.038    28.957     8.824
    29   6 C        2.924    -0.060    29.495     8.906
    30   6 C        2.922     0.042    27.051     8.529
    31   6 C        2.923    -0.063    29.564     8.917
    32   6 C        2.920     0.069    26.460     8.435
    33   7 N        2.753    -0.073    22.656     7.069
    34   6 C        2.922     0.042    27.048     8.529
    35   6 C        2.924    -0.060    29.504     8.908
    36   6 C        2.919    -0.039    28.961     8.825
    37   6 C        2.919    -0.040    28.995     8.830
    38   6 C        2.920    -0.056    29.386     8.889
    39   6 C        2.884     0.125    25.261     8.240
    40   8 O        1.709    -0.255    18.218     5.763
    41   6 C        2.884     0.125    25.256     8.239
    42   6 C        2.920    -0.056    29.384     8.889
    43   6 C        2.919    -0.040    28.987     8.829
    44   6 C        2.919    -0.039    28.962     8.825
    45   6 C        2.924    -0.059    29.478     8.904
    46   6 C        2.923     0.042    27.056     8.530
    47   6 C        2.925    -0.065    29.610     8.924
    48   6 C        2.921    -0.046    29.152     8.854
    49   6 C        2.925    -0.020    28.505     8.756
    50   1 H        0.926     0.044     2.400     2.423
    51   1 H        0.926     0.039     2.459     2.452
    52   1 H        0.926     0.032     2.555     2.500
    53   1 H        0.926     0.038     2.472     2.459
    54   1 H        0.926     0.038     2.480     2.463
    55   1 H        0.926     0.038     2.471     2.458
    56   1 H        0.926     0.035     2.513     2.479
    57   1 H        0.926     0.046     2.373     2.409
    58   1 H        0.926     0.030     2.582     2.513
    59   1 H        0.926     0.034     2.525     2.485
    60   1 H        0.926     0.038     2.470     2.458
    61   1 H        0.926     0.051     2.306     2.375
    62   1 H        0.926     0.051     2.305     2.374
    63   1 H        0.926     0.039     2.462     2.453
    64   1 H        0.926     0.037     2.493     2.469
    65   1 H        0.926     0.033     2.551     2.498
    66   1 H        0.926     0.053     2.283     2.363
    67   1 H        0.926     0.032     2.559     2.502
    68   1 H        0.926     0.036     2.502     2.474
    69   1 H        0.926     0.039     2.466     2.456
    70   1 H        0.926     0.051     2.304     2.374
    71   1 H        0.926     0.052     2.300     2.372
    72   1 H        0.926     0.040     2.452     2.449
    73   1 H        0.926     0.035     2.518     2.481
    74   1 H        0.926     0.027     2.627     2.535
    75   1 H        0.926     0.045     2.381     2.413
    76   1 H        0.926     0.037     2.488     2.467
    77   1 H        0.926     0.044     2.394     2.420

molecular dipole:
                 x           y           z       tot (Debye)
 q only:        1.372       0.184      -0.481
   full:        1.765       0.137      -0.614       4.762

 projected vibrational frequencies (cm⁻¹)
eigval :       -0.00    -0.00    -0.00     0.00     0.00     0.00
eigval :       10.34    12.58    15.45    16.76    17.99    22.92
eigval :       31.69    40.73    44.57    55.27    55.76    69.10
eigval :       71.72    87.48   102.94   112.64   114.60   130.10
eigval :      131.87   141.32   164.93   208.03   222.63   236.70
eigval :      239.10   242.22   249.71   250.58   262.88   265.60
eigval :      268.42   271.57   291.66   298.16   314.81   343.03
eigval :      355.51   375.41   382.07   383.04   397.23   398.51
eigval :      419.64   422.04   428.40   428.78   429.71   440.59
eigval :      448.85   466.61   476.84   500.55   510.26   510.47
eigval :      518.27   520.85   522.41   532.03   538.58   540.01
eigval :      566.21   573.13   576.84   580.99   589.27   597.59
eigval :      613.41   630.71   635.26   645.91   657.59   660.40
eigval :      660.84   660.96   661.18   663.86   670.90   678.32
eigval :      709.87   720.55   759.94   776.47   777.13   777.66
eigval :      779.07   779.32   805.34   813.85   815.71   835.42
eigval :      854.82   855.21   859.37   859.45   863.47   864.53
eigval :      868.02   876.29   878.27   889.07   890.91   895.47
eigval :      895.74   897.59   899.66   901.46   911.99   912.77
eigval :      914.74   915.41   916.38   918.08   918.28   921.89
eigval :      924.81   929.35   930.94   987.45   994.38  1016.73
eigval :     1036.69  1055.75  1082.00  1089.57  1090.21  1091.25
eigval :     1091.94  1108.07  1108.45  1120.35  1120.63  1125.41
eigval :     1137.20  1160.86  1162.78  1175.14  1175.64  1178.93
eigval :     1180.26  1181.85  1185.81  1188.92  1196.53  1200.39
eigval :     1201.48  1203.85  1226.84  1229.96  1242.52  1243.92
eigval :     1244.94  1260.11  1261.10  1263.57  1274.83  1281.16
eigval :     1283.60  1309.81  1310.47  1313.88  1322.14  1325.29
eigval :     1330.94  1339.02  1342.02  1349.70  1354.27  1387.37
eigval :     1412.12  1422.20  1423.53  1434.84  1439.41  1442.83
eigval :     1446.80  1448.47  1470.85  1482.63  1489.21  1492.03
eigval :     1504.16  1507.47  1544.23  1560.47  1562.38  1568.34
eigval :     1568.50  1581.51  1581.57  1582.58  1589.10  1591.07
eigval :     1591.86  1597.24  1604.18  1604.73  2369.09  3080.40
eigval :     3080.89  3087.27  3087.74  3088.85  3088.94  3089.12
eigval :     3089.60  3090.55  3093.22  3097.77  3098.43  3098.73
eigval :     3099.02  3099.48  3099.69  3100.59  3102.24  3102.94
eigval :     3104.88  3105.44  3105.88  3106.38  3110.38  3113.83
eigval :     3113.88  3114.42  3114.68

   temp. (K)  partition function   enthalpy   heat capacity  entropy
                                   cal/mol     cal/K/mol   cal/K/mol   J/K/mol
 298.15  VIB  0.372E+19            22791.176    142.485    142.192
         ROT  0.742E+08              888.752      2.981     38.994
         INT  0.276E+27            23679.929    145.466    181.186
         TR   0.154E+29             1481.254      4.968     45.197
         TOT                       25161.1827   150.4344   226.3829   947.1860

       T/K    H(0)-H(T)+PV         H(T)/Eh          T*S/Eh         G(T)/Eh
   ------------------------------------------------------------------------
    298.15    0.400969E-01    0.618808E+00    0.107562E+00    0.511246E+00
   ------------------------------------------------------------------------

         :::::::::::::::::::::::::::::::::::::::::::::::::::::
         ::                  THERMODYNAMIC                  ::
         :::::::::::::::::::::::::::::::::::::::::::::::::::::
         :: total free energy        -125.697130631146 Eh   ::
         ::.................................................::
         :: total energy             -126.208376796567 Eh   ::
         :: zero point energy           0.578711078527 Eh   ::
         :: G(RRHO) w/o ZPVE           -0.067464913106 Eh   ::
         :: G(RRHO) contrib.            0.511246165421 Eh   ::
         :::::::::::::::::::::::::::::::::::::::::::::::::::::

           -------------------------------------------------
          | TOTAL ENERGY             -126.208376796567 Eh   |
          | TOTAL ENTHALPY           -125.589568821185 Eh   |
          | TOTAL FREE ENERGY        -125.697130631146 Eh   |
          | GRADIENT NORM               0.000042076097 Eh/α |
          | HOMO-LUMO GAP               1.949482319861 eV   |
           -------------------------------------------------

 * finished run on 2025/09/14 at 10:16:05.479
