   * xtb version 6.7.1 (edcfbbe) compiled by 'albert@albert-system' on 2024-07-22

   ID    Z sym.   atoms
    1    6 C      1-9, 11-23, 25-31, 33-46, 48-53
    2    7 N      10, 24, 32, 47
    3    1 H      54-89

          program call               : xtb data2507/toluene/12AcCz-PM/12AcCz-PM.xyz --gfn 2 --gbsa toluene --ohess vtight --parallel 40 --molden --ceasefiles --namespace data2507/toluene/12AcCz-PM/12AcCz-PM_toluene_S0_preOpt
      * Solvation model:               GBSA
        Solvent                        toluene
        Solvent mass                       9.2140E+01 g/mol
          :  Hamiltonian                  GFN2-xTB          :
 * total energy  :  -135.0656114 Eh     change       -0.1681855E-08 Eh
 * total energy  :  -135.0832693 Eh     change       -0.1765783E-01 Eh
 * total energy  :  -135.0898811 Eh     change       -0.6611857E-02 Eh
 * total energy  :  -135.0921135 Eh     change       -0.2232335E-02 Eh
 * total energy  :  -135.0932514 Eh     change       -0.1137906E-02 Eh
 * total energy  :  -135.0937280 Eh     change       -0.4766428E-03 Eh
 * total energy  :  -135.0940126 Eh     change       -0.2846315E-03 Eh
 * total energy  :  -135.0942215 Eh     change       -0.2088617E-03 Eh
 * total energy  :  -135.0943764 Eh     change       -0.1548473E-03 Eh
 * total energy  :  -135.0944857 Eh     change       -0.1093410E-03 Eh
 * total energy  :  -135.0949036 Eh     change       -0.4944132E-06 Eh
 * total energy  :  -135.0949040 Eh     change       -0.4217120E-06 Eh
 * total energy  :  -135.0949045 Eh     change       -0.4854016E-06 Eh
 * total energy  :  -135.0949050 Eh     change       -0.4915296E-06 Eh
 * total energy  :  -135.0949054 Eh     change       -0.4049220E-06 Eh
 * total energy  :  -135.0949057 Eh     change       -0.3783089E-06 Eh
 * total energy  :  -135.0949062 Eh     change       -0.4982411E-06 Eh
 * total energy  :  -135.0949068 Eh     change       -0.5429063E-06 Eh
 * total energy  :  -135.0949068 Eh     change       -0.4577629E-08 Eh
   *** GEOMETRY OPTIMIZATION CONVERGED AFTER 122 ITERATIONS ***

 final structure:
================
89
 xtb: 6.7.1 (edcfbbe)
C            6.34810950480567        2.46063802862207       -0.69737843842568
C            5.16171000120368        2.43394509739219        0.28537172830769
C            5.64084454776941        2.78402164415278        1.70775665847776
C            4.13876063464107        3.47268052071522       -0.12552408681931
C            4.52712388214064        4.80548076181936       -0.18694191151876
C            3.62450675019489        5.82628159781489       -0.41269792857209
C            2.28236087800019        5.51320550790511       -0.52535839193698
C            1.87633409752655        4.19532167954949       -0.49267637706025
C            2.79640105652851        3.15038405942274       -0.35565280800840
N            2.38320698157889        1.81550806054333       -0.42370008702797
C            1.00813167226304        1.51778844908982       -0.29010140527767
C            0.07664804832888        1.94692189717800       -1.23669170890445
C           -1.26250672520061        1.65945006642782       -1.07721225459732
C           -1.71189462850860        0.93877996286885        0.02811235682831
C           -3.14303332506212        0.64795214559584        0.16259041116908
C           -3.76023383844558        0.46543786536905        1.40008144327080
C           -5.13142815462863        0.21298448027215        1.39981042383175
C           -5.89734758629444        0.02258731562650        2.63918108972853
C           -5.31080004938918       -0.51413787789141        3.78347039064564
C           -6.05635949329749       -0.68092992508073        4.93612225079653
C           -7.39141653234338       -0.31134165186393        4.96349674021523
C           -7.98412569309253        0.21766294241770        3.82779544691182
C           -7.24444473518197        0.37925769370164        2.67189722058729
N           -5.81573397650756        0.15448026319098        0.25807948435366
C           -5.15004777536607        0.33827378093628       -0.87751376047743
C           -5.91020671991423        0.26381605364204       -2.12974507818175
C           -5.25630454762944        0.37729585644737       -3.35567416450705
C           -5.97309000455113        0.30580183234747       -4.53492061121652
C           -7.34668574880645        0.12035159479339       -4.50439739554300
C           -8.00289047719451        0.00458417196917       -3.28856775346203
C           -7.29071365236221        0.07366330896376       -2.10622884006792
N           -3.84758827348677        0.58463982251141       -0.96656707987632
C           -0.77864944097174        0.50001606732994        0.96480008088120
C            0.56173424468420        0.78726221828497        0.80801956669430
C            3.29346550619691        0.77746417365765       -0.21331562201544
C            4.57805933898623        1.03495433744838        0.27144799817156
C            5.38164143831183       -0.01798393305291        0.71037614896931
C            4.95671243747271       -1.32764528220688        0.71210799852953
C            3.73629863201213       -1.59339401487451        0.11172568250918
C            2.93806297944875       -0.57053089265393       -0.45091727305642
C            1.89464743279972       -1.25265580597078       -1.17969220865856
C            0.93811988358485       -0.87253096839762       -2.11694176563898
C            0.09166526270683       -1.82353517047439       -2.65022899858613
C            0.18411453345362       -3.16211259533482       -2.27985562044192
C            1.18217487098454       -3.58773141284571       -1.42632252890750
C            2.05729327053363       -2.63681360593875       -0.92103653442116
N            3.16632736858532       -2.82496109169361       -0.12920311283181
C            3.67992185117049       -4.05712758820746        0.30715491303349
C            3.96587353648601       -4.25011402292752        1.65569027889530
C            4.47851805267784       -5.45983995235690        2.08733236241888
C            4.70020737012049       -6.48617493686921        1.18361652362287
C            4.41350944902251       -6.29644724263109       -0.15840622358298
C            3.91042598882839       -5.08627038837075       -0.60073283850466
H            6.85041808412349        3.42363796095458       -0.67677300499623
H            5.99384045275453        2.27759619673280       -1.71051981941312
H            7.07425369225990        1.69246497906682       -0.44544607233822
H            4.81603355637508        2.68774654513268        2.41202485145354
H            6.44287994939036        2.12348897006884        2.02415070258290
H            6.00829294863709        3.80552794028380        1.75112381520094
H            5.56557996696607        5.05990772724843       -0.03914529551925
H            3.95984335726100        6.85117365386931       -0.46412213784550
H            1.54377163647258        6.29307557289775       -0.64027928875174
H            0.82164499713519        3.98561353874344       -0.55433020708007
H            0.41005422326067        2.48418570382740       -2.11320051658775
H           -1.98375456385467        1.98462781901570       -1.81088848260865
H           -3.20933741587400        0.56428180068101        2.32012404453158
H           -4.27646267557773       -0.82509336273559        3.76646454606758
H           -5.59436534924642       -1.10330073010719        5.81667162118660
H           -7.96921496851810       -0.43974404954604        5.86687910718007
H           -9.02547907865995        0.50404680514225        3.84436409221283
H           -7.69140483683473        0.79038306072978        1.77963292644581
H           -4.18632277006192        0.51643526399604       -3.36130175532457
H           -5.46091243820701        0.39302807549847       -5.48217808568606
H           -7.90523449601784        0.06553145785169       -5.42744523830189
H           -9.07303963414786       -0.14156517983631       -3.26437229155697
H           -7.78548863381235       -0.01992192331917       -1.15199582094000
H           -1.09556967372023       -0.08427096616450        1.81560723956844
H            1.27540615595945        0.44521637253208        1.54331185521673
H            6.36377088910812        0.19807771081925        1.09968889084352
H            5.56979936334577       -2.11693452766003        1.11713492478851
H            0.86630378593215        0.14701081257722       -2.45178466139871
H           -0.65671125073783       -1.52269282982267       -3.36871693288616
H           -0.51173813236425       -3.87978095818926       -2.68947341126650
H            1.28769356785395       -4.63080657977918       -1.16807783385963
H            3.77666987279783       -3.45180691975879        2.35816813962649
H            4.69879551394585       -5.60376104664114        3.13495802790265
H            5.09668295530187       -7.43094650746939        1.52418509746578
H            4.59028357210931       -7.09208123245897       -0.86725522923656
H            3.70560325183029       -4.92696505256011       -1.64901318742033

          :  Hamiltonian                  GFN2-xTB          :
         :: gradient norm              0.000050690626 Eh/a0 ::
         :: HOMO-LUMO gap              1.686573385779 eV    ::
         :: SCC energy              -137.578174268823 Eh    ::
         :: -> dispersion             -0.128053581621 Eh    ::
         :: -> Gsolv                  -0.055561298569 Eh    ::
         :: repulsion energy           2.483267483140 Eh    ::

    * Orbital Energies and Occupations

         #    Occupation            Energy/Eh            Energy/eV
      -------------------------------------------------------------
         1        2.0000           -0.6750669             -18.3695
       ...           ...                  ...                  ...
       114        2.0000           -0.4081262             -11.1057
       115        2.0000           -0.4076238             -11.0920
       116        2.0000           -0.4069685             -11.0742
       117        2.0000           -0.4056500             -11.0383
       118        2.0000           -0.4034623             -10.9788
       119        2.0000           -0.4002674             -10.8918
       120        2.0000           -0.3997782             -10.8785
       121        2.0000           -0.3955441             -10.7633
       122        2.0000           -0.3933075             -10.7024
       123        2.0000           -0.3770562             -10.2602
       124        2.0000           -0.3635418              -9.8925
       125        2.0000           -0.3628674              -9.8741
       126        2.0000           -0.3429224              -9.3314 (HOMO)
       127                         -0.2809420              -7.6448 (LUMO)
       128                         -0.2734572              -7.4412
       129                         -0.2466095              -6.7106
       130                         -0.2407806              -6.5520
       131                         -0.2333545              -6.3499
       132                         -0.2320916              -6.3155
       133                         -0.2308112              -6.2807
       134                         -0.2294996              -6.2450
       135                         -0.2247388              -6.1155
       136                         -0.2218177              -6.0360
       137                         -0.2184048              -5.9431
       ...                                ...                  ...
       248                          0.7323756              19.9290
      -------------------------------------------------------------
                  HL-Gap            0.0619804 Eh            1.6866 eV

     #   Z          covCN         q      C6AA      α(0)
     1   6 C        3.761    -0.104    22.530     6.766
     2   6 C        3.910     0.022    20.144     6.379
     3   6 C        3.761    -0.104    22.525     6.766
     4   6 C        2.982    -0.012    28.311     8.728
     5   6 C        2.929    -0.038    28.948     8.824
     6   6 C        2.916    -0.045    29.115     8.848
     7   6 C        2.920    -0.035    28.879     8.813
     8   6 C        2.924    -0.061    29.528     8.911
     9   6 C        2.923     0.058    26.700     8.474
    10   7 N        2.748    -0.069    22.583     7.058
    11   6 C        2.927     0.075    26.335     8.416
    12   6 C        2.920    -0.038    28.933     8.821
    13   6 C        2.925    -0.025    28.636     8.776
    14   6 C        2.980    -0.003    28.098     8.695
    15   6 C        2.966     0.114    25.494     8.282
    16   6 C        2.912    -0.072    29.795     8.951
    17   6 C        2.967     0.113    25.511     8.285
    18   6 C        2.980    -0.000    28.024     8.684
    19   6 C        2.923    -0.032    28.798     8.800
    20   6 C        2.918    -0.029    28.717     8.788
    21   6 C        2.920    -0.026    28.658     8.779
    22   6 C        2.918    -0.028    28.691     8.784
    23   6 C        2.925    -0.024    28.613     8.772
    24   7 N        1.849    -0.294    28.478     7.909
    25   6 C        2.943     0.190    23.945     8.026
    26   6 C        2.984    -0.004    28.119     8.698
    27   6 C        2.924    -0.029    28.718     8.788
    28   6 C        2.918    -0.029    28.723     8.789
    29   6 C        2.920    -0.026    28.652     8.778
    30   6 C        2.918    -0.029    28.723     8.789
    31   6 C        2.923    -0.029    28.717     8.788
    32   7 N        1.849    -0.293    28.452     7.906
    33   6 C        2.922    -0.032    28.793     8.800
    34   6 C        2.922    -0.040    28.983     8.829
    35   6 C        2.922     0.054    26.786     8.487
    36   6 C        2.979    -0.025    28.626     8.776
    37   6 C        2.933    -0.042    29.049     8.839
    38   6 C        2.907    -0.066    29.634     8.926
    39   6 C        3.095     0.045    26.885     8.498
    40   6 C        3.052    -0.042    28.982     8.829
    41   6 C        3.068    -0.018    28.394     8.737
    42   6 C        2.916    -0.043    29.061     8.840
    43   6 C        2.919    -0.045    29.106     8.847
    44   6 C        2.923    -0.037    28.927     8.820
    45   6 C        2.911    -0.055    29.358     8.885
    46   6 C        3.080     0.046    26.881     8.500
    47   7 N        2.800    -0.049    22.184     6.995
    48   6 C        2.913     0.065    26.545     8.449
    49   6 C        2.922    -0.042    29.038     8.837
    50   6 C        2.919    -0.028    28.710     8.787
    51   6 C        2.919    -0.033    28.821     8.804
    52   6 C        2.920    -0.028    28.703     8.786
    53   6 C        2.922    -0.042    29.038     8.837
    54   1 H        0.925     0.042     2.426     2.436
    55   1 H        0.925     0.030     2.582     2.513
    56   1 H        0.925     0.041     2.435     2.440
    57   1 H        0.925     0.029     2.597     2.520
    58   1 H        0.925     0.042     2.418     2.432
    59   1 H        0.925     0.041     2.439     2.442
    60   1 H        0.926     0.034     2.533     2.489
    61   1 H        0.926     0.027     2.634     2.538
    62   1 H        0.926     0.028     2.621     2.532
    63   1 H        0.926     0.033     2.544     2.494
    64   1 H        0.926     0.050     2.315     2.380
    65   1 H        0.926     0.053     2.280     2.361
    66   1 H        0.926     0.036     2.499     2.472
    67   1 H        0.926     0.034     2.534     2.489
    68   1 H        0.926     0.040     2.452     2.449
    69   1 H        0.926     0.042     2.428     2.437
    70   1 H        0.926     0.041     2.431     2.438
    71   1 H        0.926     0.046     2.365     2.405
    72   1 H        0.926     0.050     2.320     2.382
    73   1 H        0.926     0.041     2.440     2.443
    74   1 H        0.926     0.042     2.425     2.435
    75   1 H        0.926     0.041     2.439     2.442
    76   1 H        0.926     0.050     2.322     2.383
    77   1 H        0.926     0.038     2.472     2.459
    78   1 H        0.926     0.040     2.450     2.447
    79   1 H        0.926     0.035     2.511     2.478
    80   1 H        0.926     0.028     2.613     2.528
    81   1 H        0.926     0.031     2.569     2.506
    82   1 H        0.926     0.024     2.671     2.556
    83   1 H        0.926     0.026     2.651     2.546
    84   1 H        0.926     0.028     2.622     2.532
    85   1 H        0.926     0.041     2.435     2.440
    86   1 H        0.926     0.040     2.447     2.446
    87   1 H        0.926     0.039     2.459     2.452
    88   1 H        0.926     0.040     2.451     2.448
    89   1 H        0.926     0.041     2.439     2.442

molecular dipole:
                 x           y           z       tot (Debye)
 q only:        0.547      -0.429       0.615
   full:        0.738      -0.515       0.992       3.404

 projected vibrational frequencies (cm⁻¹)
eigval :       -0.00    -0.00     0.00     0.00     0.00     0.00
eigval :        6.24    10.48    15.93    24.83    33.30    38.59
eigval :       42.20    43.54    45.33    52.83    55.66    64.66
eigval :       66.72    83.72    93.51   101.00   104.52   115.30
eigval :      120.97   130.83   137.74   154.24   163.94   188.61
eigval :      190.74   200.59   211.15   212.36   222.77   229.32
eigval :      230.69   242.35   261.17   262.68   274.53   288.09
eigval :      299.56   314.14   336.28   341.87   363.88   366.58
eigval :      367.57   369.61   370.21   376.93   382.38   388.86
eigval :      401.76   411.70   416.27   427.35   436.72   444.13
eigval :      459.58   470.68   479.54   484.95   506.76   519.88
eigval :      525.10   533.03   549.81   557.05   572.96   580.23
eigval :      585.13   587.06   588.49   591.05   603.24   605.18
eigval :      611.50   619.21   619.50   629.55   631.35   649.41
eigval :      661.08   665.08   673.20   673.55   681.57   687.66
eigval :      692.89   702.88   707.53   736.02   752.45   764.57
eigval :      767.10   772.96   774.63   778.11   779.47   817.89
eigval :      819.83   832.68   837.88   843.83   849.38   863.06
eigval :      863.88   878.44   878.96   880.63   884.01   895.15
eigval :      898.02   902.98   907.09   907.78   910.53   911.80
eigval :      913.78   916.46   919.19   920.50   923.73   931.42
eigval :      931.53   932.13   932.61   933.25   933.57   950.42
eigval :      956.95   963.48   970.26   988.42   989.87  1011.40
eigval :     1013.54  1025.83  1042.32  1071.46  1075.73  1078.46
eigval :     1078.67  1081.29  1087.96  1093.00  1103.50  1112.10
eigval :     1115.26  1116.21  1122.94  1131.71  1137.68  1141.92
eigval :     1156.51  1169.03  1171.10  1178.10  1178.81  1179.78
eigval :     1179.93  1185.24  1186.24  1188.58  1194.74  1197.99
eigval :     1202.95  1204.68  1221.07  1236.93  1245.79  1246.74
eigval :     1248.08  1261.99  1269.82  1270.50  1274.40  1277.61
eigval :     1292.81  1297.48  1304.25  1315.43  1320.46  1320.63
eigval :     1326.08  1327.12  1329.30  1349.10  1360.40  1362.41
eigval :     1364.91  1371.25  1394.94  1400.24  1405.47  1412.08
eigval :     1419.19  1426.56  1429.03  1434.18  1434.37  1436.55
eigval :     1464.84  1468.09  1475.63  1478.89  1481.35  1483.86
eigval :     1486.93  1487.35  1488.18  1498.68  1501.45  1510.40
eigval :     1528.20  1559.55  1560.78  1575.50  1579.63  1581.06
eigval :     1581.89  1583.77  1587.67  1589.74  1593.19  1594.32
eigval :     1595.08  1596.86  1603.22  3020.58  3023.19  3038.19
eigval :     3040.62  3047.14  3051.92  3071.15  3071.40  3071.71
eigval :     3072.83  3075.64  3076.45  3076.65  3076.95  3077.41
eigval :     3078.83  3079.58  3080.66  3082.52  3086.45  3087.09
eigval :     3089.29  3089.94  3090.29  3090.35  3091.34  3092.62
eigval :     3096.63  3099.25  3101.84  3102.90  3103.41  3105.01
eigval :     3108.68  3120.51  3139.73

   temp. (K)  partition function   enthalpy   heat capacity  entropy
                                   cal/mol     cal/K/mol   cal/K/mol   J/K/mol
 298.15  VIB  0.475E+20            25193.390    159.358    157.208
         ROT  0.121E+09              888.752      2.981     39.969
         INT  0.575E+28            26082.142    162.339    197.177
         TR   0.172E+29             1481.254      4.968     45.415
         TOT                       27563.3964   167.3075   242.5918  1015.0042

       T/K    H(0)-H(T)+PV         H(T)/Eh          T*S/Eh         G(T)/Eh
   ------------------------------------------------------------------------
    298.15    0.439251E-01    0.738780E+00    0.115263E+00    0.623517E+00
   ------------------------------------------------------------------------

         :::::::::::::::::::::::::::::::::::::::::::::::::::::
         ::                  THERMODYNAMIC                  ::
         :::::::::::::::::::::::::::::::::::::::::::::::::::::
         :: total free energy        -134.471390142161 Eh   ::
         ::.................................................::
         :: total energy             -135.094906793770 Eh   ::
         :: zero point energy           0.694854792732 Eh   ::
         :: G(RRHO) w/o ZPVE           -0.071338141122 Eh   ::
         :: G(RRHO) contrib.            0.623516651609 Eh   ::
         :::::::::::::::::::::::::::::::::::::::::::::::::::::

           -------------------------------------------------
          | TOTAL ENERGY             -135.094906793770 Eh   |
          | TOTAL ENTHALPY           -134.356126932956 Eh   |
          | TOTAL FREE ENERGY        -134.471390142161 Eh   |
          | GRADIENT NORM               0.000050691591 Eh/α |
          | HOMO-LUMO GAP               1.686573070376 eV   |
           -------------------------------------------------

 * finished run on 2025/09/12 at 17:48:44.513
