   * xtb version 6.7.1 (edcfbbe) compiled by 'albert@albert-system' on 2024-07-22

   ID    Z sym.   atoms
    1    6 C      1-9, 11-23, 25-31, 33-46, 48-53
    2    7 N      10, 24, 32, 47
    3    1 H      54-89

          program call               : xtb data2507/toluene/12AcCz-PM/12AcCz-PM_toluene_S0_finalOpt.xtbopt.xyz --gfn 2 --uhf 2 --gbsa toluene --ohess vtight --parallel 40 --molden --ceasefiles --namespace data2507/toluene/12AcCz-PM/12AcCz-PM_toluene_T1_preOpt
      * Solvation model:               GBSA
        Solvent                        toluene
        Solvent mass                       9.2140E+01 g/mol
          :  Hamiltonian                  GFN2-xTB          :
 * total energy  :  -135.0179401 Eh     change       -0.2510177E-08 Eh
 * total energy  :  -135.0207616 Eh     change       -0.2821408E-02 Eh
 * total energy  :  -135.0218065 Eh     change       -0.1044946E-02 Eh
 * total energy  :  -135.0219079 Eh     change       -0.1013650E-03 Eh
 * total energy  :  -135.0220584 Eh     change       -0.1505648E-03 Eh
 * total energy  :  -135.0221309 Eh     change       -0.7246668E-04 Eh
 * total energy  :  -135.0222375 Eh     change       -0.1065572E-03 Eh
 * total energy  :  -135.0223477 Eh     change       -0.1102695E-03 Eh
 * total energy  :  -135.0224284 Eh     change       -0.8070654E-04 Eh
 * total energy  :  -135.0224942 Eh     change       -0.6580570E-04 Eh
 * total energy  :  -135.0230633 Eh     change       -0.1498025E-05 Eh
 * total energy  :  -135.0230649 Eh     change       -0.1602299E-05 Eh
 * total energy  :  -135.0230667 Eh     change       -0.1789722E-05 Eh
 * total energy  :  -135.0230685 Eh     change       -0.1886398E-05 Eh
 * total energy  :  -135.0230703 Eh     change       -0.1766685E-05 Eh
 * total energy  :  -135.0230719 Eh     change       -0.1589622E-05 Eh
 * total energy  :  -135.0230733 Eh     change       -0.1381905E-05 Eh
 * total energy  :  -135.0230745 Eh     change       -0.1219187E-05 Eh
 * total energy  :  -135.0230745 Eh     change       -0.7060862E-08 Eh
   *** GEOMETRY OPTIMIZATION CONVERGED AFTER 68 ITERATIONS ***

 final structure:
================
89
 xtb: 6.7.1 (edcfbbe)
C            4.59122848472059        4.18595136923555        2.30838009335289
C            3.45530968150593        3.41288435916665        1.63649711833348
C            2.28042436879824        3.33279691376040        2.63526592532637
C            2.97519224608064        4.08696668429169        0.36410539760262
C            3.28850021605558        5.38364186613314       -0.01018764293966
C            2.80869905379167        5.91905085340472       -1.19534341572535
C            2.02410648488901        5.15284773323629       -2.04040198246532
C            1.70157099503714        3.85571810898420       -1.68990664676348
C            2.15012427582972        3.33371693848787       -0.48053735939985
N            1.88093410992016        2.00135792321378       -0.12001370869869
C            0.60112306028989        1.48209472809919       -0.04136798834473
C           -0.52706855330962        2.25618271486639       -0.37813569635766
C           -1.78880016290574        1.73293695608112       -0.30017353141881
C           -2.02279658006972        0.40640348978091        0.12873200243233
C           -3.35767333074488       -0.10873155264033        0.15100091333130
C           -3.67175745464887       -1.46186500418660        0.32654043112091
C           -5.00493102608624       -1.85062080074211        0.31733703999477
C           -5.45227489711330       -3.21457153133919        0.49488424052282
C           -4.58457382696703       -4.31653341112011        0.44527110589724
C           -5.06074963978065       -5.59807500432803        0.62343752886270
C           -6.40994526314645       -5.82701628903257        0.85587468759320
C           -7.28342534732599       -4.74852929123406        0.90129533490263
C           -6.81623112954327       -3.46576492155670        0.72182681359704
N           -5.97087105530755       -0.89520995364119        0.15681553732043
C           -5.62721617875355        0.36499824940047       -0.03691459700546
C           -6.69466770265351        1.35302343463254       -0.23026001074748
C           -8.02252888450360        0.94422792334371       -0.32695799700142
C           -9.02783194147587        1.87661345827607       -0.50058433890668
C           -8.71902469329141        3.22575971282575       -0.57874491246485
C           -7.39923115522458        3.63988304636090       -0.48563743681436
C           -6.39182583913180        2.71012386434648       -0.31191924299989
N           -4.38155713585340        0.78047959555185       -0.05020857783519
C           -0.89391424303969       -0.33014434565599        0.54951162624958
C            0.36925425356011        0.19365680586251        0.47941739924426
C            3.01896646170279        1.32878975613473        0.34057463954428
C            3.86265523582649        2.00438363693861        1.23542792506429
C            4.99662313701011        1.36526688908486        1.72426551850363
C            5.33543550317706        0.07691066715844        1.34844795552808
C            4.52842347213650       -0.56904830685305        0.42438535180311
C            3.38472320425152        0.05799725574176       -0.12274094042848
C            2.88527445886868       -0.82684725354989       -1.13920080327587
C            1.84332733366760       -0.76014006823571       -2.06016817017566
C            1.63850976523213       -1.82684074441886       -2.91129239328218
C            2.44848019676588       -2.96057298653810       -2.85734935726223
C            3.50422028107083       -3.04352192418358       -1.97153215711698
C            3.73269448165784       -1.96279023576799       -1.12992245144971
N            4.71082136258608       -1.79607147904479       -0.17495298880759
C            5.74127008419085       -2.70415827747044        0.12433282817837
C            5.95979544720086       -3.09655773873452        1.44164984291975
C            6.97778205478321       -3.98528791603454        1.73622177097268
C            7.77511444239829       -4.49425768123499        0.72397898608864
C            7.55511757066182       -4.10715808167462       -0.58801815776900
C            6.54649279181848       -3.21047926660048       -0.89126498694840
H            4.88943060861067        3.69162077790702        3.22897202423224
H            4.25390931298363        5.18390198032201        2.57553488427628
H            5.45313026749637        4.26519132843096        1.64979907840990
H            1.43270450739958        2.79275978151537        2.22208414249620
H            2.60171628241626        2.82201267001367        3.54045839239864
H            1.95086159086984        4.33566596903989        2.89838406471165
H            3.91303643706424        5.99587360715202        0.61910769701935
H            3.06256962486994        6.93319592228295       -1.46469992985162
H            1.67301033005740        5.55765374463828       -2.97763105579442
H            1.12590254636393        3.23529602257362       -2.36005088677812
H           -0.40594776096256        3.28583825159324       -0.67522124686784
H           -2.64373169542676        2.33534862270119       -0.56519903594553
H           -2.88805226691216       -2.18833037260726        0.46172307934276
H           -3.53230801038858       -4.17208436391544        0.24985958802667
H           -4.37428992926686       -6.43239146841074        0.57754637004021
H           -6.77589120673043       -6.83347924291594        0.99559454040185
H           -8.33694980221788       -4.91555741501855        1.07819859018818
H           -7.49013434207709       -2.62316162300068        0.75988741208839
H           -8.24548911116114       -0.11039093888643       -0.26626518915982
H          -10.05580394500981        1.55224777881322       -0.57435905659686
H           -9.50622838071228        3.95340220528823       -0.71242730590859
H           -7.15724397711540        4.69114291092025       -0.54623900190439
H           -5.35960888207315        3.01583251767993       -0.23246609803842
H           -1.01930634378283       -1.31819153303344        0.96492238774570
H            1.19600087852757       -0.39097824955578        0.84848920927759
H            5.64010953836098        1.87481830547568        2.42099857330093
H            6.22229985762069       -0.39467337235438        1.74097554160817
H            1.20138932243676        0.10419462668417       -2.11263388758309
H            0.83069080424856       -1.78834378099475       -3.62730998307060
H            2.24890646502444       -3.78583744698901       -3.52489106081548
H            4.12867960647573       -3.92288708441689       -1.93152099994497
H            5.32332600833186       -2.71239116845593        2.22500782665655
H            7.14342724134255       -4.28726792010937        2.75978358579326
H            8.56646227448069       -5.19063802887656        0.95725216067283
H            8.17705181286908       -4.49828033157826       -1.37956658635291
H            6.38547506692730       -2.88923317385847       -1.90956293250608

          :  Hamiltonian                  GFN2-xTB          :
         :: gradient norm              0.000063809875 Eh/a0 ::
         :: HOMO-LUMO gap              0.302724027066 eV    ::
         :: SCC energy              -137.498964204495 Eh    ::
         :: -> dispersion             -0.126787161767 Eh    ::
         :: -> Gsolv                  -0.060047103527 Eh    ::
         :: repulsion energy           2.475889693147 Eh    ::

    * Orbital Energies and Occupations

         #    Occupation            Energy/Eh            Energy/eV
      -------------------------------------------------------------
         1        2.0000           -0.6856899             -18.6586
       ...           ...                  ...                  ...
       115        2.0000           -0.4077439             -11.0953
       116        2.0000           -0.4056401             -11.0380
       117        2.0000           -0.4050620             -11.0223
       118        2.0000           -0.4032780             -10.9738
       119        2.0000           -0.3970048             -10.8031
       120        2.0000           -0.3955255             -10.7628
       121        2.0000           -0.3904113             -10.6236
       122        2.0000           -0.3867579             -10.5242
       123        2.0000           -0.3840840             -10.4515
       124        2.0000           -0.3703085             -10.0766
       125        1.6568           -0.3581612              -9.7461
       126        1.3432           -0.3569283              -9.7125
       127        0.9971           -0.2729814              -7.4282 (HOMO)
       128        0.0029           -0.2618565              -7.1255 (LUMO)
       129        0.0000           -0.2536553              -6.9023
       130                         -0.2393431              -6.5129
       131                         -0.2358919              -6.4189
       132                         -0.2346321              -6.3847
       133                         -0.2324209              -6.3245
       134                         -0.2287204              -6.2238
       135                         -0.2243345              -6.1045
       136                         -0.2230088              -6.0684
       137                         -0.2189945              -5.9591
       138                         -0.2129297              -5.7941
       ...                                ...                  ...
       248                          0.7306735              19.8826
      -------------------------------------------------------------
                  HL-Gap            0.0111250 Eh            0.3027 eV

     #   Z          covCN         q      C6AA      α(0)
     1   6 C        3.759    -0.111    22.669     6.788
     2   6 C        3.911     0.024    20.111     6.374
     3   6 C        3.761    -0.100    22.458     6.755
     4   6 C        2.986    -0.003    28.085     8.693
     5   6 C        2.922    -0.036    28.908     8.817
     6   6 C        2.919    -0.034    28.846     8.807
     7   6 C        2.919    -0.032    28.798     8.800
     8   6 C        2.919    -0.042    29.045     8.838
     9   6 C        2.955     0.054    26.790     8.490
    10   7 N        2.753    -0.028    21.791     6.933
    11   6 C        2.911     0.054    26.790     8.487
    12   6 C        2.916    -0.051    29.270     8.872
    13   6 C        2.922    -0.037    28.912     8.818
    14   6 C        2.972    -0.006    28.160     8.704
    15   6 C        2.937     0.072    26.399     8.427
    16   6 C        2.911    -0.058    29.442     8.897
    17   6 C        2.936     0.078    26.251     8.403
    18   6 C        2.974    -0.007    28.182     8.708
    19   6 C        2.921    -0.044    29.086     8.844
    20   6 C        2.917    -0.034    28.853     8.808
    21   6 C        2.919    -0.042    29.038     8.837
    22   6 C        2.916    -0.034    28.844     8.807
    23   6 C        2.926    -0.036    28.893     8.815
    24   7 N        1.850    -0.287    28.280     7.882
    25   6 C        2.891     0.194    23.881     8.012
    26   6 C        2.984    -0.003    28.092     8.694
    27   6 C        2.924    -0.028    28.712     8.787
    28   6 C        2.918    -0.030    28.740     8.791
    29   6 C        2.920    -0.028    28.700     8.785
    30   6 C        2.918    -0.030    28.744     8.792
    31   6 C        2.924    -0.029    28.723     8.789
    32   7 N        1.850    -0.282    28.160     7.865
    33   6 C        2.918    -0.043    29.067     8.841
    34   6 C        2.917    -0.046    29.151     8.854
    35   6 C        2.945     0.049    26.893     8.505
    36   6 C        2.984    -0.012    28.310     8.728
    37   6 C        2.924    -0.041    29.030     8.836
    38   6 C        2.908    -0.054    29.331     8.881
    39   6 C        3.080     0.045    26.895     8.502
    40   6 C        3.060    -0.032    28.737     8.791
    41   6 C        3.065    -0.014    28.296     8.723
    42   6 C        2.912    -0.034    28.845     8.807
    43   6 C        2.919    -0.039    28.977     8.827
    44   6 C        2.923    -0.033    28.826     8.805
    45   6 C        2.909    -0.050    29.242     8.867
    46   6 C        3.080     0.048    26.847     8.495
    47   7 N        2.802    -0.036    21.926     6.955
    48   6 C        2.913     0.063    26.598     8.457
    49   6 C        2.922    -0.041    29.022     8.834
    50   6 C        2.920    -0.027    28.674     8.781
    51   6 C        2.919    -0.031    28.771     8.796
    52   6 C        2.920    -0.027    28.671     8.781
    53   6 C        2.922    -0.041    29.014     8.833
    54   1 H        0.925     0.048     2.350     2.397
    55   1 H        0.925     0.048     2.347     2.396
    56   1 H        0.925     0.044     2.402     2.424
    57   1 H        0.925     0.034     2.534     2.489
    58   1 H        0.925     0.044     2.392     2.419
    59   1 H        0.925     0.044     2.395     2.420
    60   1 H        0.926     0.051     2.302     2.372
    61   1 H        0.926     0.041     2.437     2.441
    62   1 H        0.926     0.041     2.442     2.444
    63   1 H        0.926     0.042     2.418     2.432
    64   1 H        0.926     0.041     2.439     2.442
    65   1 H        0.926     0.040     2.452     2.449
    66   1 H        0.926     0.024     2.676     2.558
    67   1 H        0.926     0.019     2.747     2.592
    68   1 H        0.925     0.024     2.673     2.557
    69   1 H        0.926     0.024     2.672     2.556
    70   1 H        0.925     0.025     2.656     2.549
    71   1 H        0.926     0.033     2.548     2.496
    72   1 H        0.926     0.043     2.408     2.427
    73   1 H        0.926     0.039     2.465     2.455
    74   1 H        0.926     0.041     2.440     2.443
    75   1 H        0.926     0.040     2.449     2.447
    76   1 H        0.926     0.045     2.386     2.415
    77   1 H        0.926     0.024     2.672     2.556
    78   1 H        0.926     0.037     2.493     2.469
    79   1 H        0.926     0.054     2.272     2.357
    80   1 H        0.926     0.043     2.413     2.429
    81   1 H        0.926     0.030     2.583     2.513
    82   1 H        0.926     0.028     2.613     2.528
    83   1 H        0.926     0.033     2.548     2.496
    84   1 H        0.926     0.035     2.515     2.480
    85   1 H        0.926     0.044     2.396     2.420
    86   1 H        0.926     0.043     2.412     2.428
    87   1 H        0.926     0.041     2.429     2.437
    88   1 H        0.926     0.042     2.417     2.431
    89   1 H        0.926     0.044     2.398     2.422

molecular dipole:
                 x           y           z       tot (Debye)
 q only:        4.920       1.670       0.313
   full:        5.054       1.282       0.288      13.272

 projected vibrational frequencies (cm⁻¹)
eigval :       -0.00    -0.00     0.00     0.00     0.00     0.00
eigval :        5.53    12.45    16.31    28.56    35.20    37.03
eigval :       43.65    49.30    50.68    55.76    58.41    61.43
eigval :       64.27    80.83    87.40    97.91   108.33   115.56
eigval :      129.30   135.91   151.23   160.40   173.78   176.19
eigval :      188.07   199.65   202.39   210.16   217.45   232.90
eigval :      245.96   254.37   264.35   278.95   283.17   291.26
eigval :      305.51   320.06   330.50   343.74   359.07   365.07
eigval :      367.82   371.46   379.30   380.13   382.63   383.40
eigval :      391.12   403.43   411.72   416.33   424.58   439.77
eigval :      454.36   460.35   466.50   480.40   487.71   509.24
eigval :      521.66   527.07   533.49   541.29   546.05   570.25
eigval :      577.69   582.26   584.09   587.07   588.66   589.96
eigval :      591.16   600.29   609.77   618.12   630.71   641.75
eigval :      643.46   649.37   657.84   662.10   669.51   670.15
eigval :      679.58   686.49   704.85   715.22   742.23   748.81
eigval :      764.40   766.30   769.31   775.66   782.26   792.40
eigval :      805.51   817.95   819.83   825.66   834.49   843.43
eigval :      852.15   870.69   872.36   874.31   879.19   881.04
eigval :      888.09   895.64   896.30   903.91   904.43   905.49
eigval :      907.88   911.16   916.21   916.89   917.50   918.57
eigval :      925.33   926.56   926.84   930.66   933.56   934.62
eigval :      936.66   946.54   967.44   976.35   982.69   988.36
eigval :      994.96  1008.28  1039.65  1052.16  1067.83  1071.20
eigval :     1074.62  1075.07  1078.38  1079.13  1086.65  1090.98
eigval :     1102.06  1109.72  1117.59  1125.54  1129.78  1142.29
eigval :     1147.14  1154.08  1165.15  1172.52  1176.43  1177.31
eigval :     1180.06  1180.73  1182.71  1185.87  1189.95  1197.72
eigval :     1201.08  1204.12  1215.77  1230.33  1241.04  1253.76
eigval :     1259.64  1263.23  1263.98  1267.81  1274.09  1275.12
eigval :     1285.64  1289.42  1297.73  1305.40  1315.07  1320.19
eigval :     1321.27  1326.55  1329.58  1332.02  1347.81  1352.93
eigval :     1357.48  1370.44  1382.44  1388.46  1394.42  1407.71
eigval :     1413.32  1415.92  1416.16  1426.76  1430.87  1433.91
eigval :     1436.26  1438.92  1440.41  1455.25  1461.10  1468.56
eigval :     1470.03  1477.50  1477.86  1481.43  1487.46  1489.28
eigval :     1501.47  1519.31  1543.34  1543.70  1561.03  1563.94
eigval :     1568.65  1576.09  1581.21  1581.82  1583.64  1585.72
eigval :     1589.76  1593.45  1595.34  3028.90  3030.78  3034.78
eigval :     3035.78  3049.98  3050.67  3059.37  3061.39  3070.25
eigval :     3074.32  3075.89  3076.06  3078.50  3080.35  3080.67
eigval :     3082.63  3083.79  3084.38  3085.73  3087.54  3088.20
eigval :     3091.39  3091.88  3093.15  3094.14  3094.22  3096.04
eigval :     3096.57  3098.29  3099.65  3104.99  3105.84  3108.28
eigval :     3113.40  3115.03  3126.02

   temp. (K)  partition function   enthalpy   heat capacity  entropy
                                   cal/mol     cal/K/mol   cal/K/mol   J/K/mol
 298.15  VIB  0.307E+20            25355.856    161.489    157.724
         ROT  0.129E+09              888.752      2.981     40.097
         INT  0.397E+28            26244.608    164.470    197.820
         TR   0.172E+29             1481.254      4.968     45.415
         TOT                       27725.8622   169.4379   243.2354  1017.6970

       T/K    H(0)-H(T)+PV         H(T)/Eh          T*S/Eh         G(T)/Eh
   ------------------------------------------------------------------------
    298.15    0.441840E-01    0.735294E+00    0.115569E+00    0.619725E+00
   ------------------------------------------------------------------------

         :::::::::::::::::::::::::::::::::::::::::::::::::::::
         ::                  THERMODYNAMIC                  ::
         :::::::::::::::::::::::::::::::::::::::::::::::::::::
         :: total free energy        -134.403349459756 Eh   ::
         ::.................................................::
         :: total energy             -135.023074515231 Eh   ::
         :: zero point energy           0.691110084104 Eh   ::
         :: G(RRHO) w/o ZPVE           -0.071385028629 Eh   ::
         :: G(RRHO) contrib.            0.619725055475 Eh   ::
         :::::::::::::::::::::::::::::::::::::::::::::::::::::

           -------------------------------------------------
          | TOTAL ENERGY             -135.023074515231 Eh   |
          | TOTAL ENTHALPY           -134.287780457306 Eh   |
          | TOTAL FREE ENERGY        -134.403349459756 Eh   |
          | GRADIENT NORM               0.000064439389 Eh/α |
          | HOMO-LUMO GAP               0.302725354782 eV   |
           -------------------------------------------------

 * finished run on 2025/09/12 at 17:53:34.511
