   * xtb version 6.7.1 (edcfbbe) compiled by 'albert@albert-system' on 2024-07-22

   ID    Z sym.   atoms
    1    6 C      1-9, 11-23, 25-31, 33-46, 48-53
    2    7 N      10, 24, 32, 47
    3    1 H      54-89

          program call               : xtb data2507/toluene/12AcCz-PM/12AcCz-PM_toluene_S0_crest.xyz --gfn 2 --gbsa toluene --ohess vtight --parallel 40 --molden --ceasefiles --namespace data2507/toluene/12AcCz-PM/12AcCz-PM_toluene_S0_finalOpt
      * Solvation model:               GBSA
        Solvent                        toluene
        Solvent mass                       9.2140E+01 g/mol
          :  Hamiltonian                  GFN2-xTB          :
 * total energy  :  -135.1045284 Eh     change       -0.6389200E-08 Eh
 * total energy  :  -135.1045892 Eh     change       -0.6078517E-04 Eh
 * total energy  :  -135.1046134 Eh     change       -0.2422464E-04 Eh
 * total energy  :  -135.1046197 Eh     change       -0.6279850E-05 Eh
 * total energy  :  -135.1046269 Eh     change       -0.7226150E-05 Eh
 * total energy  :  -135.1046351 Eh     change       -0.8157706E-05 Eh
 * total energy  :  -135.1046430 Eh     change       -0.7923083E-05 Eh
 * total energy  :  -135.1046491 Eh     change       -0.6146568E-05 Eh
 * total energy  :  -135.1046537 Eh     change       -0.4569176E-05 Eh
 * total energy  :  -135.1046569 Eh     change       -0.3223372E-05 Eh
 * total energy  :  -135.1046625 Eh     change       -0.1001424E-05 Eh
 * total energy  :  -135.1046633 Eh     change       -0.7965747E-06 Eh
 * total energy  :  -135.1046640 Eh     change       -0.6450737E-06 Eh
 * total energy  :  -135.1046645 Eh     change       -0.5052330E-06 Eh
 * total energy  :  -135.1046648 Eh     change       -0.3310904E-06 Eh
 * total energy  :  -135.1046650 Eh     change       -0.2154571E-06 Eh
 * total energy  :  -135.1046652 Eh     change       -0.1941642E-06 Eh
 * total energy  :  -135.1046655 Eh     change       -0.2347961E-06 Eh
 * total energy  :  -135.1046655 Eh     change       -0.1206280E-07 Eh
   *** GEOMETRY OPTIMIZATION CONVERGED AFTER 22 ITERATIONS ***

 final structure:
================
89
 xtb: 6.7.1 (edcfbbe)
C            4.43492516716777        4.16950104449265        2.33153566783380
C            3.34571487000695        3.39089348290241        1.59261523952979
C            2.11392586469759        3.30743546844730        2.51828164219513
C            2.94075769295831        4.06247996355876        0.29056006598521
C            3.28367110307587        5.35721701912843       -0.06801712133952
C            2.87616849083757        5.89199163184327       -1.27929635576965
C            2.13983126468910        5.12777231142988       -2.16699108746853
C            1.79848416507358        3.82944781488438       -1.83512204163410
C            2.17262322231598        3.30940976892801       -0.60281145416901
N            1.88144212784960        1.97127809202482       -0.25914651900001
C            0.59945012036747        1.47919904024196       -0.15320699700923
C           -0.51220254163002        2.23531898722261       -0.55338674686980
C           -1.78439929023698        1.72414378015609       -0.45635343603209
C           -2.02004203291076        0.44098496796464        0.04380232356304
C           -3.38440048075121       -0.07282683713931        0.10238738146623
C           -3.67992362980028       -1.43543268025807        0.20990445526297
C           -5.02128350125831       -1.80148365518046        0.25899937717440
C           -5.45408321793057       -3.20183513958327        0.37332068300449
C           -4.69471982685254       -4.24590403667984       -0.15024415994820
C           -5.13010430749153       -5.55312871561244       -0.03047490323050
C           -6.32230592181599       -5.83542645444718        0.61636954697457
C           -7.08656658783058       -4.80205330369146        1.13495437533048
C           -6.65859177317491       -3.49402943925174        1.01080403012966
N           -5.98673645657056       -0.88175490875425        0.21709586866966
C           -5.62183975939821        0.39049346354457        0.09601765824179
C           -6.69023892204515        1.39475149107509        0.02669540577919
C           -8.02292350388711        0.99880527267621       -0.06852614329944
C           -9.02657523680414        1.94660477739275       -0.13565389406219
C           -8.71228110403835        3.29653128509307       -0.10871185685357
C           -7.38845633370309        3.69711480746793       -0.01430033641186
C           -6.38128531086845        2.75330583934861        0.05400158681430
N           -4.37014498036338        0.82582487581464        0.03119355035993
C           -0.92017739666761       -0.28716533624847        0.50096112529000
C            0.35481575492705        0.22177446108583        0.41914963377868
C            3.00143794260726        1.30567689332097        0.28195935869459
C            3.78554708342475        1.98348751108338        1.21572743220575
C            4.91572763804160        1.36064326145958        1.74323257157689
C            5.28755065101832        0.08188072586441        1.37695484533118
C            4.52347682860487       -0.57499636883243        0.42457406252544
C            3.39592269785413        0.04189009858406       -0.16437981627273
C            2.92487882869813       -0.85949433354346       -1.18207895501038
C            1.89856077557207       -0.81193760320322       -2.11950427116511
C            1.71914884023163       -1.88819370201379       -2.96544603262520
C            2.53870051021035       -3.01184151578124       -2.88490474128932
C            3.57684452221703       -3.07745698667776       -1.97615964718918
C            3.77917570897093       -1.98768458163891       -1.14066455127943
N            4.73265994511704       -1.80545709577337       -0.16152501436087
C            5.75367409242502       -2.70901118813670        0.17836698614576
C            5.93190115523880       -3.09021514021294        1.50503507374432
C            6.94056335965643       -3.97544815731423        1.83930531949636
C            7.76891013787587       -4.49364899573989        0.85719362701317
C            7.58922815319196       -4.11852404808898       -0.46427597683584
C            6.59054961252993       -3.22477840562790       -0.80653197760147
H            4.68311949629018        3.67249817373647        3.26580380732630
H            4.07584170124802        5.16438701032792        2.58245615883882
H            5.33330843754055        4.25751982115496        1.72472345768538
H            1.29503382019894        2.76229843111830        2.05701793168033
H            2.38231215946185        2.80017235664743        3.44281968392471
H            1.76339699690737        4.30922763062366        2.75855407281856
H            3.87302875578936        5.96887119678083        0.59535342596873
H            3.14756409976947        6.90579112197639       -1.53392063805351
H            1.84181380643373        5.53399587960255       -3.12217758656274
H            1.25663328940285        3.21110979912962       -2.53524367101692
H           -0.37710213604730        3.23841103242824       -0.92512801218957
H           -2.63042700666588        2.31279979101948       -0.77591721753619
H           -2.89960478566190       -2.17607493673002        0.25547182681601
H           -3.77388931455331       -4.03534130019798       -0.67466372641441
H           -4.53668712901037       -6.35489679283144       -0.44560830996132
H           -6.65714663165050       -6.85800123543315        0.71101418768479
H           -8.01887472531294       -5.01710478780221        1.63642473486689
H           -7.24342642182444       -2.67824091553506        1.40800403189781
H           -8.25007510446521       -0.05591811922853       -0.09283182095208
H          -10.05795982758001        1.63349237840515       -0.21011207005243
H           -9.49846665252652        4.03561508562436       -0.16174660567154
H           -7.14242261438924        4.74897745442631        0.00748539845869
H           -5.34619301551128        3.04770617396045        0.13299555284323
H           -1.05952647767987       -1.25527075033589        0.95885919207362
H            1.17414052785411       -0.35526633071243        0.81603033870941
H            5.52552879867609        1.87855496105683        2.46427394451387
H            6.16588870033671       -0.37835040687062        1.80187470684570
H            1.25059037435470        0.04706110617346       -2.18895512812987
H            0.92505071997404       -1.86350408374615       -3.69752020528082
H            2.36165454771613       -3.84542840095878       -3.54889809819056
H            4.20652809998777       -3.95211551825831       -1.91463061701124
H            5.27198752223621       -2.69815957275203        2.26480566285024
H            7.07455515819728       -4.26783185459145        2.87039843198856
H            8.55286133259058       -5.18753195188268        1.12120271274863
H            8.23547086423236       -4.51649481839666       -1.23279078330408
H            6.46084958865736       -2.91330221733624       -1.83239117340731

          :  Hamiltonian                  GFN2-xTB          :
         :: gradient norm              0.000077670675 Eh/a0 ::
         :: HOMO-LUMO gap              2.122628328802 eV    ::
         :: SCC energy              -137.590645846101 Eh    ::
         :: -> dispersion             -0.126763433745 Eh    ::
         :: -> Gsolv                  -0.057013196029 Eh    ::
         :: repulsion energy           2.485980375340 Eh    ::

    * Orbital Energies and Occupations

         #    Occupation            Energy/Eh            Energy/eV
      -------------------------------------------------------------
         1        2.0000           -0.6792945             -18.4845
       ...           ...                  ...                  ...
       114        2.0000           -0.4098460             -11.1525
       115        2.0000           -0.4073479             -11.0845
       116        2.0000           -0.4056101             -11.0372
       117        2.0000           -0.4043726             -11.0035
       118        2.0000           -0.4029407             -10.9646
       119        2.0000           -0.4023117             -10.9475
       120        2.0000           -0.3993063             -10.8657
       121        2.0000           -0.3941697             -10.7259
       122        2.0000           -0.3932476             -10.7008
       123        2.0000           -0.3815827             -10.3834
       124        2.0000           -0.3649836              -9.9317
       125        2.0000           -0.3584518              -9.7540
       126        2.0000           -0.3524812              -9.5915 (HOMO)
       127                         -0.2744759              -7.4689 (LUMO)
       128                         -0.2683459              -7.3021
       129                         -0.2484277              -6.7601
       130                         -0.2367268              -6.4417
       131                         -0.2332033              -6.3458
       132                         -0.2320097              -6.3133
       133                         -0.2275869              -6.1930
       134                         -0.2268471              -6.1728
       135                         -0.2231790              -6.0730
       136                         -0.2230100              -6.0684
       137                         -0.2219901              -6.0407
       ...                                ...                  ...
       248                          0.7375333              20.0693
      -------------------------------------------------------------
                  HL-Gap            0.0780052 Eh            2.1226 eV

     #   Z          covCN         q      C6AA      α(0)
     1   6 C        3.759    -0.108    22.622     6.781
     2   6 C        3.911     0.023    20.122     6.376
     3   6 C        3.761    -0.098    22.427     6.751
     4   6 C        2.986    -0.006    28.170     8.706
     5   6 C        2.923    -0.039    28.967     8.826
     6   6 C        2.919    -0.037    28.928     8.820
     7   6 C        2.920    -0.034    28.854     8.809
     8   6 C        2.920    -0.046    29.134     8.851
     9   6 C        2.952     0.056    26.734     8.481
    10   7 N        2.753    -0.069    22.578     7.057
    11   6 C        2.912     0.075    26.328     8.414
    12   6 C        2.920    -0.060    29.480     8.904
    13   6 C        2.925    -0.027    28.675     8.782
    14   6 C        2.977    -0.018    28.465     8.752
    15   6 C        2.963     0.113    25.509     8.284
    16   6 C        2.912    -0.074    29.835     8.957
    17   6 C        2.967     0.111    25.546     8.291
    18   6 C        2.980    -0.000    28.033     8.685
    19   6 C        2.923    -0.033    28.817     8.803
    20   6 C        2.918    -0.029    28.732     8.790
    21   6 C        2.920    -0.027    28.685     8.783
    22   6 C        2.918    -0.028    28.709     8.786
    23   6 C        2.926    -0.025    28.632     8.775
    24   7 N        1.849    -0.304    28.724     7.943
    25   6 C        2.942     0.191    23.925     8.022
    26   6 C        2.984    -0.004    28.124     8.699
    27   6 C        2.924    -0.029    28.735     8.791
    28   6 C        2.918    -0.030    28.739     8.791
    29   6 C        2.920    -0.027    28.678     8.782
    30   6 C        2.918    -0.030    28.740     8.791
    31   6 C        2.924    -0.029    28.732     8.790
    32   7 N        1.850    -0.302    28.688     7.938
    33   6 C        2.922    -0.033    28.833     8.806
    34   6 C        2.922    -0.055    29.372     8.888
    35   6 C        2.944     0.051    26.852     8.499
    36   6 C        2.984    -0.019    28.480     8.754
    37   6 C        2.925    -0.044    29.083     8.844
    38   6 C        2.908    -0.059    29.476     8.902
    39   6 C        3.079     0.044    26.919     8.506
    40   6 C        3.062    -0.033    28.748     8.792
    41   6 C        3.065    -0.015    28.329     8.728
    42   6 C        2.913    -0.035    28.860     8.809
    43   6 C        2.919    -0.043    29.068     8.841
    44   6 C        2.923    -0.035    28.866     8.811
    45   6 C        2.910    -0.052    29.295     8.875
    46   6 C        3.078     0.047    26.861     8.497
    47   7 N        2.802    -0.045    22.108     6.983
    48   6 C        2.913     0.064    26.571     8.453
    49   6 C        2.922    -0.042    29.043     8.838
    50   6 C        2.920    -0.028    28.697     8.785
    51   6 C        2.919    -0.032    28.810     8.802
    52   6 C        2.920    -0.028    28.694     8.784
    53   6 C        2.922    -0.042    29.039     8.837
    54   1 H        0.925     0.044     2.399     2.422
    55   1 H        0.925     0.044     2.398     2.422
    56   1 H        0.925     0.040     2.449     2.447
    57   1 H        0.925     0.032     2.561     2.503
    58   1 H        0.925     0.040     2.447     2.446
    59   1 H        0.925     0.040     2.454     2.450
    60   1 H        0.926     0.045     2.381     2.413
    61   1 H        0.926     0.035     2.510     2.477
    62   1 H        0.926     0.035     2.512     2.478
    63   1 H        0.926     0.037     2.488     2.467
    64   1 H        0.926     0.039     2.467     2.456
    65   1 H        0.926     0.045     2.379     2.412
    66   1 H        0.926     0.030     2.584     2.514
    67   1 H        0.926     0.032     2.554     2.499
    68   1 H        0.926     0.038     2.471     2.458
    69   1 H        0.926     0.040     2.445     2.445
    70   1 H        0.926     0.040     2.451     2.448
    71   1 H        0.926     0.045     2.379     2.412
    72   1 H        0.926     0.048     2.342     2.393
    73   1 H        0.926     0.039     2.457     2.451
    74   1 H        0.926     0.041     2.440     2.443
    75   1 H        0.926     0.040     2.455     2.450
    76   1 H        0.926     0.048     2.346     2.395
    77   1 H        0.926     0.028     2.616     2.529
    78   1 H        0.926     0.035     2.517     2.481
    79   1 H        0.926     0.046     2.370     2.407
    80   1 H        0.926     0.035     2.514     2.480
    81   1 H        0.926     0.027     2.623     2.533
    82   1 H        0.926     0.025     2.662     2.551
    83   1 H        0.926     0.030     2.590     2.517
    84   1 H        0.926     0.031     2.568     2.506
    85   1 H        0.926     0.042     2.426     2.436
    86   1 H        0.926     0.041     2.438     2.442
    87   1 H        0.926     0.040     2.452     2.449
    88   1 H        0.926     0.041     2.442     2.444
    89   1 H        0.926     0.042     2.427     2.436

molecular dipole:
                 x           y           z       tot (Debye)
 q only:        2.155       0.008       0.511
   full:        2.407      -0.357       0.491       6.309

 projected vibrational frequencies (cm⁻¹)
eigval :       -0.00    -0.00    -0.00    -0.00     0.00     0.00
eigval :        3.13     9.54    14.38    28.00    34.17    34.47
eigval :       39.97    42.77    49.48    52.09    57.47    60.99
eigval :       63.21    79.15    88.66    96.88   108.51   114.70
eigval :      126.74   132.55   147.55   159.78   176.82   177.78
eigval :      187.54   201.11   210.40   217.47   226.32   236.39
eigval :      246.10   256.49   264.18   281.32   284.34   299.95
eigval :      307.31   319.52   334.14   342.93   359.44   364.45
eigval :      368.76   370.11   377.89   379.64   384.50   387.31
eigval :      398.27   403.96   414.37   430.80   434.53   456.33
eigval :      458.14   468.93   478.98   482.34   490.17   512.95
eigval :      521.87   529.08   545.94   550.79   571.22   585.19
eigval :      586.40   588.42   590.54   591.13   602.32   603.02
eigval :      609.96   619.00   620.86   627.30   633.62   646.16
eigval :      663.34   663.52   671.90   673.40   681.30   685.07
eigval :      688.55   706.71   718.28   736.29   750.81   763.61
eigval :      764.30   769.68   772.11   778.90   785.22   806.78
eigval :      817.48   826.39   835.54   842.77   844.99   853.79
eigval :      869.65   875.06   879.20   880.70   885.21   890.20
eigval :      897.76   901.65   904.60   906.78   908.87   909.81
eigval :      913.82   914.41   919.85   923.92   924.52   927.43
eigval :      931.47   932.10   932.30   932.54   934.10   938.34
eigval :      947.94   968.23   971.20   988.12   989.60  1009.18
eigval :     1009.48  1025.27  1040.97  1070.54  1075.42  1076.82
eigval :     1078.59  1079.10  1088.44  1089.33  1102.76  1106.19
eigval :     1110.35  1116.66  1124.08  1132.12  1142.82  1149.98
eigval :     1153.51  1170.67  1175.61  1176.92  1177.88  1179.09
eigval :     1179.86  1184.59  1186.76  1195.07  1197.36  1200.44
eigval :     1205.02  1215.04  1228.53  1234.21  1241.73  1251.08
eigval :     1259.85  1263.26  1269.80  1271.21  1275.21  1278.07
eigval :     1278.92  1295.58  1314.17  1315.39  1320.31  1322.09
eigval :     1325.71  1334.08  1337.78  1352.53  1360.57  1361.61
eigval :     1366.40  1374.29  1395.97  1398.35  1411.64  1415.69
eigval :     1422.78  1425.31  1429.32  1434.36  1435.54  1440.94
eigval :     1456.35  1469.02  1473.06  1476.32  1480.30  1482.44
eigval :     1490.54  1492.99  1496.43  1504.30  1505.99  1520.73
eigval :     1526.93  1547.77  1565.32  1578.43  1581.27  1581.62
eigval :     1583.43  1584.30  1589.63  1591.48  1593.29  1594.76
eigval :     1595.46  1600.44  1606.69  3024.62  3026.90  3030.84
eigval :     3031.87  3046.15  3053.70  3070.07  3070.55  3071.54
eigval :     3074.55  3075.04  3075.94  3076.39  3078.16  3078.26
eigval :     3079.91  3080.70  3082.81  3085.32  3086.81  3089.21
eigval :     3090.30  3090.98  3092.32  3093.70  3096.61  3097.01
eigval :     3097.09  3099.78  3101.84  3106.67  3108.72  3108.90
eigval :     3111.57  3112.91  3120.97

   temp. (K)  partition function   enthalpy   heat capacity  entropy
                                   cal/mol     cal/K/mol   cal/K/mol   J/K/mol
 298.15  VIB  0.971E+20            25133.862    159.201    157.431
         ROT  0.129E+09              888.752      2.981     40.092
         INT  0.125E+29            26022.615    162.182    197.523
         TR   0.172E+29             1481.254      4.968     45.415
         TOT                       27503.8688   167.1503   242.9376  1016.4509

       T/K    H(0)-H(T)+PV         H(T)/Eh          T*S/Eh         G(T)/Eh
   ------------------------------------------------------------------------
    298.15    0.438302E-01    0.738934E+00    0.115427E+00    0.623507E+00
   ------------------------------------------------------------------------

         :::::::::::::::::::::::::::::::::::::::::::::::::::::
         ::                  THERMODYNAMIC                  ::
         :::::::::::::::::::::::::::::::::::::::::::::::::::::
         :: total free energy        -134.481158895010 Eh   ::
         ::.................................................::
         :: total energy             -135.104665476297 Eh   ::
         :: zero point energy           0.695103872914 Eh   ::
         :: G(RRHO) w/o ZPVE           -0.071597291627 Eh   ::
         :: G(RRHO) contrib.            0.623506581287 Eh   ::
         :::::::::::::::::::::::::::::::::::::::::::::::::::::

           -------------------------------------------------
          | TOTAL ENERGY             -135.104665476297 Eh   |
          | TOTAL ENTHALPY           -134.365731398608 Eh   |
          | TOTAL FREE ENERGY        -134.481158895010 Eh   |
          | GRADIENT NORM               0.000077643293 Eh/α |
          | HOMO-LUMO GAP               2.122629871783 eV   |
           -------------------------------------------------

 * finished run on 2025/09/12 at 17:53:22.463
