   * xtb version 6.7.1 (edcfbbe) compiled by 'albert@albert-system' on 2024-07-22

   ID    Z sym.   atoms
    1    6 C      1-9, 11-23, 25-31, 33-46, 48-53
    2    7 N      10, 24, 32, 47
    3    1 H      54-89

          program call               : xtb data2507/toluene/12AcCz-PM/12AcCz-PM_toluene_T1_crest.xyz --gfn 2 --uhf 2 --gbsa toluene --ohess vtight --parallel 40 --molden --ceasefiles --namespace data2507/toluene/12AcCz-PM/12AcCz-PM_toluene_T1_finalOpt
      * Solvation model:               GBSA
        Solvent                        toluene
        Solvent mass                       9.2140E+01 g/mol
          :  Hamiltonian                  GFN2-xTB          :
 * total energy  :  -135.0229075 Eh     change       -0.1333536E-06 Eh
 * total energy  :  -135.0230211 Eh     change       -0.1135736E-03 Eh
 * total energy  :  -135.0230784 Eh     change       -0.5729096E-04 Eh
 * total energy  :  -135.0230867 Eh     change       -0.8261851E-05 Eh
 * total energy  :  -135.0230982 Eh     change       -0.1155598E-04 Eh
 * total energy  :  -135.0231030 Eh     change       -0.4774254E-05 Eh
 * total energy  :  -135.0231153 Eh     change       -0.1230633E-04 Eh
 * total energy  :  -135.0231185 Eh     change       -0.3199049E-05 Eh
 * total energy  :  -135.0231227 Eh     change       -0.4216044E-05 Eh
 * total energy  :  -135.0231252 Eh     change       -0.2504366E-05 Eh
 * total energy  :  -135.0231700 Eh     change       -0.3187398E-06 Eh
 * total energy  :  -135.0231704 Eh     change       -0.3374273E-06 Eh
 * total energy  :  -135.0231707 Eh     change       -0.2950026E-06 Eh
 * total energy  :  -135.0231710 Eh     change       -0.3554079E-06 Eh
 * total energy  :  -135.0231713 Eh     change       -0.2698204E-06 Eh
 * total energy  :  -135.0231714 Eh     change       -0.1424665E-06 Eh
 * total energy  :  -135.0231715 Eh     change       -0.1077404E-06 Eh
 * total energy  :  -135.0231716 Eh     change       -0.1083448E-06 Eh
 * total energy  :  -135.0231717 Eh     change       -0.8190634E-07 Eh
   *** GEOMETRY OPTIMIZATION CONVERGED AFTER 52 ITERATIONS ***

 final structure:
================
89
 xtb: 6.7.1 (edcfbbe)
C            4.69918787379179        3.82235001083174        2.65768826728533
C            3.54290015377009        3.14933431771814        1.91647278905603
C            2.37607993032884        2.97957188002562        2.91349126827146
C            3.06392129334712        3.96834691523546        0.73165028915223
C            3.39768159674755        5.29323339347614        0.50178195875631
C            2.92259186418153        5.96473994969416       -0.61383655733063
C            2.12504925338400        5.30871962910064       -1.53573207012380
C            1.78161440982315        3.98609181736373       -1.32931275402378
C            2.22117439149121        3.32734013648263       -0.18540627905311
N            1.92661873252266        1.96900954498705        0.03203454984964
C            0.63812080903908        1.46709188591743        0.08176508986915
C           -0.48064621210932        2.27245014454403       -0.20664077324414
C           -1.74860658835113        1.76113030987928       -0.15138288405465
C           -2.00156121509157        0.41898813016475        0.21425453170969
C           -3.34680500002026       -0.07003431988080        0.22739419968126
C           -3.70564451460723       -1.38847151190769        0.53160699514190
C           -5.04830748171703       -1.74529846781127        0.51425737638972
C           -5.54482127540603       -3.06721296233056        0.82487416089851
C           -4.70935687786900       -4.14693599871589        1.15250559694751
C           -5.23754046340592       -5.38627516219052        1.44497967207393
C           -6.60939885754787       -5.59656244590648        1.42154131274816
C           -7.45110003299280       -4.54075596985419        1.09755737249016
C           -6.93121175296499       -3.30029432209567        0.80388614249002
N           -5.97788226484735       -0.79359725383067        0.19309458902408
C           -5.59424828165326        0.43291236759798       -0.10778054127492
C           -6.62468470491164        1.41515298011737       -0.46415059048557
C           -7.96947978244656        1.05325224557404       -0.47176991819863
C           -8.93923904556230        1.97916265944207       -0.80686113489404
C           -8.57754175021003        3.27555438776231       -1.13855046683597
C           -7.24091619042992        3.64325641319714       -1.13379164384032
C           -6.26920883008521        2.71958229428258       -0.79898319583610
N           -4.33915658507418        0.81924208074011       -0.09734064014775
C           -0.87914784886847       -0.35524198779413        0.58152788481448
C            0.39125795732346        0.15248569550353        0.52420711788257
C            3.05357037325349        1.22848634919377        0.40696048946387
C            3.92113943261049        1.78733685550844        1.35731448522508
C            5.04986187642127        1.07951794908378        1.75548639793967
C            5.35987826882929       -0.16490908433255        1.23478476942579
C            4.52569790175388       -0.69405625521088        0.26189518565080
C            3.38347959935426        0.00571746952749       -0.19206107777765
C            2.84442689310641       -0.76118094340907       -1.28138875597954
C            1.78111878443977       -0.58618302698134       -2.16285818069767
C            1.53762721727378       -1.55743435374385       -3.11248810555741
C            2.33061902838703       -2.70128021040876       -3.19726484015776
C            3.40641965830473       -2.88934058310744       -2.35271527294527
C            3.67224037717235       -1.90431442966861       -1.41067470406133
N            4.67414551511147       -1.85298850974477       -0.46763982804685
C            5.70203873617321       -2.79730802192065       -0.29924233272768
C            5.94279303482744       -3.34589113449243        0.95676356942023
C            6.95818756718992       -4.27048633126383        1.12164752938765
C            7.73141883819101       -4.65868207839526        0.03958745116181
C            7.48991827564441       -4.11475476153843       -1.21158987030668
C            6.48221954962585       -3.18326455481171       -1.38478154175987
H            4.99655436338984        3.22211840766925        3.51334563652091
H            4.38327158239900        4.78966828302140        3.03919157253300
H            5.55607253815001        3.96004633546639        2.00223468525732
H            1.50840643577015        2.51861721373044        2.44901586092183
H            2.69129324386134        2.35298603264917        3.74508565884156
H            2.07862280768042        3.95158316656548        3.30111314621706
H            4.03529057836887        5.82127435754653        1.19134765643980
H            3.19198699259259        6.99843366567474       -0.77014093213629
H            1.78016948973516        5.81976556886370       -2.42197755605628
H            1.19837069949107        3.45251562494776       -2.06443145939607
H           -0.34876761945619        3.31478390343426       -0.44897580705712
H           -2.59578539002339        2.38922809661538       -0.37806291260656
H           -2.94860765582778       -2.11477695766095        0.77389763456282
H           -3.63751304621975       -4.01951995061510        1.17818341305814
H           -4.57343209052068       -6.20250988998721        1.69444497249381
H           -7.01611091042101       -6.57003601196536        1.65252155325242
H           -8.52146197280946       -4.69245052840488        1.07477108462378
H           -7.58147255275637       -2.47644202620028        0.55175078745739
H           -8.23479297064947        0.03989633173620       -0.21112946915778
H           -9.98045905992311        1.69078128534873       -0.80983531403506
H           -9.33667900464829        3.99814325104215       -1.40029541437566
H           -6.95758280138408        4.65336409050183       -1.39219935573820
H           -5.22427787826155        2.98972021530733       -0.79044183145234
H           -1.01032572531808       -1.36729573512000        0.93146275906937
H            1.21407027793927       -0.46700031707979        0.84252401816224
H            5.71189532316610        1.49806601515141        2.49422132919544
H            6.24425777779267       -0.69126601044623        1.55713591051750
H            1.15154749931330        0.28706320202357       -2.10934293938363
H            0.71286315531804       -1.43482979310509       -3.79912383521103
H            2.10116454098257       -3.45074467034636       -3.94033042301674
H            4.01852462189926       -3.77577808781883       -2.41967582347942
H            5.32524986251890       -3.05362308476003        1.79312269854195
H            7.14062105790219       -4.69484560587605        2.09782964044932
H            8.52141488075822       -5.38267884487119        0.17103711343930
H            8.09357062972473       -4.41125920521893       -2.05656247779155
H            6.30261743162250       -2.74204130390281       -2.35391041750603

          :  Hamiltonian                  GFN2-xTB          :
         :: gradient norm              0.000093873867 Eh/a0 ::
         :: HOMO-LUMO gap              0.311919897376 eV    ::
         :: SCC energy              -137.499293064646 Eh    ::
         :: -> dispersion             -0.126790141218 Eh    ::
         :: -> Gsolv                  -0.060008839772 Eh    ::
         :: repulsion energy           2.476121339492 Eh    ::

    * Orbital Energies and Occupations

         #    Occupation            Energy/Eh            Energy/eV
      -------------------------------------------------------------
         1        2.0000           -0.6856576             -18.6577
       ...           ...                  ...                  ...
       115        2.0000           -0.4077143             -11.0945
       116        2.0000           -0.4058106             -11.0427
       117        2.0000           -0.4050674             -11.0224
       118        2.0000           -0.4032758             -10.9737
       119        2.0000           -0.3969546             -10.8017
       120        2.0000           -0.3955494             -10.7634
       121        2.0000           -0.3900115             -10.6128
       122        2.0000           -0.3867322             -10.5235
       123        2.0000           -0.3838258             -10.4444
       124        2.0000           -0.3703250             -10.0771
       125        1.5879           -0.3579565              -9.7405
       126        1.4121           -0.3572813              -9.7221
       127        0.9976           -0.2736443              -7.4462 (HOMO)
       128        0.0024           -0.2621814              -7.1343 (LUMO)
       129        0.0000           -0.2535712              -6.9000
       130                         -0.2394115              -6.5147
       131                         -0.2359364              -6.4202
       132                         -0.2347315              -6.3874
       133                         -0.2323064              -6.3214
       134                         -0.2286668              -6.2223
       135                         -0.2247266              -6.1151
       136                         -0.2231749              -6.0729
       137                         -0.2190683              -5.9612
       138                         -0.2126505              -5.7865
       ...                                ...                  ...
       248                          0.7309552              19.8903
      -------------------------------------------------------------
                  HL-Gap            0.0114629 Eh            0.3119 eV

     #   Z          covCN         q      C6AA      α(0)
     1   6 C        3.759    -0.111    22.669     6.788
     2   6 C        3.911     0.024    20.111     6.374
     3   6 C        3.761    -0.100    22.456     6.755
     4   6 C        2.986    -0.003    28.085     8.693
     5   6 C        2.922    -0.036    28.908     8.817
     6   6 C        2.919    -0.034    28.845     8.807
     7   6 C        2.919    -0.032    28.799     8.800
     8   6 C        2.919    -0.042    29.050     8.839
     9   6 C        2.954     0.054    26.790     8.489
    10   7 N        2.753    -0.029    21.811     6.936
    11   6 C        2.911     0.054    26.780     8.486
    12   6 C        2.915    -0.052    29.283     8.874
    13   6 C        2.923    -0.037    28.910     8.817
    14   6 C        2.972    -0.006    28.160     8.705
    15   6 C        2.936     0.072    26.400     8.427
    16   6 C        2.911    -0.058    29.434     8.896
    17   6 C        2.935     0.078    26.261     8.404
    18   6 C        2.974    -0.007    28.190     8.709
    19   6 C        2.921    -0.044    29.089     8.845
    20   6 C        2.917    -0.034    28.856     8.809
    21   6 C        2.918    -0.042    29.042     8.837
    22   6 C        2.916    -0.034    28.847     8.807
    23   6 C        2.926    -0.036    28.897     8.816
    24   7 N        1.851    -0.285    28.244     7.877
    25   6 C        2.889     0.193    23.882     8.012
    26   6 C        2.983    -0.003    28.091     8.694
    27   6 C        2.924    -0.028    28.707     8.786
    28   6 C        2.918    -0.030    28.739     8.791
    29   6 C        2.920    -0.028    28.698     8.785
    30   6 C        2.918    -0.030    28.743     8.792
    31   6 C        2.924    -0.029    28.719     8.788
    32   7 N        1.851    -0.282    28.153     7.864
    33   6 C        2.918    -0.043    29.066     8.841
    34   6 C        2.917    -0.046    29.147     8.853
    35   6 C        2.946     0.050    26.885     8.504
    36   6 C        2.984    -0.012    28.313     8.728
    37   6 C        2.924    -0.041    29.029     8.836
    38   6 C        2.908    -0.054    29.331     8.880
    39   6 C        3.080     0.045    26.894     8.502
    40   6 C        3.061    -0.032    28.735     8.791
    41   6 C        3.065    -0.014    28.296     8.723
    42   6 C        2.912    -0.034    28.847     8.807
    43   6 C        2.919    -0.039    28.975     8.827
    44   6 C        2.923    -0.033    28.823     8.804
    45   6 C        2.909    -0.050    29.240     8.867
    46   6 C        3.081     0.048    26.844     8.494
    47   7 N        2.802    -0.036    21.928     6.955
    48   6 C        2.913     0.063    26.598     8.457
    49   6 C        2.922    -0.041    29.018     8.834
    50   6 C        2.920    -0.027    28.673     8.781
    51   6 C        2.919    -0.031    28.769     8.796
    52   6 C        2.920    -0.027    28.670     8.780
    53   6 C        2.922    -0.041    29.008     8.832
    54   1 H        0.925     0.048     2.350     2.397
    55   1 H        0.925     0.048     2.349     2.397
    56   1 H        0.925     0.044     2.402     2.424
    57   1 H        0.925     0.034     2.536     2.490
    58   1 H        0.925     0.044     2.395     2.420
    59   1 H        0.925     0.044     2.395     2.420
    60   1 H        0.926     0.051     2.303     2.373
    61   1 H        0.926     0.041     2.438     2.442
    62   1 H        0.926     0.041     2.441     2.443
    63   1 H        0.926     0.043     2.411     2.428
    64   1 H        0.926     0.041     2.436     2.441
    65   1 H        0.926     0.040     2.446     2.446
    66   1 H        0.926     0.024     2.678     2.559
    67   1 H        0.926     0.019     2.755     2.596
    68   1 H        0.925     0.024     2.678     2.559
    69   1 H        0.926     0.024     2.676     2.558
    70   1 H        0.925     0.025     2.660     2.551
    71   1 H        0.926     0.033     2.544     2.494
    72   1 H        0.926     0.043     2.412     2.429
    73   1 H        0.926     0.039     2.464     2.455
    74   1 H        0.926     0.041     2.439     2.442
    75   1 H        0.926     0.040     2.447     2.446
    76   1 H        0.926     0.045     2.388     2.416
    77   1 H        0.926     0.024     2.676     2.558
    78   1 H        0.926     0.036     2.502     2.474
    79   1 H        0.926     0.054     2.273     2.358
    80   1 H        0.926     0.043     2.415     2.430
    81   1 H        0.926     0.030     2.580     2.512
    82   1 H        0.926     0.028     2.611     2.527
    83   1 H        0.926     0.033     2.547     2.495
    84   1 H        0.926     0.035     2.517     2.481
    85   1 H        0.926     0.044     2.396     2.420
    86   1 H        0.926     0.043     2.410     2.428
    87   1 H        0.926     0.042     2.427     2.436
    88   1 H        0.926     0.043     2.415     2.430
    89   1 H        0.926     0.044     2.398     2.422

molecular dipole:
                 x           y           z       tot (Debye)
 q only:        4.979       1.529       0.182
   full:        5.101       1.150       0.196      13.299

 projected vibrational frequencies (cm⁻¹)
eigval :       -0.00    -0.00     0.00     0.00     0.00     0.00
eigval :        5.29    11.53    13.30    17.36    28.78    30.17
eigval :       35.40    43.97    49.06    54.83    57.78    61.61
eigval :       64.75    77.53    82.35    94.29   107.43   114.64
eigval :      129.68   138.53   154.54   156.57   175.69   183.08
eigval :      191.45   198.43   198.94   209.88   215.69   235.63
eigval :      245.60   252.42   264.77   278.45   283.23   290.63
eigval :      306.43   320.39   330.99   344.16   361.64   365.58
eigval :      368.60   371.73   378.17   378.45   382.75   386.56
eigval :      394.40   401.92   406.07   415.37   418.14   437.95
eigval :      454.79   460.39   466.70   479.59   487.69   508.84
eigval :      521.39   527.04   535.56   540.03   545.66   570.13
eigval :      578.31   582.74   583.05   587.04   588.30   589.78
eigval :      591.06   600.06   609.67   618.60   630.21   639.91
eigval :      643.18   649.26   657.35   662.07   666.97   669.69
eigval :      679.11   686.47   704.40   714.69   744.29   748.36
eigval :      763.37   763.75   768.61   773.75   781.54   786.52
eigval :      798.38   815.74   818.07   823.17   834.10   843.57
eigval :      850.12   868.96   870.93   874.44   879.30   880.47
eigval :      887.57   894.20   894.91   901.04   902.67   904.42
eigval :      907.26   910.27   916.27   918.49   918.94   920.00
eigval :      924.56   925.71   927.15   929.87   930.83   933.98
eigval :      936.37   946.63   967.39   976.20   982.60   988.22
eigval :      995.21  1010.50  1039.76  1052.07  1067.93  1070.55
eigval :     1074.17  1074.93  1077.77  1080.20  1087.67  1092.57
eigval :     1102.02  1109.03  1115.11  1127.76  1129.87  1141.12
eigval :     1146.99  1155.69  1164.91  1171.82  1175.95  1176.48
eigval :     1177.52  1179.59  1182.13  1184.70  1190.37  1198.46
eigval :     1203.06  1204.51  1217.20  1229.99  1240.16  1253.59
eigval :     1259.35  1263.74  1264.42  1267.06  1272.89  1274.89
eigval :     1286.48  1290.45  1300.13  1305.60  1315.11  1320.02
eigval :     1321.11  1326.38  1329.91  1332.19  1347.69  1353.22
eigval :     1356.99  1370.74  1383.29  1388.98  1395.63  1408.05
eigval :     1414.84  1416.09  1418.08  1426.91  1431.37  1433.39
eigval :     1435.97  1439.38  1440.75  1456.37  1461.09  1468.97
eigval :     1471.29  1477.11  1478.24  1481.03  1488.06  1491.94
eigval :     1502.05  1519.61  1543.39  1544.15  1561.45  1564.66
eigval :     1569.11  1576.08  1581.68  1581.99  1583.24  1586.56
eigval :     1589.86  1593.67  1595.37  3028.70  3030.43  3035.01
eigval :     3036.42  3049.29  3050.40  3060.20  3061.42  3070.93
eigval :     3074.75  3075.35  3077.84  3078.19  3079.57  3081.09
eigval :     3083.66  3084.51  3085.36  3087.30  3087.56  3087.90
eigval :     3091.07  3092.76  3093.97  3094.82  3096.58  3096.88
eigval :     3097.84  3098.17  3098.52  3107.80  3108.20  3109.28
eigval :     3111.79  3115.65  3125.59

   temp. (K)  partition function   enthalpy   heat capacity  entropy
                                   cal/mol     cal/K/mol   cal/K/mol   J/K/mol
 298.15  VIB  0.151E+21            25436.478    160.910    158.730
         ROT  0.129E+09              888.752      2.981     40.101
         INT  0.195E+29            26325.230    163.891    198.831
         TR   0.172E+29             1481.254      4.968     45.415
         TOT                       27806.4838   168.8593   244.2459  1021.9248

       T/K    H(0)-H(T)+PV         H(T)/Eh          T*S/Eh         G(T)/Eh
   ------------------------------------------------------------------------
    298.15    0.443125E-01    0.735257E+00    0.116049E+00    0.619208E+00
   ------------------------------------------------------------------------

         :::::::::::::::::::::::::::::::::::::::::::::::::::::
         ::                  THERMODYNAMIC                  ::
         :::::::::::::::::::::::::::::::::::::::::::::::::::::
         :: total free energy        -134.403963824203 Eh   ::
         ::.................................................::
         :: total energy             -135.023171722707 Eh   ::
         :: zero point energy           0.690944545176 Eh   ::
         :: G(RRHO) w/o ZPVE           -0.071736646672 Eh   ::
         :: G(RRHO) contrib.            0.619207898504 Eh   ::
         :::::::::::::::::::::::::::::::::::::::::::::::::::::

           -------------------------------------------------
          | TOTAL ENERGY             -135.023171722707 Eh   |
          | TOTAL ENTHALPY           -134.287914724934 Eh   |
          | TOTAL FREE ENERGY        -134.403963824203 Eh   |
          | GRADIENT NORM               0.000091007363 Eh/α |
          | HOMO-LUMO GAP               0.311921934190 eV   |
           -------------------------------------------------

 * finished run on 2025/09/12 at 18:01:59.875
