   * xtb version 6.7.1 (edcfbbe) compiled by 'albert@albert-system' on 2024-07-22

   ID    Z sym.   atoms
    1    6 C      1-4, 6-21, 23-36, 38-48
    2    7 N      5, 22, 37
    3    1 H      49-79

          program call               : xtb data2507/gas/mTPA-PPI/mTPA-PPI_gas_S0_finalOpt.xtbopt.xyz --gfn 2 --spinpol --tblite --uhf 2 --ohess vtight --parallel 40 --molden --ceasefiles --namespace data2507/gas/mTPA-PPI/mTPA-PPI_gas_T1_preOpt
 * total energy  :  -120.8883098 Eh     change        0.6529260E-07 Eh
 * total energy  :  -120.8934202 Eh     change       -0.5110418E-02 Eh
 * total energy  :  -120.8959843 Eh     change       -0.2564101E-02 Eh
 * total energy  :  -120.8964025 Eh     change       -0.4181535E-03 Eh
 * total energy  :  -120.8970521 Eh     change       -0.6495757E-03 Eh
 * total energy  :  -120.8972814 Eh     change       -0.2293488E-03 Eh
 * total energy  :  -120.8974942 Eh     change       -0.2127610E-03 Eh
 * total energy  :  -120.8976323 Eh     change       -0.1381699E-03 Eh
 * total energy  :  -120.8977311 Eh     change       -0.9875366E-04 Eh
 * total energy  :  -120.8978079 Eh     change       -0.7682334E-04 Eh
 * total energy  :  -120.8982229 Eh     change       -0.9593043E-06 Eh
 * total energy  :  -120.8982238 Eh     change       -0.9561499E-06 Eh
 * total energy  :  -120.8982248 Eh     change       -0.9450120E-06 Eh
 * total energy  :  -120.8982260 Eh     change       -0.1202929E-05 Eh
 * total energy  :  -120.8982272 Eh     change       -0.1178775E-05 Eh
 * total energy  :  -120.8982280 Eh     change       -0.8464883E-06 Eh
 * total energy  :  -120.8982285 Eh     change       -0.5268312E-06 Eh
 * total energy  :  -120.8982285 Eh     change        0.6890505E-07 Eh
 * total energy  :  -120.8982285 Eh     change       -0.5207437E-07 Eh
   *** GEOMETRY OPTIMIZATION CONVERGED AFTER 69 ITERATIONS ***

 final structure:
================
79
 xtb: 6.7.1 (edcfbbe)
C            7.34075046486948       -3.46541720368265        1.47076017896760
C            6.58293629619613       -2.59267952538597        2.23486187625665
C            6.07443389544758       -1.43539038729564        1.67872887477332
C            6.31386614935490       -1.13705187226137        0.33685099452399
N            5.80088378128617        0.03247533700784       -0.23262872427928
C            6.55038606905655        0.73223366282581       -1.18467262997524
C            7.93588471106869        0.83504262358483       -1.05776480272546
C            8.67096532423466        1.52469773786026       -2.00191372446236
C            8.04138718712152        2.12657747574273       -3.07943012861486
C            6.66520983278792        2.03020799243477       -3.20818734111113
C            5.92159898830383        1.33714861660933       -2.27339528068143
C            4.54072419307929        0.50420283021343        0.14555150404278
C            3.50205562962065       -0.38417286321437        0.42981655118003
C            2.26063277287552        0.08690400392378        0.79706639502651
C            2.00650015189466        1.45659038835792        0.89304688291715
C            0.67841491432725        1.95158432154396        1.26828029381010
C            0.54251677901113        3.11231009728314        2.05426430836088
C           -0.72645252430254        3.60871119380819        2.34618452501422
C           -1.85177712085500        2.96241353419895        1.91090527737835
C           -1.74885592404707        1.74642335953775        1.16863033121374
C           -2.94045569536557        1.11793244954322        0.77847393139731
N           -4.12519543066430        1.76580991895481        0.75911262735302
C           -5.00205224163962        0.94987397134159        0.21212389383047
C           -6.36966216979998        1.22039466356776       -0.08999080327980
C           -6.90976768878700        2.48606459306797        0.13978371562268
C           -8.22144593233159        2.75740414217527       -0.19529501940445
C           -8.99077597958000        1.75830887939308       -0.77176153509614
C           -8.46504314800910        0.49801194753170       -0.99657161169137
C           -7.14561840929734        0.18177252555787       -0.65525729758385
C           -6.57486300203322       -1.14431025404900       -0.83916065739644
C           -7.34674028174340       -2.21260417386669       -1.28552951980313
C           -6.83580374194747       -3.48975582748003       -1.42871428644635
C           -5.50342170273323       -3.74714520423205       -1.09687202819948
C           -4.70075525614537       -2.73103472418716       -0.66034263463990
C           -5.18798937155687       -1.40264588711468       -0.53491292425725
C           -4.41207835881282       -0.33072208426224       -0.09209182884777
N           -3.08986682531082       -0.20325786027464        0.27376496577588
C           -2.08683067963037       -1.17639974463574        0.29327325028157
C           -1.67877245865243       -1.80254304804025       -0.88675874429951
C           -0.66006230103120       -2.73407429826847       -0.85464279358771
C           -0.03754134301346       -3.05262596275557        0.34363606628296
C           -0.44116259870483       -2.43145756836076        1.51667454512328
C           -1.45771355979908       -1.49717250794256        1.49824413154839
C           -0.45096869471120        1.28749781802161        0.83872515687338
C            3.05165208722454        2.33797106322597        0.61195220656618
C            4.29634352266815        1.87515370914290        0.24471406240611
C            7.07393136800771       -2.02155318951672       -0.42934183916954
C            7.58381019860761       -3.17251166258299        0.13853028157851
H            7.73920253258187       -4.36707171794239        1.91023076931084
H            6.39349287637842       -2.81008294783966        3.27566493712409
H            5.49428791078916       -0.75038944657738        2.27939500648937
H            8.42716830763288        0.37638906793827       -0.21212301422997
H            9.74255242102328        1.59997669591882       -1.89052671766229
H            8.61915889963122        2.66702780126980       -3.81354784086672
H            6.16690345308421        2.49141801383398       -4.04801898637809
H            4.85011532878279        1.25353659752307       -2.38102757036676
H            3.67589419153043       -1.44766123108357        0.35357130209650
H            1.47526046583894       -0.61907614968046        1.02220811886639
H            1.42007878441496        3.61107182532361        2.43490092376024
H           -0.81789669905562        4.51482071279520        2.92799274981427
H           -2.83945853243486        3.33309728246314        2.13011480817921
H           -6.26979577704206        3.23695902085018        0.57602118391163
H           -8.64122562156015        3.73608912230086       -0.01801452499788
H          -10.01513354843740        1.96055153497343       -1.05021281333347
H           -9.10462292193138       -0.24167259108389       -1.45105463600390
H           -8.38791194576508       -2.06033178658389       -1.52186674756371
H           -7.47107289687272       -4.28868189078511       -1.77973251103057
H           -5.11108358016498       -4.75016313525607       -1.17899753764976
H           -3.68209196782094       -2.94254343725376       -0.38066647691216
H           -2.16007232578048       -1.54169414681307       -1.81820221156226
H           -0.34289275203283       -3.20941848527062       -1.77104624903202
H            0.76124206261861       -3.77843084318164        0.36213928421555
H            0.03827224242128       -2.67993484484992        2.45232898320874
H           -1.77376891574378       -1.00588357278348        2.40640561791238
H           -0.33769595543927        0.44757892263227        0.17334604651275
H            2.88020759586694        3.40270831083073        0.66554158612919
H            5.09359712504788        2.57298351565349        0.03358760605231
H            7.25493436672933       -1.80123281003799       -1.47121524163838
H            8.16844747862717       -3.84987897370335       -0.46629624198032

 projected vibrational frequencies (cm⁻¹)
eigval :       -0.00    -0.00     0.00     0.00     0.00     0.00
eigval :        9.48    10.35    16.82    22.18    30.42    41.44
eigval :       41.81    51.23    58.41    59.22    64.67    71.04
eigval :       75.73    84.13    93.20   105.35   109.95   131.75
eigval :      143.81   160.16   189.96   192.76   207.21   216.06
eigval :      225.61   235.25   237.94   256.99   259.98   277.95
eigval :      293.73   310.01   313.26   342.59   362.34   374.28
eigval :      376.76   378.11   381.44   385.57   388.12   390.05
eigval :      396.02   402.19   411.11   430.25   435.64   457.11
eigval :      474.01   479.43   482.85   495.64   507.13   516.64
eigval :      520.09   537.36   580.11   580.19   581.92   587.33
eigval :      591.98   594.11   601.07   613.08   621.15   629.27
eigval :      636.48   643.42   654.78   659.59   660.02   661.99
eigval :      666.38   685.57   687.87   693.56   718.51   722.08
eigval :      744.88   751.14   755.71   757.19   759.12   767.89
eigval :      768.61   815.95   823.37   840.42   841.38   851.46
eigval :      858.13   869.29   872.83   873.83   875.10   886.78
eigval :      890.65   893.28   894.40   907.26   908.76   909.72
eigval :      910.71   912.88   914.60   918.31   918.87   925.61
eigval :      927.63   928.13   928.42   929.29   929.63   930.99
eigval :      935.85   951.33   979.03   983.26   991.52  1004.45
eigval :     1016.75  1041.52  1074.00  1075.58  1080.29  1082.85
eigval :     1083.69  1086.54  1099.38  1116.61  1121.10  1122.01
eigval :     1124.28  1130.30  1145.93  1149.68  1169.43  1174.35
eigval :     1178.51  1179.18  1180.35  1180.46  1183.60  1183.97
eigval :     1187.72  1194.55  1196.63  1202.59  1216.62  1231.99
eigval :     1244.68  1256.54  1262.38  1272.27  1272.81  1275.06
eigval :     1277.61  1278.77  1283.87  1312.43  1317.91  1317.97
eigval :     1319.49  1323.90  1327.16  1327.59  1331.45  1344.42
eigval :     1348.14  1353.86  1376.16  1390.79  1396.79  1408.78
eigval :     1414.08  1429.48  1433.52  1435.62  1440.52  1442.61
eigval :     1468.52  1469.15  1471.28  1473.82  1480.15  1494.62
eigval :     1504.68  1534.20  1543.54  1548.47  1550.94  1552.52
eigval :     1556.81  1566.95  1574.38  1578.27  1583.02  1590.28
eigval :     1590.47  1597.96  3071.99  3073.51  3076.70  3076.97
eigval :     3077.84  3078.43  3078.45  3078.63  3079.23  3079.78
eigval :     3081.21  3086.75  3087.53  3087.56  3088.47  3088.61
eigval :     3090.38  3091.25  3091.73  3092.09  3094.49  3095.50
eigval :     3097.47  3098.04  3099.00  3099.39  3106.78  3108.22
eigval :     3116.92  3117.36  3125.21

   temp. (K)  partition function   enthalpy   heat capacity  entropy
                                   cal/mol     cal/K/mol   cal/K/mol   J/K/mol
 298.15  VIB  0.328E+18            22310.219    142.240    139.254
         ROT  0.912E+08              888.752      2.981     39.404
         INT  0.299E+26            23198.971    145.221    178.658
         TR   0.147E+29             1481.254      4.968     45.106
         TOT                       24680.2253   150.1888   223.7640   936.2286

       T/K    H(0)-H(T)+PV         H(T)/Eh          T*S/Eh         G(T)/Eh
   ------------------------------------------------------------------------
    298.15    0.393304E-01    0.646698E+00    0.106317E+00    0.540380E+00
   ------------------------------------------------------------------------

         :::::::::::::::::::::::::::::::::::::::::::::::::::::
         ::                  THERMODYNAMIC                  ::
         :::::::::::::::::::::::::::::::::::::::::::::::::::::
         :: total free energy        -120.357848507714 Eh   ::
         ::.................................................::
         :: total energy             -120.898228539994 Eh   ::
         :: zero point energy           0.607367085683 Eh   ::
         :: G(RRHO) w/o ZPVE           -0.066987053403 Eh   ::
         :: G(RRHO) contrib.            0.540380032280 Eh   ::
         :::::::::::::::::::::::::::::::::::::::::::::::::::::

           -------------------------------------------------
          | TOTAL ENERGY             -120.898228539994 Eh   |
          | TOTAL ENTHALPY           -120.251531011737 Eh   |
          | TOTAL FREE ENERGY        -120.357848507714 Eh   |
          | GRADIENT NORM               0.000057766587 Eh/α |
           -------------------------------------------------

 * finished run on 2025/09/10 at 11:45:13.971
