   * xtb version 6.7.1 (edcfbbe) compiled by 'albert@albert-system' on 2024-07-22

   ID    Z sym.   atoms
    1    6 C      1-4, 6-21, 23-36, 38-48
    2    7 N      5, 22, 37
    3    1 H      49-79

          program call               : xtb data2507/gas/mTPA-PPI/mTPA-PPI_gas_T1_crest.xyz --gfn 2 --spinpol --tblite --uhf 2 --ohess vtight --parallel 40 --molden --ceasefiles --namespace data2507/gas/mTPA-PPI/mTPA-PPI_gas_T1_finalOpt
 * total energy  :  -120.8986014 Eh     change       -0.4060426E-07 Eh
 * total energy  :  -120.8986150 Eh     change       -0.1363538E-04 Eh
 * total energy  :  -120.8986224 Eh     change       -0.7371862E-05 Eh
 * total energy  :  -120.8986243 Eh     change       -0.1902725E-05 Eh
 * total energy  :  -120.8986270 Eh     change       -0.2717045E-05 Eh
 * total energy  :  -120.8986294 Eh     change       -0.2401638E-05 Eh
 * total energy  :  -120.8986323 Eh     change       -0.2915712E-05 Eh
 * total energy  :  -120.8986353 Eh     change       -0.3007071E-05 Eh
 * total energy  :  -120.8986372 Eh     change       -0.1898252E-05 Eh
 * total energy  :  -120.8986384 Eh     change       -0.1205000E-05 Eh
 * total energy  :  -120.8986545 Eh     change       -0.7657177E-06 Eh
 * total energy  :  -120.8986550 Eh     change       -0.5318779E-06 Eh
 * total energy  :  -120.8986555 Eh     change       -0.4662955E-06 Eh
 * total energy  :  -120.8986560 Eh     change       -0.5252121E-06 Eh
 * total energy  :  -120.8986566 Eh     change       -0.6320013E-06 Eh
 * total energy  :  -120.8986574 Eh     change       -0.8171698E-06 Eh
 * total energy  :  -120.8986582 Eh     change       -0.7881579E-06 Eh
 * total energy  :  -120.8986589 Eh     change       -0.6411454E-06 Eh
 * total energy  :  -120.8986589 Eh     change       -0.4520899E-08 Eh
   *** GEOMETRY OPTIMIZATION CONVERGED AFTER 44 ITERATIONS ***

 final structure:
================
79
 xtb: 6.7.1 (edcfbbe)
C            9.28812049563744        2.13483546585898        0.10579210193347
C            8.21416010115671        2.44720544891027       -0.71196328961566
C            7.05884580044722        1.69187176532735       -0.66906906453411
C            6.95994184134463        0.60906403425184        0.20518852774265
N            5.79015352694785       -0.15644481057669        0.25501420953167
C            5.86672303195693       -1.54025838473190        0.44251370627870
C            6.90173023872017       -2.27629125302195       -0.13533226147136
C            6.97391515946225       -3.64232988290391        0.05464139377748
C            6.01727844547283       -4.29747874326480        0.81309989441248
C            4.98535546545199       -3.57181013310371        1.38607590513539
C            4.90809157570008       -2.20446892674559        1.20877320417657
C            4.54432900538022        0.46104719929936        0.11651103770698
C            4.31412278956295        1.72999553072898        0.65110058043319
C            3.08291334725740        2.33339425569933        0.51328270050407
C            2.03449723543665        1.69201052115864       -0.14786738786833
C            0.71615908911178        2.31865969083396       -0.27806191478327
C            0.59733161064991        3.70659539348927       -0.48443339738916
C           -0.66617312001974        4.29002889235923       -0.56038138365113
C           -1.79953858381704        3.52831037095595       -0.46955155715034
C           -1.71294095720711        2.10997280207708       -0.31318624414502
C           -2.91308993508059        1.38899037101088       -0.24573133991302
N           -4.10033657279623        1.98880679429847       -0.00798590386288
C           -4.99351834978407        1.03316585496900        0.14013537195651
C           -6.37327724418218        1.17776875219018        0.47298288953749
C           -6.91123736594780        2.43826913426830        0.73361744002825
C           -8.23717644221938        2.57119294641789        1.09469380284022
C           -9.02357172982081        1.43434578176522        1.20371699487807
C           -8.49973902790646        0.18093395230646        0.94069154072079
C           -7.16499692841685        0.00881766958210        0.55743066918116
C           -6.59376239330705       -1.29002672260941        0.23486005679333
C           -7.37398793417535       -2.44226892439235        0.21065975821576
C           -6.86098717484073       -3.67985725607515       -0.13160720201764
C           -5.51674125395033       -3.80014979187693       -0.49287046492262
C           -4.70583110161766       -2.70044134910819       -0.47839612448002
C           -5.19613447597065       -1.42240887227615       -0.09948580470504
C           -4.41078138435347       -0.26931305191086       -0.06658162088350
N           -3.07806538343101       -0.02247865258772       -0.31250152394995
C           -2.07454836601606       -0.92607882673593       -0.67589638192482
C           -1.42363363518999       -0.78139459011524       -1.90269906448101
C           -0.40675523785000       -1.64940961373708       -2.24877356646183
C           -0.02449549285323       -2.66339201446434       -1.38257974165469
C           -0.67058777332518       -2.80897779698727       -0.16360671898093
C           -1.69087646626921       -1.94969669973610        0.19334045095606
C           -0.42092351133759        1.54400264547078       -0.19136983884973
C            2.27351876494207        0.42387041943069       -0.68165536065112
C            3.50440717292703       -0.18087569358254       -0.55886621698728
C            8.04280877667564        0.30094840168042        1.02914601655640
C            9.19618040525669        1.05852098968579        0.97342643421067
H           10.19028520908167        2.72598162714807        0.06730270194554
H            8.27936743116780        3.28090333419728       -1.39538183934121
H            6.22682070929549        1.92933757385493       -1.31558074078190
H            7.64187165960909       -1.76984323311298       -0.73738718571084
H            7.77864834826156       -4.20059732345953       -0.40050004289931
H            6.07577016921415       -5.36559716026072        0.95669317714433
H            4.23860844389327       -4.07309824381605        1.98400723011724
H            4.10933740691290       -1.63949216393202        1.66635024225149
H            5.10683336637545        2.23150810562952        1.18706885136201
H            2.91855392566283        3.30403940882885        0.95690641130644
H            1.48330772783262        4.31278324678562       -0.59155689197780
H           -0.74665968970944        5.35900798893763       -0.69725424411370
H           -2.78250872259150        3.96532145517392       -0.52997097136406
H           -6.25868464967170        3.29321356291949        0.65020874988639
H           -8.65548402666912        3.54584686013098        1.29599932388430
H          -10.06002888957934        1.52276971657348        1.49646696011541
H           -9.15335897123612       -0.67051864401300        1.04334447516526
H           -8.42298421141126       -2.38503931707572        0.45433557267995
H           -7.50288437735083       -4.54763558738548       -0.13526780973413
H           -5.12157856315325       -4.76080619285720       -0.78900493815824
H           -3.67669161291100       -2.79624061195932       -0.78231272117797
H           -1.72153546275207        0.01542119444090       -2.56789080171357
H            0.08952636234911       -1.53716784477348       -3.20182657073900
H            0.77572765553800       -3.33504202902167       -1.65406089339277
H           -0.37129133521582       -3.59324932163279        0.51583918212224
H           -2.19230128198340       -2.05137910889206        1.14490987059910
H           -0.31717356440272        0.49887980108292        0.04822659276697
H            1.48848776373702       -0.08223599772156       -1.22339857498143
H            3.67492361702310       -1.15467683178260       -0.99432234021409
H            7.96874824161773       -0.53047866773023        1.71475197930419
H           10.02626221874731        0.81161904984506        1.61870681835880

 projected vibrational frequencies (cm⁻¹)
eigval :       -0.00    -0.00    -0.00     0.00     0.00     0.00
eigval :        9.22    10.40    15.08    20.54    34.11    37.99
eigval :       41.30    50.15    57.22    59.43    64.56    72.36
eigval :       75.91    83.82    90.80   102.62   107.75   130.40
eigval :      148.59   159.05   191.30   196.72   206.02   215.69
eigval :      223.53   232.19   237.60   254.78   257.17   279.78
eigval :      302.69   310.77   314.04   329.23   362.96   377.33
eigval :      378.90   379.93   382.36   387.33   389.52   396.38
eigval :      397.64   403.93   412.00   418.66   434.84   456.37
eigval :      474.22   479.62   482.88   494.34   507.72   516.74
eigval :      520.01   538.18   580.00   580.90   582.21   586.80
eigval :      592.98   593.39   597.82   613.77   621.33   629.62
eigval :      635.17   643.30   654.79   659.55   660.00   661.95
eigval :      666.36   685.37   688.36   693.38   717.78   722.16
eigval :      745.11   750.61   755.42   757.03   759.13   767.95
eigval :      768.65   815.03   823.37   840.29   840.99   849.10
eigval :      858.25   868.66   872.34   873.56   875.59   887.10
eigval :      890.48   893.17   894.20   907.49   908.88   910.12
eigval :      910.52   913.09   914.48   918.37   918.52   926.18
eigval :      927.47   927.66   927.97   928.98   929.58   930.20
eigval :      935.97   949.82   979.42   983.10   991.63  1004.56
eigval :     1016.62  1041.04  1074.23  1075.71  1080.71  1083.08
eigval :     1083.89  1086.52  1099.54  1116.42  1120.54  1122.21
eigval :     1124.54  1131.01  1145.09  1149.95  1170.16  1174.44
eigval :     1178.45  1178.97  1180.09  1180.20  1183.08  1183.39
eigval :     1186.93  1194.39  1195.95  1202.36  1216.19  1232.52
eigval :     1244.68  1256.31  1263.00  1272.25  1272.91  1274.61
eigval :     1277.32  1278.45  1283.89  1312.49  1317.10  1317.94
eigval :     1319.58  1323.88  1327.17  1327.92  1331.93  1345.06
eigval :     1347.66  1354.39  1376.76  1390.35  1396.02  1408.80
eigval :     1414.74  1429.55  1433.09  1435.36  1440.32  1442.35
eigval :     1468.32  1469.46  1471.17  1473.67  1479.84  1494.64
eigval :     1504.72  1533.81  1543.47  1548.91  1551.12  1552.58
eigval :     1557.01  1567.61  1574.40  1578.32  1582.65  1589.75
eigval :     1590.51  1597.96  3072.13  3073.34  3076.00  3076.28
eigval :     3077.43  3077.90  3078.13  3078.21  3078.88  3079.31
eigval :     3080.65  3086.46  3087.37  3087.41  3088.23  3088.37
eigval :     3090.06  3090.70  3091.13  3091.40  3093.97  3095.03
eigval :     3096.79  3097.64  3098.96  3099.24  3106.39  3108.10
eigval :     3118.54  3121.41  3124.89

   temp. (K)  partition function   enthalpy   heat capacity  entropy
                                   cal/mol     cal/K/mol   cal/K/mol   J/K/mol
 298.15  VIB  0.421E+18            22324.038    142.180    139.502
         ROT  0.886E+08              888.752      2.981     39.347
         INT  0.373E+26            23212.791    145.161    178.849
         TR   0.147E+29             1481.254      4.968     45.106
         TOT                       24694.0445   150.1290   223.9549   937.0274

       T/K    H(0)-H(T)+PV         H(T)/Eh          T*S/Eh         G(T)/Eh
   ------------------------------------------------------------------------
    298.15    0.393525E-01    0.646657E+00    0.106408E+00    0.540249E+00
   ------------------------------------------------------------------------

         :::::::::::::::::::::::::::::::::::::::::::::::::::::
         ::                  THERMODYNAMIC                  ::
         :::::::::::::::::::::::::::::::::::::::::::::::::::::
         :: total free energy        -120.358409860061 Eh   ::
         ::.................................................::
         :: total energy             -120.898658882102 Eh   ::
         :: zero point energy           0.607304769205 Eh   ::
         :: G(RRHO) w/o ZPVE           -0.067055747164 Eh   ::
         :: G(RRHO) contrib.            0.540249022041 Eh   ::
         :::::::::::::::::::::::::::::::::::::::::::::::::::::

           -------------------------------------------------
          | TOTAL ENERGY             -120.898658882102 Eh   |
          | TOTAL ENTHALPY           -120.252001648149 Eh   |
          | TOTAL FREE ENERGY        -120.358409860061 Eh   |
          | GRADIENT NORM               0.000043286799 Eh/α |
           -------------------------------------------------

 * finished run on 2025/09/10 at 11:55:03.545
