   * xtb version 6.7.1 (edcfbbe) compiled by 'albert@albert-system' on 2024-07-22

   ID    Z sym.   atoms
    1    6 C      1-4, 6-21, 23-36, 38-48
    2    7 N      5, 22, 37
    3    1 H      49-79

          program call               : xtb data2507/gas/mTPA-PPI/mTPA-PPI_gas_S0_crest.xyz --gfn 2 --ohess vtight --parallel 40 --molden --ceasefiles --namespace data2507/gas/mTPA-PPI/mTPA-PPI_gas_S0_finalOpt
          :  Hamiltonian                  GFN2-xTB          :
 * total energy  :  -120.9886665 Eh     change       -0.1222205E-08 Eh
 * total energy  :  -120.9886679 Eh     change       -0.1415400E-05 Eh
 * total energy  :  -120.9886693 Eh     change       -0.1406362E-05 Eh
 * total energy  :  -120.9886736 Eh     change       -0.4330922E-05 Eh
 * total energy  :  -120.9886786 Eh     change       -0.5033533E-05 Eh
 * total energy  :  -120.9886810 Eh     change       -0.2338783E-05 Eh
 * total energy  :  -120.9886825 Eh     change       -0.1478721E-05 Eh
 * total energy  :  -120.9886845 Eh     change       -0.2049697E-05 Eh
 * total energy  :  -120.9886877 Eh     change       -0.3209113E-05 Eh
 * total energy  :  -120.9886904 Eh     change       -0.2675973E-05 Eh
 * total energy  :  -120.9886964 Eh     change       -0.1549261E-05 Eh
 * total energy  :  -120.9886977 Eh     change       -0.1289206E-05 Eh
 * total energy  :  -120.9886987 Eh     change       -0.9941255E-06 Eh
 * total energy  :  -120.9886994 Eh     change       -0.6932496E-06 Eh
 * total energy  :  -120.9887001 Eh     change       -0.6523510E-06 Eh
 * total energy  :  -120.9887008 Eh     change       -0.7145146E-06 Eh
 * total energy  :  -120.9887014 Eh     change       -0.6065489E-06 Eh
 * total energy  :  -120.9887020 Eh     change       -0.5550302E-06 Eh
 * total energy  :  -120.9887020 Eh     change       -0.7174165E-08 Eh
   *** GEOMETRY OPTIMIZATION CONVERGED AFTER 22 ITERATIONS ***

 final structure:
================
79
 xtb: 6.7.1 (edcfbbe)
C            7.22628874755837       -3.60485135453389        1.14504017841885
C            6.46789073624769       -2.78650321263639        1.96612781287089
C            5.98897657855192       -1.57745957922983        1.50080025031415
C            6.25708771393739       -1.17124986720459        0.19354947473233
N            5.77404047228811        0.05218303976952       -0.28401821016658
C            6.55822896517109        0.82078964485713       -1.15309924800631
C            7.94113490677639        0.88774932670040       -0.98633113454981
C            8.71030331214893        1.64305493519421       -1.84992300536080
C            8.11735390486978        2.34839940117513       -2.88426705308962
C            6.74351559275216        2.28880210454504       -3.05151184576654
C            5.96666053973415        1.52938046757151       -2.19857177034027
C            4.51600600077606        0.51286259951959        0.11311596706416
C            3.45801984001826       -0.37752817276697        0.30009003261369
C            2.21956148257084        0.08050884560362        0.69611306264754
C            1.99106242092678        1.43816063740711        0.91670353865191
C            0.66903967975754        1.91497404818248        1.34329870841675
C            0.54186739072460        2.93173819276246        2.28759284388808
C           -0.71027934491408        3.37447195157961        2.67556852335419
C           -1.84997032679702        2.79728727502580        2.15071014537116
C           -1.74333132936906        1.76168266740628        1.22181413660311
C           -2.96952760663607        1.17630097915125        0.70313028015761
N           -4.06739514457948        1.86235493131363        0.50964632387292
C           -4.97983398610599        0.98242126343824        0.02186226360747
C           -6.31908669119315        1.24686197681394       -0.37833241860847
C           -6.85386023757242        2.53755207128352       -0.30948594686792
C           -8.13935869134728        2.77798585740227       -0.72520134342490
C           -8.90638945549619        1.72509133183521       -1.22022681943782
C           -8.39201337601374        0.45148025375419       -1.28798216356747
C           -7.08512665751794        0.16333098838736       -0.86524587783524
C           -6.52319400397271       -1.17603229268784       -0.89453526300001
C           -7.28041129560788       -2.28117664003094       -1.30826623174799
C           -6.77213591200065       -3.55838975391691       -1.30203535287719
C           -5.47357036581975       -3.79044672296040       -0.86045251739529
C           -4.69553780741124       -2.73502872716907       -0.45341159643932
C           -5.18530100104136       -1.42123740499567       -0.47813323836043
C           -4.42133748570397       -0.29142008285910       -0.07108837143049
N           -3.12170943231543       -0.15119240437082        0.36171870901911
C           -2.11581006924730       -1.13206976960718        0.46631034862552
C           -1.59726446301416       -1.72682295454220       -0.68066606591395
C           -0.58009131240353       -2.65653986582711       -0.56974748377724
C           -0.07521761532102       -2.99219667757349        0.67669639494673
C           -0.59213186787487       -2.39866988626509        1.81675167004751
C           -1.61133215033324       -1.46851638199778        1.71697960380448
C           -0.48229602635832        1.34534627251882        0.80914916497891
C            3.05051378755328        2.32339359136506        0.72568344022059
C            4.29247129187248        1.87286942523106        0.33147992287575
C            7.01707249360091       -2.00137090803623       -0.63044642167326
C            7.49904482337313       -3.20439911874789       -0.15276924945401
H            7.60262544452121       -4.54688624164626        1.51393575249029
H            6.25519334786946       -3.08712318661669        2.98165650850285
H            5.40771973727270       -0.93627570495497        2.14731563702253
H            8.40494052313658        0.34661534535383       -0.17453010715815
H            9.78016190985452        1.68793335691631       -1.70827772211222
H            8.72145894195223        2.94021984503840       -3.55498800379508
H            6.27280045220077        2.83127122453569       -3.85827152941649
H            4.89657632500571        1.47674959367680       -2.33681577278132
H            3.61525859342834       -1.43287877275336        0.13108082906432
H            1.41883089951167       -0.62808420544110        0.84978269563566
H            1.42768909697496        3.36696318550930        2.72617908355417
H           -0.79672461482974        4.17077987274928        3.40036415072435
H           -2.83252589687604        3.12971665026143        2.44570489427195
H           -6.22243879927805        3.32484541958205        0.07201591790943
H           -8.55635432300815        3.77304970887020       -0.67531404515152
H           -9.91704161087430        1.91041500461412       -1.55480646410114
H           -9.02274793117045       -0.33024682072808       -1.68074630550792
H           -8.29761666594727       -2.14120812111025       -1.63657718378004
H           -7.38649057788524       -4.38451750429810       -1.62874530663527
H           -5.07949571812768       -4.79569396973826       -0.83352178660940
H           -3.69591765532554       -2.92279034805555       -0.09480133865630
H           -1.99635698416128       -1.45459901380978       -1.64699683558952
H           -0.17589771924474       -3.11516804812524       -1.45958708314580
H            0.72375985697848       -3.71362664637690        0.75833904985371
H           -0.19893830453195       -2.65805841402870        2.78818620763663
H           -2.01705875547887       -0.99534615382079        2.59871336747399
H           -0.38235775057069        0.59853533606534        0.03664801086860
H            2.89514202011042        3.38158117624740        0.87573670789773
H            5.10306059294935        2.57307762902364        0.19174289178127
H            7.22381075487414       -1.69616346335191       -1.64583937295370
H            8.08565398312717       -3.83765936212646       -0.80208981122844

          :  Hamiltonian                  GFN2-xTB          :
         :: gradient norm              0.000061982353 Eh/a0 ::
         :: HOMO-LUMO gap              2.502516174882 eV    ::
         :: SCC energy              -123.280254549742 Eh    ::
         :: -> dispersion             -0.113370844436 Eh    ::
         :: repulsion energy           2.291552589832 Eh    ::

    * Orbital Energies and Occupations

         #    Occupation            Energy/Eh            Energy/eV
      -------------------------------------------------------------
         1        2.0000           -0.6838685             -18.6090
       ...           ...                  ...                  ...
       101        2.0000           -0.4119177             -11.2089
       102        2.0000           -0.4097278             -11.1493
       103        2.0000           -0.4088244             -11.1247
       104        2.0000           -0.4058419             -11.0435
       105        2.0000           -0.4054823             -11.0337
       106        2.0000           -0.4046887             -11.0121
       107        2.0000           -0.4021717             -10.9436
       108        2.0000           -0.3948624             -10.7448
       109        2.0000           -0.3909624             -10.6386
       110        2.0000           -0.3776524             -10.2764
       111        2.0000           -0.3729703             -10.1490
       112        2.0000           -0.3602014              -9.8016
       113        2.0000           -0.3498586              -9.5201 (HOMO)
       114                         -0.2578928              -7.0176 (LUMO)
       115                         -0.2478648              -6.7447
       116                         -0.2466706              -6.7122
       117                         -0.2419416              -6.5836
       118                         -0.2396206              -6.5204
       119                         -0.2356782              -6.4131
       120                         -0.2316843              -6.3045
       121                         -0.2286229              -6.2211
       122                         -0.2230646              -6.0699
       123                         -0.2227824              -6.0622
       124                         -0.2142375              -5.8297
       ...                                ...                  ...
       223                          0.7317955              19.9132
      -------------------------------------------------------------
                  HL-Gap            0.0919658 Eh            2.5025 eV

     #   Z          covCN         q      C6AA      α(0)
     1   6 C        2.919    -0.039    28.963     8.825
     2   6 C        2.920    -0.030    28.738     8.791
     3   6 C        2.922    -0.048    29.190     8.860
     4   6 C        2.924     0.065    26.541     8.449
     5   7 N        2.752    -0.075    22.699     7.076
     6   6 C        2.924     0.065    26.545     8.449
     7   6 C        2.922    -0.047    29.176     8.858
     8   6 C        2.920    -0.029    28.729     8.790
     9   6 C        2.919    -0.038    28.948     8.823
    10   6 C        2.920    -0.029    28.728     8.789
    11   6 C        2.922    -0.047    29.176     8.858
    12   6 C        2.924     0.064    26.569     8.453
    13   6 C        2.921    -0.049    29.214     8.863
    14   6 C        2.924    -0.035    28.873     8.812
    15   6 C        2.976     0.001    28.009     8.681
    16   6 C        2.975     0.010    27.781     8.646
    17   6 C        2.924    -0.035    28.871     8.812
    18   6 C        2.917    -0.029    28.716     8.787
    19   6 C        2.928    -0.030    28.760     8.795
    20   6 C        2.972     0.002    27.984     8.677
    21   6 C        3.192     0.127    24.752     8.113
    22   7 N        1.895    -0.291    28.380     7.898
    23   6 C        3.208     0.057    26.133     8.324
    24   6 C        2.986     0.003    27.955     8.673
    25   6 C        2.922    -0.031    28.778     8.797
    26   6 C        2.917    -0.030    28.758     8.794
    27   6 C        2.917    -0.033    28.824     8.804
    28   6 C        2.922    -0.035    28.869     8.811
    29   6 C        2.979    -0.002    28.062     8.689
    30   6 C        2.980     0.002    27.979     8.677
    31   6 C        2.922    -0.034    28.842     8.807
    32   6 C        2.916    -0.034    28.836     8.806
    33   6 C        2.917    -0.032    28.798     8.800
    34   6 C        2.919    -0.040    29.003     8.831
    35   6 C        2.978    -0.002    28.069     8.691
    36   6 C        3.073     0.020    27.494     8.597
    37   7 N        2.841    -0.047    22.140     6.988
    38   6 C        2.913     0.070    26.427     8.430
    39   6 C        2.921    -0.036    28.898     8.815
    40   6 C        2.920    -0.027    28.664     8.780
    41   6 C        2.919    -0.029    28.732     8.790
    42   6 C        2.920    -0.025    28.634     8.775
    43   6 C        2.922    -0.037    28.925     8.820
    44   6 C        2.929    -0.041    29.013     8.833
    45   6 C        2.924    -0.034    28.841     8.807
    46   6 C        2.921    -0.049    29.212     8.863
    47   6 C        2.922    -0.048    29.186     8.859
    48   6 C        2.920    -0.029    28.733     8.790
    49   1 H        0.926     0.030     2.586     2.515
    50   1 H        0.926     0.031     2.573     2.508
    51   1 H        0.926     0.031     2.569     2.507
    52   1 H        0.926     0.032     2.562     2.503
    53   1 H        0.926     0.032     2.561     2.503
    54   1 H        0.926     0.031     2.577     2.510
    55   1 H        0.926     0.032     2.559     2.501
    56   1 H        0.926     0.032     2.564     2.504
    57   1 H        0.926     0.031     2.577     2.510
    58   1 H        0.926     0.029     2.598     2.520
    59   1 H        0.926     0.034     2.529     2.487
    60   1 H        0.926     0.035     2.512     2.479
    61   1 H        0.926     0.051     2.306     2.375
    62   1 H        0.926     0.050     2.316     2.380
    63   1 H        0.926     0.030     2.593     2.518
    64   1 H        0.926     0.027     2.625     2.534
    65   1 H        0.926     0.030     2.587     2.515
    66   1 H        0.926     0.034     2.532     2.488
    67   1 H        0.926     0.028     2.616     2.529
    68   1 H        0.926     0.026     2.643     2.542
    69   1 H        0.926     0.025     2.663     2.552
    70   1 H        0.926     0.043     2.415     2.430
    71   1 H        0.926     0.040     2.449     2.447
    72   1 H        0.926     0.039     2.467     2.456
    73   1 H        0.926     0.040     2.451     2.448
    74   1 H        0.926     0.040     2.450     2.448
    75   1 H        0.926     0.028     2.613     2.528
    76   1 H        0.926     0.035     2.514     2.480
    77   1 H        0.926     0.033     2.543     2.494
    78   1 H        0.926     0.032     2.564     2.504
    79   1 H        0.926     0.031     2.566     2.505

molecular dipole:
                 x           y           z       tot (Debye)
 q only:        1.002      -0.544       0.147
   full:        1.100      -0.991       0.079       3.770

 projected vibrational frequencies (cm⁻¹)
eigval :       -0.00    -0.00    -0.00     0.00     0.00     0.00
eigval :        8.27    10.38    17.05    25.00    29.82    40.15
eigval :       41.51    51.38    56.09    58.03    66.00    70.00
eigval :       81.18    81.51    91.43   103.05   106.06   131.20
eigval :      144.87   165.39   191.39   196.64   213.11   218.27
eigval :      233.65   236.61   240.79   260.68   267.42   278.10
eigval :      294.90   312.09   337.24   344.56   366.82   374.48
eigval :      376.40   378.21   378.70   387.58   392.73   398.30
eigval :      403.83   428.10   435.53   442.13   442.54   475.50
eigval :      479.27   484.94   492.57   512.33   517.62   521.65
eigval :      535.19   567.85   582.29   584.78   586.25   590.91
eigval :      595.99   596.73   613.61   634.99   638.56   647.76
eigval :      655.23   659.86   664.29   665.71   671.79   680.20
eigval :      686.45   689.72   693.79   703.27   726.40   735.40
eigval :      757.14   758.60   762.11   766.34   774.58   782.50
eigval :      793.47   820.79   828.09   862.29   871.52   874.71
eigval :      874.78   875.66   876.73   890.45   892.25   893.43
eigval :      899.13   901.95   907.40   910.00   914.20   917.81
eigval :      919.01   923.78   927.25   927.30   927.71   928.82
eigval :      929.14   929.21   929.81   931.70   932.83   939.33
eigval :      955.10   976.48   987.01  1005.02  1011.29  1018.57
eigval :     1029.89  1069.05  1078.81  1083.32  1084.31  1085.87
eigval :     1093.64  1108.43  1114.81  1121.96  1124.25  1125.69
eigval :     1134.70  1145.33  1152.79  1172.84  1180.31  1180.71
eigval :     1180.80  1182.97  1185.32  1186.32  1187.71  1189.06
eigval :     1195.83  1199.13  1210.51  1218.09  1253.03  1257.79
eigval :     1261.53  1272.98  1275.49  1278.41  1279.21  1283.83
eigval :     1284.95  1308.76  1312.30  1314.44  1320.06  1323.46
eigval :     1326.84  1326.95  1329.13  1337.99  1339.56  1349.42
eigval :     1374.91  1400.08  1408.72  1419.20  1421.03  1431.13
eigval :     1433.99  1436.61  1438.54  1443.27  1458.37  1472.37
eigval :     1476.76  1479.56  1498.28  1513.58  1514.77  1545.44
eigval :     1556.95  1562.30  1568.00  1573.05  1577.34  1581.20
eigval :     1581.37  1588.76  1593.37  1595.13  1595.23  1598.03
eigval :     1603.28  1605.14  3071.56  3074.95  3075.34  3075.92
eigval :     3076.14  3076.63  3077.23  3078.69  3080.12  3082.60
eigval :     3083.16  3084.63  3085.53  3085.90  3086.68  3087.89
eigval :     3088.80  3089.67  3090.67  3090.98  3092.01  3096.23
eigval :     3096.53  3097.19  3097.85  3099.81  3101.99  3104.97
eigval :     3109.73  3110.53  3113.35

   temp. (K)  partition function   enthalpy   heat capacity  entropy
                                   cal/mol     cal/K/mol   cal/K/mol   J/K/mol
 298.15  VIB  0.259E+18            21985.318    139.937    137.562
         ROT  0.911E+08              888.752      2.981     39.402
         INT  0.236E+26            22874.070    142.918    176.964
         TR   0.147E+29             1481.254      4.968     45.106
         TOT                       24355.3242   147.8861   222.0702   929.1418

       T/K    H(0)-H(T)+PV         H(T)/Eh          T*S/Eh         G(T)/Eh
   ------------------------------------------------------------------------
    298.15    0.388127E-01    0.651123E+00    0.105513E+00    0.545610E+00
   ------------------------------------------------------------------------

         :::::::::::::::::::::::::::::::::::::::::::::::::::::
         ::                  THERMODYNAMIC                  ::
         :::::::::::::::::::::::::::::::::::::::::::::::::::::
         :: total free energy        -120.443092058999 Eh   ::
         ::.................................................::
         :: total energy             -120.988701959910 Eh   ::
         :: zero point energy           0.612309950349 Eh   ::
         :: G(RRHO) w/o ZPVE           -0.066700049438 Eh   ::
         :: G(RRHO) contrib.            0.545609900911 Eh   ::
         :::::::::::::::::::::::::::::::::::::::::::::::::::::

           -------------------------------------------------
          | TOTAL ENERGY             -120.988701959910 Eh   |
          | TOTAL ENTHALPY           -120.337579329902 Eh   |
          | TOTAL FREE ENERGY        -120.443092058999 Eh   |
          | GRADIENT NORM               0.000061988140 Eh/α |
          | HOMO-LUMO GAP               2.502516351149 eV   |
           -------------------------------------------------

 * finished run on 2025/09/10 at 11:45:01.012
