   * xtb version 6.7.1 (edcfbbe) compiled by 'albert@albert-system' on 2024-07-22

   ID    Z sym.   atoms
    1    6 C      1-4, 6-15, 17-29, 33-35
    2    7 N      5, 16, 30, 32
    3   16 S      31
    4    1 H      36-57

          program call               : xtb data2507/gas/BTZ–DPA/BTZ–DPA.xyz --gfn 2 --ohess vtight --parallel 40 --molden --ceasefiles --namespace data2507/gas/BTZ–DPA/BTZ–DPA_gas_S0_preOpt
          :  Hamiltonian                  GFN2-xTB          :
 * total energy  :   -90.3744699 Eh     change       -0.3250349E-08 Eh
 * total energy  :   -90.3916928 Eh     change       -0.1722285E-01 Eh
 * total energy  :   -90.4002798 Eh     change       -0.8586985E-02 Eh
 * total energy  :   -90.4038918 Eh     change       -0.3611975E-02 Eh
 * total energy  :   -90.4054960 Eh     change       -0.1604226E-02 Eh
 * total energy  :   -90.4060213 Eh     change       -0.5252720E-03 Eh
 * total energy  :   -90.4063057 Eh     change       -0.2844603E-03 Eh
 * total energy  :   -90.4065673 Eh     change       -0.2615458E-03 Eh
 * total energy  :   -90.4068198 Eh     change       -0.2525255E-03 Eh
 * total energy  :   -90.4070106 Eh     change       -0.1908575E-03 Eh
 * total energy  :   -90.4075474 Eh     change       -0.1351385E-05 Eh
 * total energy  :   -90.4075483 Eh     change       -0.8871449E-06 Eh
 * total energy  :   -90.4075490 Eh     change       -0.6805561E-06 Eh
 * total energy  :   -90.4075498 Eh     change       -0.8282340E-06 Eh
 * total energy  :   -90.4075506 Eh     change       -0.7704700E-06 Eh
 * total energy  :   -90.4075510 Eh     change       -0.4149576E-06 Eh
 * total energy  :   -90.4075512 Eh     change       -0.2478603E-06 Eh
 * total energy  :   -90.4075514 Eh     change       -0.2019288E-06 Eh
 * total energy  :   -90.4075515 Eh     change       -0.3790738E-07 Eh
   *** GEOMETRY OPTIMIZATION CONVERGED AFTER 38 ITERATIONS ***

 final structure:
================
57
 xtb: 6.7.1 (edcfbbe)
C            4.85403259822885        3.58492400370248       -0.01600474782768
C            5.32537557526333        2.51720483307565       -0.76183421787645
C            4.66248803810703        1.30568993927837       -0.74521639505874
C            3.51652030268930        1.14697771827154        0.02994525412829
N            2.83449390769633       -0.07796546395559        0.05142667168382
C            3.54843417867800       -1.27924009768589        0.06903658772445
C            3.07277866299173       -2.40234039482527       -0.60800384585648
C            3.78684776967022       -3.58408083101408       -0.58441512631194
C            4.98545376966349       -3.66732563779228        0.10534889257073
C            5.46528446021998       -2.55375761834995        0.77516288450879
C            4.75528724016479       -1.36915293869430        0.76326075340374
C            1.44391565517638       -0.07754596540512        0.05492193955998
C            0.69871763456373       -1.00897613338586        0.75182633122385
C           -0.69879602856589       -1.00866350097951        0.75221907501589
C           -1.44397030673777       -0.07720899267055        0.05533253799084
N           -2.83456533228479       -0.07765423319469        0.05181664929989
C           -3.51651015151677        1.14731629989714        0.03041564794012
C           -4.66245510230979        1.30620401049242       -0.74474946989577
C           -5.32522295080467        2.51778361211853       -0.76126359916380
C           -4.85376686464331        3.58539309016162       -0.01534330732787
C           -3.71448813023633        3.43083631649486        0.75679074500562
C           -3.05162888428460        2.21988392705494        0.78817515681465
C           -3.54852358069529       -1.27893205989297        0.06883165361093
C           -3.07277580323599       -2.40181575667453       -0.60851634103967
C           -3.78685479350166       -3.58356350630356       -0.58544964330144
C           -4.98554650416641       -3.66705000277228        0.10412386265940
C           -5.46548870832726       -2.55369672724121        0.77420900313051
C           -4.75551364293183       -1.36907738877452        0.76278960751754
C           -0.72034819934108        0.89099858789510       -0.68481261023129
N           -1.21644309353569        1.84793244461693       -1.46768588498074
S           -0.00004127483012        2.66308473455068       -2.13203043520619
N            1.21639371741677        1.84756970498494       -1.46808954620534
C            0.72029701207679        0.89071496918139       -0.68515675291361
C            3.05178488435344        2.21964753795797        0.78766157221428
C            3.71476912307299        3.43053152252120        0.75618656415562
H            5.37167908827504        4.53210307225723       -0.03622999440269
H            6.21099978872905        2.63146196073739       -1.36960647754420
H            5.02230541167771        0.47690481469267       -1.33707522999177
H            2.14544499803718       -2.33781025928604       -1.15799787335291
H            3.40833158991990       -4.44460844729332       -1.11639628152899
H            5.54129753206163       -4.59243053483295        0.11981449712940
H            6.39688931499018       -2.60964425220532        1.31888768232705
H            5.12749874652189       -0.50505014068642        1.29366820996962
H            1.21488435863803       -1.76200958455269        1.32840923081888
H           -1.21498367991965       -1.76179353260127        1.32867632253521
H           -5.02235004527274        0.47750569967023       -1.33668443164765
H           -6.21089979710934        2.63213814073415       -1.36893727098404
H           -5.37139087732819        4.53258526472894       -0.03537677355186
H           -3.34453253485622        4.25697292867540        1.34644565249515
H           -2.17067254138660        2.09520126131131        1.40153723009500
H           -2.14533344195850       -2.33711894562238       -1.15831019351803
H           -3.40825027554643       -4.44391434842913       -1.11765790459373
H           -5.54146446235877       -4.59212821355590        0.11809480766686
H           -6.39726904871372       -2.60972181972891        1.31763223994357
H           -5.12784927816214       -0.50514522028840        1.29338424381165
H            2.17085952669506        2.09508088924251        1.40108734929266
H            3.34486944898438        4.25677326440108        1.34572649806780

          :  Hamiltonian                  GFN2-xTB          :
         :: gradient norm              0.000151850727 Eh/a0 ::
         :: HOMO-LUMO gap              1.139448785400 eV    ::
         :: SCC energy               -91.995400246814 Eh    ::
         :: -> dispersion             -0.082407697424 Eh    ::
         :: repulsion energy           1.587848761058 Eh    ::

    * Orbital Energies and Occupations

         #    Occupation            Energy/Eh            Energy/eV
      -------------------------------------------------------------
         1        2.0000           -0.7554607             -20.5571
       ...           ...                  ...                  ...
        72        2.0000           -0.4194361             -11.4134
        73        2.0000           -0.4159768             -11.3193
        74        2.0000           -0.4091306             -11.1330
        75        2.0000           -0.4082771             -11.1098
        76        2.0000           -0.4065727             -11.0634
        77        2.0000           -0.4054443             -11.0327
        78        2.0000           -0.4039589             -10.9923
        79        2.0000           -0.4028855             -10.9631
        80        2.0000           -0.4012330             -10.9181
        81        2.0000           -0.4009758             -10.9111
        82        2.0000           -0.3952289             -10.7547
        83        2.0000           -0.3632246              -9.8838
        84        2.0000           -0.3389993              -9.2246 (HOMO)
        85                         -0.2971253              -8.0852 (LUMO)
        86                         -0.2289887              -6.2311
        87                         -0.2284651              -6.2169
        88                         -0.2252255              -6.1287
        89                         -0.2250404              -6.1237
        90                         -0.2239138              -6.0930
        91                         -0.2194055              -5.9703
        92                         -0.2190660              -5.9611
        93                         -0.2156406              -5.8679
        94                         -0.2107079              -5.7337
        95                         -0.2027983              -5.5184
       ...                                ...                  ...
       167                          0.7286496              19.8276
      -------------------------------------------------------------
                  HL-Gap            0.0418740 Eh            1.1394 eV

     #   Z          covCN         q      C6AA      α(0)
     1   6 C        2.919    -0.036    28.900     8.816
     2   6 C        2.920    -0.028    28.699     8.785
     3   6 C        2.922    -0.042    29.043     8.838
     4   6 C        2.928     0.071    26.421     8.430
     5   7 N        2.752    -0.062    22.436     7.035
     6   6 C        2.923     0.065    26.554     8.451
     7   6 C        2.922    -0.047    29.172     8.857
     8   6 C        2.920    -0.029    28.726     8.789
     9   6 C        2.919    -0.038    28.956     8.824
    10   6 C        2.919    -0.029    28.720     8.788
    11   6 C        2.923    -0.048    29.181     8.859
    12   6 C        2.914     0.043    27.037     8.527
    13   6 C        2.921    -0.057    29.426     8.896
    14   6 C        2.921    -0.057    29.426     8.896
    15   6 C        2.914     0.043    27.038     8.527
    16   7 N        2.752    -0.062    22.436     7.035
    17   6 C        2.928     0.071    26.421     8.430
    18   6 C        2.922    -0.042    29.043     8.838
    19   6 C        2.920    -0.028    28.699     8.785
    20   6 C        2.920    -0.036    28.900     8.816
    21   6 C        2.920    -0.028    28.695     8.784
    22   6 C        2.923    -0.040    29.000     8.831
    23   6 C        2.923     0.065    26.554     8.451
    24   6 C        2.922    -0.047    29.172     8.857
    25   6 C        2.920    -0.029    28.726     8.789
    26   6 C        2.919    -0.038    28.956     8.824
    27   6 C        2.919    -0.029    28.720     8.788
    28   6 C        2.923    -0.048    29.180     8.859
    29   6 C        3.345     0.064    24.045     7.741
    30   7 N        1.853    -0.272    27.910     7.830
    31  16 S        2.670     0.319   128.712    19.095
    32   7 N        1.853    -0.272    27.910     7.830
    33   6 C        3.345     0.064    24.045     7.741
    34   6 C        2.923    -0.040    29.000     8.831
    35   6 C        2.920    -0.028    28.695     8.784
    36   1 H        0.926     0.031     2.566     2.505
    37   1 H        0.926     0.033     2.543     2.494
    38   1 H        0.926     0.034     2.528     2.487
    39   1 H        0.926     0.030     2.583     2.514
    40   1 H        0.926     0.032     2.556     2.500
    41   1 H        0.926     0.031     2.574     2.509
    42   1 H        0.926     0.032     2.553     2.499
    43   1 H        0.926     0.033     2.548     2.496
    44   1 H        0.926     0.040     2.455     2.450
    45   1 H        0.926     0.040     2.455     2.450
    46   1 H        0.926     0.034     2.529     2.487
    47   1 H        0.926     0.033     2.543     2.494
    48   1 H        0.926     0.031     2.566     2.505
    49   1 H        0.926     0.032     2.563     2.503
    50   1 H        0.926     0.027     2.632     2.537
    51   1 H        0.926     0.030     2.584     2.514
    52   1 H        0.926     0.032     2.556     2.500
    53   1 H        0.926     0.031     2.574     2.509
    54   1 H        0.926     0.032     2.553     2.499
    55   1 H        0.926     0.033     2.548     2.496
    56   1 H        0.926     0.027     2.632     2.537
    57   1 H        0.926     0.032     2.563     2.503

molecular dipole:
                 x           y           z       tot (Debye)
 q only:        0.000       0.022       0.075
   full:        0.000      -0.221       0.237       0.824

 projected vibrational frequencies (cm⁻¹)
eigval :       -0.00    -0.00    -0.00    -0.00     0.00     0.00
eigval :       15.00    19.28    29.42    35.87    40.13    55.21
eigval :       59.96    60.85    66.84    73.78    85.05    85.82
eigval :      157.51   158.42   170.70   185.69   190.23   210.39
eigval :      229.14   238.70   242.51   266.38   304.54   314.55
eigval :      338.17   365.92   378.11   378.32   384.02   384.21
eigval :      389.62   409.97   464.60   469.75   477.40   484.30
eigval :      488.88   506.74   525.86   545.35   566.13   569.21
eigval :      585.90   587.43   590.03   591.44   611.64   630.43
eigval :      631.61   658.81   660.27   660.99   666.76   681.63
eigval :      719.57   728.93   756.53   756.69   757.92   760.59
eigval :      834.36   845.74   852.46   872.53   873.15   873.91
eigval :      874.88   875.40   890.88   891.63   893.43   893.75
eigval :      902.01   904.37   908.30   911.71   926.43   926.56
eigval :      927.75   928.06   928.10   928.23   928.63   928.65
eigval :      979.69   982.20  1004.56  1006.14  1075.20  1082.93
eigval :     1083.58  1084.06  1084.28  1114.74  1121.79  1122.61
eigval :     1124.55  1125.61  1180.52  1180.76  1181.07  1181.27
eigval :     1184.73  1192.42  1194.91  1195.26  1207.88  1218.71
eigval :     1271.46  1276.28  1278.33  1279.57  1284.62  1293.62
eigval :     1303.73  1318.56  1321.82  1322.39  1325.04  1328.63
eigval :     1328.95  1355.16  1356.05  1384.49  1435.72  1436.93
eigval :     1443.71  1444.27  1470.62  1473.96  1475.18  1476.16
eigval :     1489.46  1548.44  1555.03  1577.22  1577.80  1583.54
eigval :     1583.55  1594.44  1595.04  1598.76  1600.12  3071.46
eigval :     3071.76  3075.76  3075.80  3076.06  3076.27  3077.60
eigval :     3077.67  3081.97  3082.36  3086.50  3087.21  3087.63
eigval :     3088.23  3088.60  3090.38  3090.52  3095.56  3095.76
eigval :     3097.75  3097.95  3098.85

   temp. (K)  partition function   enthalpy   heat capacity  entropy
                                   cal/mol     cal/K/mol   cal/K/mol   J/K/mol
 298.15  VIB  0.219E+13            16090.202    102.006    100.178
         ROT  0.305E+08              888.752      2.981     37.231
         INT  0.669E+20            16978.955    104.987    137.408
         TR   0.988E+28             1481.254      4.968     44.315
         TOT                       18460.2085   109.9547   181.7228   760.3283

       T/K    H(0)-H(T)+PV         H(T)/Eh          T*S/Eh         G(T)/Eh
   ------------------------------------------------------------------------
    298.15    0.294182E-01    0.461701E+00    0.863424E-01    0.375359E+00
   ------------------------------------------------------------------------

         :::::::::::::::::::::::::::::::::::::::::::::::::::::
         ::                  THERMODYNAMIC                  ::
         :::::::::::::::::::::::::::::::::::::::::::::::::::::
         :: total free energy         -90.032192430582 Eh   ::
         ::.................................................::
         :: total energy              -90.407551485816 Eh   ::
         :: zero point energy           0.432283221652 Eh   ::
         :: G(RRHO) w/o ZPVE           -0.056924166418 Eh   ::
         :: G(RRHO) contrib.            0.375359055234 Eh   ::
         :::::::::::::::::::::::::::::::::::::::::::::::::::::

           -------------------------------------------------
          | TOTAL ENERGY              -90.407551485816 Eh   |
          | TOTAL ENTHALPY            -89.945850049358 Eh   |
          | TOTAL FREE ENERGY         -90.032192430582 Eh   |
          | GRADIENT NORM               0.000151931017 Eh/α |
          | HOMO-LUMO GAP               1.139449248661 eV   |
           -------------------------------------------------

 * finished run on 2025/09/04 at 05:30:29.703
