   * xtb version 6.7.1 (edcfbbe) compiled by 'albert@albert-system' on 2024-07-22

   ID    Z sym.   atoms
    1    6 C      1-4, 6-15, 17-29, 33-35
    2    7 N      5, 16, 30, 32
    3   16 S      31
    4    1 H      36-57

          program call               : xtb data2507/gas/BTZ–DPA/BTZ–DPA_gas_S0_finalOpt.xtbopt.xyz --gfn 2 --spinpol --tblite --uhf 2 --ohess vtight --parallel 40 --molden --ceasefiles --namespace data2507/gas/BTZ–DPA/BTZ–DPA_gas_T1_preOpt
 * total energy  :   -90.3500384 Eh     change        0.4064022E-07 Eh
 * total energy  :   -90.3545678 Eh     change       -0.4529428E-02 Eh
 * total energy  :   -90.3561263 Eh     change       -0.1558525E-02 Eh
 * total energy  :   -90.3563103 Eh     change       -0.1839837E-03 Eh
 * total energy  :   -90.3563841 Eh     change       -0.7379600E-04 Eh
 * total energy  :   -90.3564084 Eh     change       -0.2431940E-04 Eh
 * total energy  :   -90.3564328 Eh     change       -0.2438708E-04 Eh
 * total energy  :   -90.3564471 Eh     change       -0.1433014E-04 Eh
 * total energy  :   -90.3564705 Eh     change       -0.2332179E-04 Eh
 * total energy  :   -90.3564845 Eh     change       -0.1406842E-04 Eh
 * total energy  :   -90.3565472 Eh     change       -0.4670749E-06 Eh
 * total energy  :   -90.3565477 Eh     change       -0.4693145E-06 Eh
 * total energy  :   -90.3565482 Eh     change       -0.5412037E-06 Eh
 * total energy  :   -90.3565488 Eh     change       -0.5540055E-06 Eh
 * total energy  :   -90.3565494 Eh     change       -0.6001547E-06 Eh
 * total energy  :   -90.3565499 Eh     change       -0.5593489E-06 Eh
 * total energy  :   -90.3565504 Eh     change       -0.4573195E-06 Eh
 * total energy  :   -90.3565508 Eh     change       -0.3730676E-06 Eh
 * total energy  :   -90.3565508 Eh     change       -0.6856283E-08 Eh
   *** GEOMETRY OPTIMIZATION CONVERGED AFTER 44 ITERATIONS ***

 final structure:
================
57
 xtb: 6.7.1 (edcfbbe)
C            4.91710120794556        3.28141782260139        0.47074751587193
C            5.34496287184169        2.28903030898693       -0.39618910409456
C            4.65422232159366        1.09672586598095       -0.48708415827697
C            3.52249566461042        0.88667614468120        0.29719275988681
N            2.81086449330313       -0.31862512013719        0.20868781148836
C            3.50569775157717       -1.52214621776668        0.10358310961941
C            3.00490598536818       -2.56778277820661       -0.67639212922831
C            3.69639027008130       -3.75904505236775       -0.76685021036864
C            4.89475809257739       -3.92888795980471       -0.09136059810273
C            5.40017070700689       -2.89204301831167        0.67837545341763
C            4.71552890294599       -1.69821009294037        0.78042845470428
C            1.43200059594166       -0.29427519862307        0.19895350776283
C            0.68016766363927       -1.35716692632073        0.77682017743253
C           -0.68148529606832       -1.35677973150819        0.77677014502223
C           -1.43267252758951       -0.29343229078074        0.19889643038198
N           -2.81156497935069       -0.31702476218836        0.20850579116802
C           -3.52250898606895        0.88866516900496        0.29726986552276
C           -4.65400996189240        1.09964247243793       -0.48708574179754
C           -5.34402939601393        2.29234314434322       -0.39592924391918
C           -4.91567653126025        3.28421430320282        0.47135894293456
C           -3.79272868850548        3.07455853546472        1.25571903613257
C           -3.09941338509525        1.88415881181357        1.17631885371997
C           -3.50701035514904       -1.52013630931439        0.10272122106949
C           -3.00653092087796       -2.56570360576103       -0.67755138635993
C           -3.69862778982337       -3.75655198065836       -0.76876311814753
C           -4.89730128491521       -3.92604801419730       -0.09372952361172
C           -5.40238546201508       -2.88927969487514        0.67632637600091
C           -4.71713501169305       -1.69586117148133        0.77912899270425
C           -0.71965759968263        0.78774329238383       -0.36006447280904
N           -1.24018844966412        1.84395419458650       -0.97685995758092
S            0.00058941778167        2.78672961584876       -1.53207149129646
N            1.24079741452315        1.84315733425495       -0.97692955881609
C            0.71963200358652        0.78729195524879       -0.36008326630815
C            3.09989824452455        1.88268020591805        1.17590111362866
C            3.79393019759763        3.07268122979023        1.25503068687278
H            5.45529663231789        4.21509600837336        0.53323352882564
H            6.21604099705550        2.44890953723592       -1.01417312152191
H            4.97351787819305        0.32924279138450       -1.17690070477853
H            2.08405764569897       -2.42599950303905       -1.22216343843489
H            3.30251476532394       -4.55790789287011       -1.37751125923563
H            5.43308239679522       -4.86117640272667       -0.16674676943853
H            6.33200131083780       -3.01817257307251        1.20929825601319
H            5.10281615053323       -0.89570485921636        1.39064564375211
H            1.21968239413920       -2.15569367344629        1.26329589061152
H           -1.22150740658139       -2.15500861284925        1.26317323917635
H           -4.97368696104571        0.33256027612180       -1.17717182259164
H           -6.21492451712793        2.45294183818147       -1.01398257871350
H           -5.45330470500294        4.21820356664319        0.53404631932662
H           -3.45778132014880        3.84283426751114        1.93664801902366
H           -2.23122767963496        1.71166983402740        1.79503224578914
H           -2.08543420915948       -2.42416946340281       -1.22296618680834
H           -3.30498950431136       -4.55534820867550       -1.37966203559913
H           -5.43611827259758       -4.85800176597686       -0.16972639864789
H           -6.33445604202795       -3.01514504705961        1.20689162882918
H           -5.10418200005817       -0.89341783865001        1.38958282442761
H            2.23154573866998        1.71089735221071        1.79457373335184
H            3.45936773600724        3.84135990750495        1.93569485776669

 projected vibrational frequencies (cm⁻¹)
eigval :       -0.00    -0.00    -0.00    -0.00     0.00     0.00
eigval :       17.43    18.40    30.80    38.70    41.42    56.62
eigval :       59.27    64.32    65.65    71.44    85.16    85.33
eigval :      152.87   162.59   169.04   172.95   190.91   210.63
eigval :      230.15   240.32   246.67   267.23   303.71   314.62
eigval :      319.96   364.04   377.83   378.34   381.81   384.53
eigval :      384.80   410.26   413.96   457.39   470.46   485.23
eigval :      493.77   508.82   520.36   542.57   543.46   562.77
eigval :      582.61   586.19   587.79   590.66   598.45   621.09
eigval :      621.48   655.08   657.98   658.65   664.00   675.72
eigval :      685.91   715.14   754.40   755.21   755.49   757.16
eigval :      768.19   794.29   820.47   848.48   858.63   869.00
eigval :      870.09   870.37   871.79   883.27   891.79   892.81
eigval :      895.49   895.98   906.05   908.81   924.79   924.94
eigval :      926.57   926.77   926.89   926.97   927.20   927.25
eigval :      976.79   980.63  1002.09  1002.84  1059.46  1080.23
eigval :     1080.32  1081.50  1081.60  1118.29  1121.21  1122.14
eigval :     1123.40  1127.82  1179.41  1179.69  1180.10  1180.30
eigval :     1183.64  1184.52  1190.79  1191.08  1209.67  1210.65
eigval :     1252.42  1274.01  1275.47  1278.20  1280.63  1293.78
eigval :     1304.65  1307.54  1322.61  1322.89  1324.84  1329.58
eigval :     1329.74  1351.78  1355.16  1396.74  1433.77  1433.88
eigval :     1434.93  1441.81  1447.20  1460.22  1460.60  1461.06
eigval :     1465.83  1475.47  1549.48  1565.47  1565.69  1576.41
eigval :     1576.43  1582.14  1582.54  1589.45  1590.47  3078.24
eigval :     3078.26  3078.97  3079.13  3080.29  3080.54  3081.30
eigval :     3081.54  3083.22  3086.57  3086.59  3090.28  3090.55
eigval :     3091.14  3091.27  3093.52  3093.61  3096.07  3098.38
eigval :     3098.83  3100.70  3101.35

   temp. (K)  partition function   enthalpy   heat capacity  entropy
                                   cal/mol     cal/K/mol   cal/K/mol   J/K/mol
 298.15  VIB  0.201E+13            16237.428    103.172    100.932
         ROT  0.304E+08              888.752      2.981     37.221
         INT  0.611E+20            17126.181    106.153    138.153
         TR   0.988E+28             1481.254      4.968     44.315
         TOT                       18607.4346   111.1211   182.4681   763.4463

       T/K    H(0)-H(T)+PV         H(T)/Eh          T*S/Eh         G(T)/Eh
   ------------------------------------------------------------------------
    298.15    0.296528E-01    0.460131E+00    0.866965E-01    0.373434E+00
   ------------------------------------------------------------------------

         :::::::::::::::::::::::::::::::::::::::::::::::::::::
         ::                  THERMODYNAMIC                  ::
         :::::::::::::::::::::::::::::::::::::::::::::::::::::
         :: total free energy         -89.983116674885 Eh   ::
         ::.................................................::
         :: total energy              -90.356550770309 Eh   ::
         :: zero point energy           0.430477720764 Eh   ::
         :: G(RRHO) w/o ZPVE           -0.057043625340 Eh   ::
         :: G(RRHO) contrib.            0.373434095424 Eh   ::
         :::::::::::::::::::::::::::::::::::::::::::::::::::::

           -------------------------------------------------
          | TOTAL ENERGY              -90.356550770309 Eh   |
          | TOTAL ENTHALPY            -89.896420215027 Eh   |
          | TOTAL FREE ENERGY         -89.983116674885 Eh   |
          | GRADIENT NORM               0.000044710443 Eh/α |
           -------------------------------------------------

 * finished run on 2025/09/04 at 05:33:40.899
