   * xtb version 6.7.1 (edcfbbe) compiled by 'albert@albert-system' on 2024-07-22

   ID    Z sym.   atoms
    1    6 C      1-4, 6-15, 17-29, 33-35
    2    7 N      5, 16, 30, 32
    3   16 S      31
    4    1 H      36-57

          program call               : xtb data2507/gas/BTZ–DPA/BTZ–DPA_gas_S0_crest.xyz --gfn 2 --ohess vtight --parallel 40 --molden --ceasefiles --namespace data2507/gas/BTZ–DPA/BTZ–DPA_gas_S0_finalOpt
          :  Hamiltonian                  GFN2-xTB          :
 * total energy  :   -90.4075479 Eh     change       -0.2069996E-08 Eh
 * total energy  :   -90.4075489 Eh     change       -0.9531117E-06 Eh
 * total energy  :   -90.4075495 Eh     change       -0.5917083E-06 Eh
 * total energy  :   -90.4075494 Eh     change        0.3135027E-07 Eh
 * total energy  :   -90.4075499 Eh     change       -0.4226368E-06 Eh
 * total energy  :   -90.4075505 Eh     change       -0.6424005E-06 Eh
 * total energy  :   -90.4075509 Eh     change       -0.4099323E-06 Eh
 * total energy  :   -90.4075512 Eh     change       -0.2501776E-06 Eh
 * total energy  :   -90.4075513 Eh     change       -0.1314848E-06 Eh
 * total energy  :   -90.4075515 Eh     change       -0.2005808E-06 Eh
 * total energy  :   -90.4075517 Eh     change       -0.1865927E-06 Eh
 * total energy  :   -90.4075518 Eh     change       -0.1090428E-06 Eh
 * total energy  :   -90.4075519 Eh     change       -0.7278778E-07 Eh
   *** GEOMETRY OPTIMIZATION CONVERGED AFTER 13 ITERATIONS ***

 final structure:
================
57
 xtb: 6.7.1 (edcfbbe)
C            4.84352123251512        3.31968896739001        0.52110665226644
C            5.31813417175115        2.33662717386401       -0.33141386556060
C            4.65911532327130        1.12782255807477       -0.44084186007218
C            3.51374466630125        0.88588107102566        0.31339324056364
N            2.83457740779019       -0.33626292001119        0.20764082145183
C            3.54965373387968       -1.53170362951847        0.09769253339986
C            3.07156584017101       -2.57947520370054       -0.68954311441458
C            3.78686560786134       -3.75619290815144       -0.79219388207085
C            4.98926960690455       -3.90857707734987       -0.12113082487758
C            5.47134933530845       -2.86974017786132        0.65816689486982
C            4.76006150801721       -1.69143083604814        0.77294368063776
C            1.44381480886086       -0.33724362389821        0.20997943241865
C            0.69835788490809       -1.33325851588532        0.81053456252830
C           -0.69920919019137       -1.33282591983922        0.81009015698700
C           -1.44379120498831       -0.33657795552917        0.20870124636171
N           -2.83441787089479       -0.33484934873478        0.20544829667628
C           -3.51335277456761        0.88789070609802        0.30675935445211
C           -4.65795926709957        1.12742938241043       -0.44937102901782
C           -5.31683957647804        2.33674147439239       -0.34474675896075
C           -4.84277551053483        3.32263568622798        0.50479396901785
C           -3.70488372255420        3.08767383532805        1.25847497676159
C           -3.04596424011060        1.87749782369564        1.16872779748094
C           -3.55057169201513       -1.53027643165039        0.10146891934294
C           -3.07448781512612       -2.58188274248474       -0.68183908905906
C           -3.79092216701558       -3.75845830279968       -0.77823377481824
C           -4.99251120649994       -3.90686473022704       -0.10481830580275
C           -5.47273706925023       -2.86411591951951        0.67038081784037
C           -4.76028618194178       -1.68591726710854        0.77891107964803
C           -0.71968054033719        0.69960931270082       -0.43229778908129
N           -1.21517404258794        1.72872425361136       -1.11808369837444
S            0.00173230776735        2.60488432662877       -1.69830647717868
N            1.21764767376267        1.72830550811103       -1.11640825096134
C            0.72080022477530        0.69938345173524       -0.43137942404105
C            3.04559597701394        1.87276450386501        1.17810252949716
C            3.70474638553505        3.08244557079474        1.27273248154024
H            5.35820517473538        4.26545361369432        0.59950429503169
H            6.20333107159596        2.51616302998986       -0.92383611400144
H            5.02139050951426        0.36621515441510       -1.11562564264899
H            2.14135124214224       -2.45975649695606       -1.22522711626921
H            3.40634438406288       -4.55753950196921       -1.40850323255665
H            5.54630170380715       -4.82918602031885       -0.20586615978781
H            6.40597449364046       -2.98013909075850        1.18819750269616
H            5.13418484535064       -0.88655435418745        1.38836045557541
H            1.21433642141436       -2.13991602231716        1.30956194058463
H           -1.21588016553586       -2.13904441292230        1.30909565767529
H           -5.01977790433113        0.36351957733222       -1.12180075856965
H           -6.20145870309139        2.51440442500932       -0.93859357547857
H           -5.35723330135954        4.26883451954968        0.57933036282100
H           -3.33283685061828        3.84934760593378        1.92817616593462
H           -2.16599789876254        1.68906609121779        1.76707786159234
H           -2.14493295467631       -2.46535423625031       -1.21936346291776
H           -3.41187707628679       -4.56292559566297       -1.39137795542446
H           -5.55030848243549       -4.82746340121071       -0.18448765874148
H           -6.40673985477400       -2.97133314705948        1.20215353154900
H           -5.13294813014578       -0.87794665112949        1.39115127114849
H            2.16488994697315        1.68253629904751        1.77480272149963
H            3.33223291267936        3.84189044251606        1.94470776953630

          :  Hamiltonian                  GFN2-xTB          :
         :: gradient norm              0.000045943132 Eh/a0 ::
         :: HOMO-LUMO gap              1.139485044658 eV    ::
         :: SCC energy               -91.995429785395 Eh    ::
         :: -> dispersion             -0.082413546509 Eh    ::
         :: repulsion energy           1.587877927844 Eh    ::

    * Orbital Energies and Occupations

         #    Occupation            Energy/Eh            Energy/eV
      -------------------------------------------------------------
         1        2.0000           -0.7555325             -20.5591
       ...           ...                  ...                  ...
        72        2.0000           -0.4194629             -11.4142
        73        2.0000           -0.4160126             -11.3203
        74        2.0000           -0.4091513             -11.1336
        75        2.0000           -0.4083175             -11.1109
        76        2.0000           -0.4065191             -11.0619
        77        2.0000           -0.4054275             -11.0322
        78        2.0000           -0.4039351             -10.9916
        79        2.0000           -0.4028837             -10.9630
        80        2.0000           -0.4012641             -10.9190
        81        2.0000           -0.4010169             -10.9122
        82        2.0000           -0.3953122             -10.7570
        83        2.0000           -0.3631687              -9.8823
        84        2.0000           -0.3390776              -9.2268 (HOMO)
        85                         -0.2972022              -8.0873 (LUMO)
        86                         -0.2289425              -6.2298
        87                         -0.2284412              -6.2162
        88                         -0.2252765              -6.1301
        89                         -0.2250011              -6.1226
        90                         -0.2238880              -6.0923
        91                         -0.2194310              -5.9710
        92                         -0.2190990              -5.9620
        93                         -0.2157015              -5.8695
        94                         -0.2107481              -5.7347
        95                         -0.2027620              -5.5174
       ...                                ...                  ...
       167                          0.7286743              19.8282
      -------------------------------------------------------------
                  HL-Gap            0.0418753 Eh            1.1395 eV

     #   Z          covCN         q      C6AA      α(0)
     1   6 C        2.919    -0.036    28.901     8.816
     2   6 C        2.920    -0.028    28.699     8.785
     3   6 C        2.922    -0.042    29.043     8.838
     4   6 C        2.928     0.071    26.420     8.429
     5   7 N        2.752    -0.062    22.436     7.035
     6   6 C        2.923     0.065    26.554     8.451
     7   6 C        2.922    -0.047    29.174     8.858
     8   6 C        2.920    -0.029    28.726     8.789
     9   6 C        2.919    -0.039    28.958     8.824
    10   6 C        2.919    -0.029    28.720     8.788
    11   6 C        2.923    -0.048    29.182     8.859
    12   6 C        2.914     0.043    27.037     8.527
    13   6 C        2.921    -0.057    29.423     8.895
    14   6 C        2.921    -0.057    29.425     8.896
    15   6 C        2.914     0.043    27.036     8.526
    16   7 N        2.752    -0.062    22.435     7.035
    17   6 C        2.928     0.071    26.421     8.430
    18   6 C        2.922    -0.042    29.042     8.838
    19   6 C        2.920    -0.028    28.699     8.785
    20   6 C        2.920    -0.036    28.900     8.816
    21   6 C        2.920    -0.028    28.695     8.784
    22   6 C        2.923    -0.040    29.000     8.831
    23   6 C        2.923     0.065    26.555     8.451
    24   6 C        2.922    -0.047    29.173     8.857
    25   6 C        2.920    -0.029    28.726     8.789
    26   6 C        2.919    -0.039    28.957     8.824
    27   6 C        2.919    -0.029    28.720     8.788
    28   6 C        2.923    -0.048    29.182     8.859
    29   6 C        3.345     0.064    24.042     7.741
    30   7 N        1.853    -0.272    27.911     7.830
    31  16 S        2.670     0.319   128.702    19.094
    32   7 N        1.853    -0.272    27.911     7.830
    33   6 C        3.345     0.064    24.039     7.740
    34   6 C        2.923    -0.040    29.002     8.831
    35   6 C        2.920    -0.028    28.695     8.784
    36   1 H        0.926     0.031     2.566     2.505
    37   1 H        0.926     0.033     2.543     2.494
    38   1 H        0.926     0.034     2.527     2.486
    39   1 H        0.926     0.030     2.585     2.514
    40   1 H        0.926     0.032     2.557     2.501
    41   1 H        0.926     0.031     2.575     2.509
    42   1 H        0.926     0.032     2.554     2.499
    43   1 H        0.926     0.033     2.548     2.496
    44   1 H        0.926     0.040     2.454     2.450
    45   1 H        0.926     0.040     2.454     2.450
    46   1 H        0.926     0.034     2.527     2.486
    47   1 H        0.926     0.033     2.542     2.493
    48   1 H        0.926     0.031     2.566     2.505
    49   1 H        0.926     0.032     2.563     2.503
    50   1 H        0.926     0.027     2.633     2.537
    51   1 H        0.926     0.030     2.584     2.514
    52   1 H        0.926     0.032     2.557     2.500
    53   1 H        0.926     0.031     2.574     2.509
    54   1 H        0.926     0.032     2.553     2.499
    55   1 H        0.926     0.033     2.548     2.496
    56   1 H        0.926     0.027     2.633     2.538
    57   1 H        0.926     0.032     2.563     2.504

molecular dipole:
                 x           y           z       tot (Debye)
 q only:       -0.004       0.020       0.076
   full:       -0.005      -0.238       0.213       0.812

 projected vibrational frequencies (cm⁻¹)
eigval :       -0.00    -0.00     0.00     0.00     0.00     0.00
eigval :       15.59    19.28    29.43    35.89    40.14    55.18
eigval :       59.96    60.76    66.83    73.78    85.16    85.84
eigval :      157.44   158.61   170.71   185.73   190.13   210.42
eigval :      229.05   238.65   242.69   266.59   304.65   314.60
eigval :      338.30   365.99   378.09   378.32   384.06   384.24
eigval :      389.46   409.90   464.59   469.85   477.42   484.20
eigval :      488.88   506.84   525.94   545.49   566.04   569.27
eigval :      585.91   587.42   590.03   591.43   611.78   630.59
eigval :      631.50   658.87   660.25   660.90   666.71   681.67
eigval :      719.65   728.88   756.49   756.66   757.92   760.60
eigval :      834.44   845.76   852.55   872.58   873.10   873.88
eigval :      874.98   875.44   890.80   891.55   893.46   893.77
eigval :      902.11   904.44   908.30   911.69   926.42   926.55
eigval :      927.74   928.05   928.07   928.22   928.66   928.68
eigval :      979.71   982.19  1004.55  1006.12  1075.13  1082.97
eigval :     1083.58  1084.10  1084.33  1114.57  1121.82  1122.65
eigval :     1124.64  1125.59  1180.53  1180.77  1181.07  1181.27
eigval :     1184.74  1192.38  1194.98  1195.30  1207.91  1218.54
eigval :     1271.48  1276.26  1278.36  1279.58  1284.72  1293.59
eigval :     1303.73  1318.59  1321.87  1322.50  1325.31  1328.65
eigval :     1328.98  1354.81  1355.92  1384.49  1435.75  1436.95
eigval :     1443.74  1444.32  1470.61  1474.00  1475.19  1476.18
eigval :     1489.55  1548.24  1555.05  1577.22  1577.80  1583.54
eigval :     1583.56  1594.48  1595.08  1598.78  1600.14  3071.35
eigval :     3071.67  3075.78  3075.83  3076.08  3076.29  3077.65
eigval :     3077.71  3081.92  3082.31  3086.55  3087.27  3087.68
eigval :     3088.29  3088.63  3090.43  3090.57  3095.57  3095.76
eigval :     3097.81  3097.99  3098.85

   temp. (K)  partition function   enthalpy   heat capacity  entropy
                                   cal/mol     cal/K/mol   cal/K/mol   J/K/mol
 298.15  VIB  0.211E+13            16088.709    102.004    100.137
         ROT  0.305E+08              888.752      2.981     37.229
         INT  0.644E+20            16977.462    104.985    137.367
         TR   0.988E+28             1481.254      4.968     44.315
         TOT                       18458.7157   109.9528   181.6813   760.1544

       T/K    H(0)-H(T)+PV         H(T)/Eh          T*S/Eh         G(T)/Eh
   ------------------------------------------------------------------------
    298.15    0.294158E-01    0.461705E+00    0.863226E-01    0.375382E+00
   ------------------------------------------------------------------------

         :::::::::::::::::::::::::::::::::::::::::::::::::::::
         ::                  THERMODYNAMIC                  ::
         :::::::::::::::::::::::::::::::::::::::::::::::::::::
         :: total free energy         -90.032169753581 Eh   ::
         ::.................................................::
         :: total energy              -90.407551857437 Eh   ::
         :: zero point energy           0.432288899792 Eh   ::
         :: G(RRHO) w/o ZPVE           -0.056906795936 Eh   ::
         :: G(RRHO) contrib.            0.375382103857 Eh   ::
         :::::::::::::::::::::::::::::::::::::::::::::::::::::

           -------------------------------------------------
          | TOTAL ENERGY              -90.407551857437 Eh   |
          | TOTAL ENTHALPY            -89.945847121768 Eh   |
          | TOTAL FREE ENERGY         -90.032169753581 Eh   |
          | GRADIENT NORM               0.000045545531 Eh/α |
          | HOMO-LUMO GAP               1.139485937042 eV   |
           -------------------------------------------------

 * finished run on 2025/09/04 at 05:33:36.282
