   * xtb version 6.7.1 (edcfbbe) compiled by 'albert@albert-system' on 2024-07-22

   ID    Z sym.   atoms
    1    6 C      1-4, 6-15, 17-29, 33-35
    2    7 N      5, 16, 30, 32
    3   16 S      31
    4    1 H      36-57

          program call               : xtb data2507/gas/BTZ–DPA/BTZ–DPA_gas_T1_crest.xyz --gfn 2 --spinpol --tblite --uhf 2 --ohess vtight --parallel 40 --molden --ceasefiles --namespace data2507/gas/BTZ–DPA/BTZ–DPA_gas_T1_finalOpt
 * total energy  :   -90.3565390 Eh     change        0.3386198E-07 Eh
 * total energy  :   -90.3565454 Eh     change       -0.6372258E-05 Eh
 * total energy  :   -90.3565480 Eh     change       -0.2656805E-05 Eh
 * total energy  :   -90.3565492 Eh     change       -0.1176132E-05 Eh
 * total energy  :   -90.3565509 Eh     change       -0.1686456E-05 Eh
 * total energy  :   -90.3565524 Eh     change       -0.1519235E-05 Eh
 * total energy  :   -90.3565543 Eh     change       -0.1905298E-05 Eh
 * total energy  :   -90.3565554 Eh     change       -0.1075382E-05 Eh
 * total energy  :   -90.3565557 Eh     change       -0.3335041E-06 Eh
 * total energy  :   -90.3565560 Eh     change       -0.2804890E-06 Eh
 * total energy  :   -90.3565576 Eh     change       -0.3457041E-06 Eh
 * total energy  :   -90.3565578 Eh     change       -0.2255292E-06 Eh
 * total energy  :   -90.3565581 Eh     change       -0.2070999E-06 Eh
 * total energy  :   -90.3565583 Eh     change       -0.2088993E-06 Eh
 * total energy  :   -90.3565585 Eh     change       -0.2578688E-06 Eh
 * total energy  :   -90.3565588 Eh     change       -0.2738392E-06 Eh
 * total energy  :   -90.3565589 Eh     change       -0.1527898E-06 Eh
 * total energy  :   -90.3565590 Eh     change       -0.1002741E-06 Eh
 * total energy  :   -90.3565591 Eh     change       -0.1455825E-07 Eh
   *** GEOMETRY OPTIMIZATION CONVERGED AFTER 22 ITERATIONS ***

 final structure:
================
57
 xtb: 6.7.1 (edcfbbe)
C            4.95884012886518        3.24956949615609        0.42876258630766
C            5.36648356660130        2.25022348195733       -0.43993994607359
C            4.66109527864702        1.06586023810670       -0.52079105679424
C            3.53501566551877        0.87056150431352        0.27557211833030
N            2.81052857345450       -0.32744234196454        0.19809831302094
C            3.49223445665919       -1.53776466995832        0.08102274681031
C            2.97212190183626       -2.57512815111943       -0.69733713513663
C            3.64959169476820       -3.77346197234146       -0.79928024660551
C            4.85314808979560       -3.95849707755350       -0.13717979549504
C            5.37792771924834       -2.92978806338920        0.63049587508027
C            4.70728276234806       -1.72901158239537        0.74406396044883
C            1.43189623920167       -0.29327394547740        0.20419356362944
C            0.68128006727570       -1.35456650967936        0.78664331030906
C           -0.68017103039628       -1.35573137373401        0.78688357640172
C           -1.43278499467426       -0.29579958907806        0.20451655290442
N           -2.81139497759483       -0.33207879350353        0.19884762446791
C           -3.53716852807888        0.86525580142900        0.27605725826000
C           -4.66283752665533        1.05978657982548       -0.52104118975474
C           -5.36896490606030        2.24375455399207       -0.44075859639384
C           -4.96245890904304        3.24343527868592        0.42808596258911
C           -3.84511185637130        3.05038503948405        1.22463465312442
C           -3.13582512063023        1.86870844727006        1.15626296628061
C           -3.49175269092819       -1.54315069089155        0.08211296179439
C           -2.96984759215008       -2.58085986440563       -0.69462716263510
C           -3.64618416450186       -3.77986423833152       -0.79625312337119
C           -4.85048814163461       -3.96526249105784       -0.13562269100775
C           -5.37708857911819       -2.93623955335281        0.63038184123480
C           -4.70750457640606       -1.73486191455607        0.74379059878499
C           -0.72125065951844        0.78976559065776       -0.34779755442599
N           -1.24289778513636        1.84711741339850       -0.96163151849093
S           -0.00326947662775        2.79357568984565       -1.51317504582984
N            1.23808302741431        1.84940012719562       -0.96166124614379
C            0.71837843449288        0.79108703726785       -0.34785843628609
C            3.13239534136250        1.87377452863529        1.15547245346357
C            3.84099291850951        3.05582915089064        1.22444604468204
H            5.50865823811771        4.17693403350571        0.48373728575964
H            6.23318400602293        2.39834275220402       -1.06696499120342
H            4.96466868274621        0.29312400319581       -1.21186704536148
H            2.04706379920591       -2.42158655481980       -1.23270370006661
H            3.24053149815939       -4.56584684754264       -1.40839637603724
H            5.38048064245651       -4.89629629957159       -0.22140868886994
H            6.31402449712626       -3.06779134470938        1.15084018560119
H            5.10973055811452       -0.93277169873126        1.35267362473306
H            1.22198068915883       -2.15187045637370        1.27381521086909
H           -1.21932784879979       -2.15391737990727        1.27431822644252
H           -4.96546764569892        0.28681868580380       -1.21227223063571
H           -6.23530909645025        2.39133058546204       -1.06840349660924
H           -5.51275342829164        4.17055069471590        0.48248193262397
H           -3.52720646513806        3.82490113669801        1.90664839080882
H           -2.27221774128231        1.70912293861505        1.78466631869530
H           -2.04428344045325       -2.42712274437129       -1.22905085955674
H           -3.23562998147201       -4.57250789900124       -1.40402890514851
H           -5.37698739825035       -4.90354270588565       -0.21972208127646
H           -6.31382435008631       -3.07444605422964        1.14952689874501
H           -5.11141403237149       -0.93844569761650        1.35119616555374
H            2.26846870036316        1.71366292530336        1.78329368176500
H            3.52220058995059        3.83009854743491        1.90632757198873

 projected vibrational frequencies (cm⁻¹)
eigval :       -0.00    -0.00    -0.00     0.00     0.00     0.00
eigval :       17.90    18.60    30.79    38.55    41.57    56.99
eigval :       59.46    64.54    65.96    71.46    85.25    85.74
eigval :      153.44   162.11   168.66   173.22   192.24   210.46
eigval :      230.37   240.60   246.45   267.42   303.15   314.67
eigval :      320.46   363.64   377.90   378.40   382.08   384.72
eigval :      384.80   410.21   413.82   457.53   470.46   485.46
eigval :      493.90   509.35   520.18   542.83   542.99   562.58
eigval :      582.57   586.16   587.86   590.68   598.46   621.04
eigval :      622.08   655.50   657.96   658.82   664.07   676.33
eigval :      685.94   715.59   754.32   755.26   755.56   757.15
eigval :      768.35   794.69   820.75   849.00   857.89   869.08
eigval :      870.06   870.28   871.87   883.43   891.98   892.78
eigval :      895.63   896.11   906.17   909.01   924.83   924.97
eigval :      926.55   926.86   926.93   927.03   927.31   927.35
eigval :      977.45   980.61  1002.00  1002.75  1059.51  1080.46
eigval :     1080.50  1081.53  1081.63  1118.29  1121.16  1122.08
eigval :     1123.34  1128.09  1179.51  1179.82  1180.31  1180.50
eigval :     1183.71  1183.97  1190.85  1191.19  1209.52  1209.68
eigval :     1252.40  1274.09  1275.51  1278.16  1280.63  1293.57
eigval :     1304.72  1307.30  1321.94  1322.90  1324.36  1329.63
eigval :     1329.78  1351.67  1355.38  1396.60  1434.07  1434.24
eigval :     1435.58  1441.94  1447.71  1460.25  1460.59  1461.03
eigval :     1466.02  1475.58  1550.27  1565.54  1565.77  1576.30
eigval :     1576.34  1582.09  1582.50  1589.65  1590.42  3078.01
eigval :     3078.04  3079.25  3079.41  3080.22  3080.46  3081.32
eigval :     3081.55  3083.11  3086.53  3086.65  3090.29  3090.40
eigval :     3091.06  3091.26  3093.55  3093.59  3096.05  3098.24
eigval :     3098.65  3100.60  3101.17

   temp. (K)  partition function   enthalpy   heat capacity  entropy
                                   cal/mol     cal/K/mol   cal/K/mol   J/K/mol
 298.15  VIB  0.189E+13            16231.641    103.179    100.857
         ROT  0.304E+08              888.752      2.981     37.221
         INT  0.575E+20            17120.393    106.160    138.078
         TR   0.988E+28             1481.254      4.968     44.315
         TOT                       18601.6472   111.1283   182.3925   763.1304

       T/K    H(0)-H(T)+PV         H(T)/Eh          T*S/Eh         G(T)/Eh
   ------------------------------------------------------------------------
    298.15    0.296436E-01    0.460143E+00    0.866606E-01    0.373483E+00
   ------------------------------------------------------------------------

         :::::::::::::::::::::::::::::::::::::::::::::::::::::
         ::                  THERMODYNAMIC                  ::
         :::::::::::::::::::::::::::::::::::::::::::::::::::::
         :: total free energy         -89.983076311742 Eh   ::
         ::.................................................::
         :: total energy              -90.356559059922 Eh   ::
         :: zero point energy           0.430499716032 Eh   ::
         :: G(RRHO) w/o ZPVE           -0.057016967852 Eh   ::
         :: G(RRHO) contrib.            0.373482748180 Eh   ::
         :::::::::::::::::::::::::::::::::::::::::::::::::::::

           -------------------------------------------------
          | TOTAL ENERGY              -90.356559059922 Eh   |
          | TOTAL ENTHALPY            -89.896415732106 Eh   |
          | TOTAL FREE ENERGY         -89.983076311742 Eh   |
          | GRADIENT NORM               0.000025172283 Eh/α |
           -------------------------------------------------

 * finished run on 2025/09/04 at 05:36:48.070
