   * xtb version 6.7.1 (edcfbbe) compiled by 'albert@albert-system' on 2024-07-22

   ID    Z sym.   atoms
    1    6 C      1-8, 10-17, 19-30, 32-39, 41-50, 52
    2    7 N      9, 31, 51
    3    8 O      18, 40
    4    1 H      53-79

          program call               : xtb data2507/toluene/2BFCzPy/2BFCzPy_toluene_T1_crest.xyz --gfn 2 --uhf 2 --gbsa toluene --ohess vtight --parallel 40 --molden --ceasefiles --namespace data2507/toluene/2BFCzPy/2BFCzPy_toluene_T1_finalOpt
      * Solvation model:               GBSA
        Solvent                        toluene
        Solvent mass                       9.2140E+01 g/mol
          :  Hamiltonian                  GFN2-xTB          :
 * total energy  :  -131.4099771 Eh     change       -0.2677325E-09 Eh
 * total energy  :  -131.4100340 Eh     change       -0.5688076E-04 Eh
 * total energy  :  -131.4100567 Eh     change       -0.2267617E-04 Eh
 * total energy  :  -131.4100606 Eh     change       -0.3930307E-05 Eh
 * total energy  :  -131.4100637 Eh     change       -0.3084209E-05 Eh
 * total energy  :  -131.4100666 Eh     change       -0.2911173E-05 Eh
 * total energy  :  -131.4100694 Eh     change       -0.2759647E-05 Eh
 * total energy  :  -131.4100712 Eh     change       -0.1832461E-05 Eh
 * total energy  :  -131.4100724 Eh     change       -0.1233468E-05 Eh
 * total energy  :  -131.4100733 Eh     change       -0.8588732E-06 Eh
 * total energy  :  -131.4100757 Eh     change       -0.5381505E-06 Eh
 * total energy  :  -131.4100763 Eh     change       -0.5123837E-06 Eh
 * total energy  :  -131.4100767 Eh     change       -0.4328872E-06 Eh
 * total energy  :  -131.4100771 Eh     change       -0.4047690E-06 Eh
 * total energy  :  -131.4100775 Eh     change       -0.4036708E-06 Eh
 * total energy  :  -131.4100779 Eh     change       -0.3861208E-06 Eh
 * total energy  :  -131.4100783 Eh     change       -0.3927840E-06 Eh
 * total energy  :  -131.4100787 Eh     change       -0.4191052E-06 Eh
 * total energy  :  -131.4100787 Eh     change       -0.1004466E-07 Eh
   *** GEOMETRY OPTIMIZATION CONVERGED AFTER 22 ITERATIONS ***

 final structure:
================
79
 xtb: 6.7.1 (edcfbbe)
C            3.81118083283679       -5.52520368660992        1.74386201785413
C            4.18736624818580       -4.18034662445339        1.61844717604853
C            3.23365138522481       -3.22625278719399        1.39204713307680
C            1.86458991111985       -3.60031304397257        1.26473435032920
C            0.80426795136472       -2.70139303325973        0.99439394861801
C           -0.52836649292518       -3.07812144101844        1.33843376003105
C           -1.57133154702040       -2.21041881264705        1.27408348957170
C           -1.36945371865796       -0.87308874699028        0.83472288571326
N           -2.43061747704692        0.01958562251523        0.76302587355045
C           -2.40916566027383        1.33236448451277        1.20402648598047
C           -1.39780951763668        2.03766469373101        1.83976351441629
C           -1.65098418334244        3.34656899064877        2.21033062185889
C           -2.88606817484600        3.94391023396298        1.96560284485512
C           -3.91231502828103        3.23896561013846        1.36287551193482
C           -3.67740047753283        1.92433473725000        0.98516622440914
C           -4.49162642463434        0.91245389785057        0.38187870567546
C           -5.79252279389175        0.83713344880999       -0.08486493437475
O           -6.74035229282434        1.81118260857971       -0.05947350694520
C           -7.85476409484090        1.27030061297225       -0.63684293390840
C           -9.06910177231890        1.90020570084414       -0.82602111091838
C          -10.07542493081453        1.16657723817122       -1.43494974077167
C           -9.87066425132720       -0.15083016992206       -1.83994905530174
C           -8.65594757609336       -0.77913900291361       -1.65120314081200
C           -7.62905828593128       -0.06316031580244       -1.04212963168488
C           -6.27148641463463       -0.34940570290136       -0.68097740438733
C           -5.43785147078953       -1.46478143073552       -0.83294115503780
C           -4.14137980644632       -1.41417281737293       -0.37162040364002
C           -3.68245947856016       -0.25010971052801        0.25250541975169
C           -0.09057299616381       -0.49403826220322        0.41151730630189
C            0.96463793951415       -1.37727965086799        0.43839282910155
N            2.16774933741883       -0.99435354992221       -0.16884950831177
C            2.79130792864984       -1.68006249220544       -1.19583101616526
C            2.42433337659470       -2.86524457805310       -1.81671433564605
C            3.23057932685746       -3.33258015846384       -2.83788041376139
C            4.36705469621616       -2.63629929465177       -3.24579573980096
C            4.72501715257384       -1.44210409605588       -2.64851562093340
C            3.93022738666833       -0.95630540767625       -1.61983079451010
C            3.98016621771748        0.22321229019881       -0.80610832300861
C            4.82280972784095        1.31713283209731       -0.69090546067695
O            5.93699145533024        1.58647624269288       -1.42243527194827
C            6.42864507661627        2.76727744319394       -0.94209040514912
C            7.55512977490224        3.43029948606029       -1.39055795020858
C            7.88172670143328        4.62053777124863       -0.76165774557267
C            7.10744503966832        5.12843909083236        0.27911362667190
C            5.98166002027249        4.46497603838548        0.72565268027633
C            5.63280683663993        3.26792677803749        0.10943866202808
C            4.57400809500619        2.31214868944526        0.27669278565532
C            3.48589401556815        2.21143353564608        1.14985498336396
C            2.63385105703924        1.13459266721042        1.05171338793330
C            2.86922421083134        0.16467202771088        0.07413366384876
N            1.52891035138893       -4.91023697073956        1.45486410128761
C            2.45136593701373       -5.80755903748640        1.67621378531720
H            4.53601509842731       -6.30620759269916        1.90360164104462
H            5.22641040463975       -3.89862616314936        1.72054664096621
H            3.50645090444495       -2.18359299967347        1.37817093081739
H           -0.66772303705796       -4.08527107864915        1.69861913470105
H           -2.55427428559453       -2.50864732730731        1.60447415482857
H           -0.44701974642761        1.57764796954711        2.05480508348602
H           -0.87644217538528        3.91485429740935        2.70301974590035
H           -3.04558615610649        4.96908587939714        2.26502814435573
H           -4.87843258557650        3.68853704027536        1.19115908185378
H           -9.22066487054437        2.92019910995860       -0.50992352773067
H          -11.03786597210961        1.62745280880019       -1.59808857532440
H          -10.68090272344786       -0.68769309592837       -2.31049956866582
H           -8.49977975137703       -1.79948057967766       -1.96560502802498
H           -5.81191535382989       -2.35107612078470       -1.31980602544553
H           -3.48081974372222       -2.25528482239407       -0.50886871906612
H            0.04938661554727        0.47973076931702       -0.03563159270993
H            1.54239130956740       -3.40623236661326       -1.51094669033091
H            2.97123849150243       -4.25648358640163       -3.33306255892936
H            4.97139614248811       -3.03585449085177       -4.04659962169154
H            5.59687254806772       -0.89186754421696       -2.96846741689719
H            8.14976311875547        3.03061437278107       -2.19668139949551
H            8.75556074133518        5.16496557002022       -1.08620775412920
H            7.39669786047981        6.05952175327827        0.74333048438218
H            5.38363362455062        4.86071565924225        1.53193011968175
H            3.32534902063967        2.97194817119121        1.89725938657044
H            1.80374506427950        1.02524444320668        1.73099514789429
H            2.09088044539371       -6.82354452157806        1.79402017237299

          :  Hamiltonian                  GFN2-xTB          :
         :: gradient norm              0.000075490025 Eh/a0 ::
         :: HOMO-LUMO gap              0.398602714931 eV    ::
         :: SCC energy              -133.741529282270 Eh    ::
         :: -> dispersion             -0.117534487942 Eh    ::
         :: -> Gsolv                  -0.052673853741 Eh    ::
         :: repulsion energy           2.331450574137 Eh    ::

    * Orbital Energies and Occupations

         #    Occupation            Energy/Eh            Energy/eV
      -------------------------------------------------------------
         1        2.0000           -0.7404610             -20.1490
       ...           ...                  ...                  ...
       110        2.0000           -0.4210819             -11.4582
       111        2.0000           -0.4120770             -11.2132
       112        2.0000           -0.4065388             -11.0625
       113        2.0000           -0.4063879             -11.0584
       114        2.0000           -0.4006068             -10.9011
       115        2.0000           -0.3992147             -10.8632
       116        2.0000           -0.3862472             -10.5103
       117        2.0000           -0.3815975             -10.3838
       118        2.0000           -0.3808249             -10.3628
       119        1.9987           -0.3701262             -10.0716
       120        1.8587           -0.3655351              -9.9467
       121        1.1426           -0.3621166              -9.8537
       122        0.9995           -0.2725911              -7.4176 (HOMO)
       123        0.0004           -0.2579429              -7.0190 (LUMO)
       124        0.0000           -0.2551223              -6.9422
       125                         -0.2476912              -6.7400
       126                         -0.2474138              -6.7325
       127                         -0.2329519              -6.3389
       128                         -0.2279163              -6.2019
       129                         -0.2221075              -6.0439
       130                         -0.2205857              -6.0024
       131                         -0.2192945              -5.9673
       132                         -0.2183630              -5.9420
       133                         -0.2049249              -5.5763
       ...                                ...                  ...
       235                          0.7572899              20.6069
      -------------------------------------------------------------
                  HL-Gap            0.0146482 Eh            0.3986 eV

     #   Z          covCN         q      C6AA      α(0)
     1   6 C        2.912    -0.062    29.544     8.913
     2   6 C        2.920    -0.023    28.578     8.766
     3   6 C        2.913    -0.047    29.178     8.858
     4   6 C        2.936     0.073    26.373     8.422
     5   6 C        2.971    -0.017    28.426     8.745
     6   6 C        2.918    -0.038    28.953     8.824
     7   6 C        2.910    -0.045    29.111     8.847
     8   6 C        2.909     0.033    27.259     8.561
     9   7 N        2.799     0.002    21.220     6.842
    10   6 C        3.075     0.042    26.987     8.517
    11   6 C        2.910    -0.041    29.026     8.834
    12   6 C        2.922    -0.034    28.858     8.809
    13   6 C        2.920    -0.034    28.835     8.806
    14   6 C        2.911    -0.031    28.766     8.795
    15   6 C        3.059    -0.008    28.172     8.704
    16   6 C        3.060    -0.037    28.866     8.811
    17   6 C        3.093     0.128    25.087     8.209
    18   8 O        1.714    -0.236    17.906     5.713
    19   6 C        3.099     0.125    25.137     8.216
    20   6 C        2.908    -0.053    29.311     8.877
    21   6 C        2.926    -0.033    28.817     8.803
    22   6 C        2.919    -0.038    28.939     8.822
    23   6 C        2.912    -0.035    28.861     8.809
    24   6 C        3.058    -0.019    28.417     8.742
    25   6 C        3.050    -0.026    28.596     8.770
    26   6 C        2.914    -0.041    29.030     8.835
    27   6 C        2.910    -0.050    29.243     8.867
    28   6 C        3.066     0.037    27.097     8.536
    29   6 C        2.918    -0.057    29.423     8.895
    30   6 C        2.906     0.039    27.120     8.539
    31   7 N        2.804    -0.015    21.543     6.894
    32   6 C        3.079     0.047    26.857     8.496
    33   6 C        2.909    -0.042    29.050     8.838
    34   6 C        2.924    -0.033    28.816     8.803
    35   6 C        2.920    -0.036    28.898     8.815
    36   6 C        2.911    -0.032    28.789     8.798
    37   6 C        3.062    -0.010    28.209     8.710
    38   6 C        3.061    -0.037    28.864     8.810
    39   6 C        3.093     0.127    25.120     8.215
    40   8 O        1.714    -0.237    17.926     5.716
    41   6 C        3.100     0.125    25.137     8.216
    42   6 C        2.908    -0.053    29.312     8.878
    43   6 C        2.926    -0.033    28.816     8.803
    44   6 C        2.920    -0.038    28.944     8.822
    45   6 C        2.912    -0.035    28.866     8.810
    46   6 C        3.058    -0.019    28.414     8.742
    47   6 C        3.051    -0.028    28.657     8.780
    48   6 C        2.914    -0.039    28.971     8.826
    49   6 C        2.911    -0.054    29.330     8.880
    50   6 C        3.070     0.042    26.988     8.518
    51   7 N        1.844    -0.245    27.248     7.736
    52   6 C        2.881     0.062    26.599     8.455
    53   1 H        0.926     0.025     2.657     2.549
    54   1 H        0.925     0.026     2.643     2.542
    55   1 H        0.926     0.026     2.642     2.542
    56   1 H        0.926     0.054     2.266     2.354
    57   1 H        0.926     0.046     2.375     2.410
    58   1 H        0.926     0.041     2.435     2.440
    59   1 H        0.926     0.040     2.447     2.446
    60   1 H        0.926     0.038     2.471     2.458
    61   1 H        0.926     0.041     2.436     2.441
    62   1 H        0.926     0.046     2.368     2.406
    63   1 H        0.926     0.045     2.389     2.417
    64   1 H        0.926     0.042     2.419     2.432
    65   1 H        0.926     0.043     2.404     2.425
    66   1 H        0.926     0.047     2.355     2.400
    67   1 H        0.926     0.051     2.306     2.375
    68   1 H        0.926     0.043     2.410     2.428
    69   1 H        0.926     0.037     2.491     2.468
    70   1 H        0.926     0.038     2.478     2.461
    71   1 H        0.926     0.038     2.482     2.463
    72   1 H        0.926     0.041     2.439     2.442
    73   1 H        0.926     0.046     2.371     2.408
    74   1 H        0.926     0.045     2.387     2.416
    75   1 H        0.926     0.043     2.415     2.430
    76   1 H        0.926     0.043     2.403     2.424
    77   1 H        0.926     0.048     2.344     2.394
    78   1 H        0.926     0.044     2.401     2.423
    79   1 H        0.925     0.030     2.592     2.518

molecular dipole:
                 x           y           z       tot (Debye)
 q only:       -0.799       0.961      -0.089
   full:       -0.416       0.948      -0.049       2.633

 projected vibrational frequencies (cm⁻¹)
eigval :       -0.00    -0.00    -0.00     0.00     0.00     0.00
eigval :        8.78    15.04    17.84    26.55    29.09    46.52
eigval :       56.11    59.22    62.72    66.22    68.12    89.42
eigval :      104.16   111.34   115.07   127.61   135.43   146.31
eigval :      149.20   155.69   155.81   183.29   195.08   220.00
eigval :      232.33   247.77   260.60   261.45   262.07   293.15
eigval :      300.30   310.81   315.34   325.95   336.73   364.98
eigval :      372.80   381.75   388.54   394.43   402.11   405.04
eigval :      427.21   431.40   434.83   439.65   439.79   447.67
eigval :      472.69   489.38   492.73   502.27   512.87   521.77
eigval :      534.95   539.34   541.84   545.15   553.04   558.40
eigval :      560.54   564.46   569.76   584.33   596.14   599.84
eigval :      607.02   619.76   621.35   629.17   653.02   656.37
eigval :      668.16   669.92   677.26   678.48   687.84   698.90
eigval :      701.55   703.78   706.68   707.93   708.86   709.57
eigval :      758.83   771.24   774.13   775.83   778.43   785.24
eigval :      800.95   813.48   815.52   817.16   829.03   835.05
eigval :      844.90   855.87   861.89   865.60   871.21   871.83
eigval :      876.91   877.23   883.49   887.57   893.87   899.72
eigval :      902.31   902.63   905.10   905.72   908.46   909.69
eigval :      920.67   922.22   922.45   923.10   925.36   957.69
eigval :      987.89   996.70  1002.93  1037.23  1049.08  1059.61
eigval :     1060.33  1068.14  1068.85  1074.83  1091.54  1092.87
eigval :     1108.69  1122.24  1124.92  1136.45  1138.70  1142.88
eigval :     1155.42  1164.50  1168.17  1168.60  1173.90  1176.55
eigval :     1178.58  1183.96  1193.53  1196.86  1198.49  1203.94
eigval :     1219.64  1225.24  1233.66  1240.51  1242.55  1264.04
eigval :     1269.98  1271.63  1280.05  1286.68  1293.38  1297.23
eigval :     1310.92  1315.43  1337.63  1341.57  1345.75  1350.18
eigval :     1351.07  1351.23  1364.97  1374.71  1381.18  1388.95
eigval :     1393.20  1394.69  1396.28  1401.10  1404.98  1410.38
eigval :     1422.01  1429.99  1449.99  1453.19  1458.79  1461.45
eigval :     1469.02  1470.81  1475.47  1477.94  1530.19  1537.66
eigval :     1540.91  1551.78  1559.38  1568.95  1572.78  1579.48
eigval :     1582.22  1586.44  1587.55  1596.57  1599.15  1608.59
eigval :     3020.65  3057.92  3079.30  3079.85  3080.52  3080.97
eigval :     3081.50  3085.86  3087.95  3088.93  3089.14  3091.33
eigval :     3094.48  3096.19  3096.39  3096.54  3098.63  3100.00
eigval :     3100.30  3100.56  3102.89  3103.23  3104.16  3105.31
eigval :     3107.51  3108.84  3110.07

   temp. (K)  partition function   enthalpy   heat capacity  entropy
                                   cal/mol     cal/K/mol   cal/K/mol   J/K/mol
 298.15  VIB  0.410E+17            22495.999    147.733    137.893
         ROT  0.115E+09              888.752      2.981     39.869
         INT  0.473E+25            23384.751    150.714    177.762
         TR   0.166E+29             1481.254      4.968     45.348
         TOT                       24866.0053   155.6819   223.1107   933.4951

       T/K    H(0)-H(T)+PV         H(T)/Eh          T*S/Eh         G(T)/Eh
   ------------------------------------------------------------------------
    298.15    0.396265E-01    0.625119E+00    0.106007E+00    0.519112E+00
   ------------------------------------------------------------------------

         :::::::::::::::::::::::::::::::::::::::::::::::::::::
         ::                  THERMODYNAMIC                  ::
         :::::::::::::::::::::::::::::::::::::::::::::::::::::
         :: total free energy        -130.890967128854 Eh   ::
         ::.................................................::
         :: total energy             -131.410078703095 Eh   ::
         :: zero point energy           0.585492153923 Eh   ::
         :: G(RRHO) w/o ZPVE           -0.066380579682 Eh   ::
         :: G(RRHO) contrib.            0.519111574241 Eh   ::
         :::::::::::::::::::::::::::::::::::::::::::::::::::::

           -------------------------------------------------
          | TOTAL ENERGY             -131.410078703095 Eh   |
          | TOTAL ENTHALPY           -130.784960047415 Eh   |
          | TOTAL FREE ENERGY        -130.890967128854 Eh   |
          | GRADIENT NORM               0.000069959070 Eh/α |
          | HOMO-LUMO GAP               0.398596934201 eV   |
           -------------------------------------------------

 * finished run on 2025/09/14 at 09:52:35.468
