   * xtb version 6.7.1 (edcfbbe) compiled by 'albert@albert-system' on 2024-07-22

   ID    Z sym.   atoms
    1    6 C      1-8, 10-17, 19-30, 32-39, 41-50, 52
    2    7 N      9, 31, 51
    3    8 O      18, 40
    4    1 H      53-79

          program call               : xtb data2507/toluene/2BFCzPy/2BFCzPy_toluene_S0_crest.xyz --gfn 2 --gbsa toluene --ohess vtight --parallel 40 --molden --ceasefiles --namespace data2507/toluene/2BFCzPy/2BFCzPy_toluene_S0_finalOpt
      * Solvation model:               GBSA
        Solvent                        toluene
        Solvent mass                       9.2140E+01 g/mol
          :  Hamiltonian                  GFN2-xTB          :
 * total energy  :  -131.5040095 Eh     change       -0.4342496E-08 Eh
 * total energy  :  -131.5040654 Eh     change       -0.5595207E-04 Eh
 * total energy  :  -131.5040952 Eh     change       -0.2982245E-04 Eh
 * total energy  :  -131.5041044 Eh     change       -0.9203021E-05 Eh
 * total energy  :  -131.5041146 Eh     change       -0.1018327E-04 Eh
 * total energy  :  -131.5041236 Eh     change       -0.8938157E-05 Eh
 * total energy  :  -131.5041290 Eh     change       -0.5468749E-05 Eh
 * total energy  :  -131.5041329 Eh     change       -0.3888808E-05 Eh
 * total energy  :  -131.5041368 Eh     change       -0.3834551E-05 Eh
 * total energy  :  -131.5041407 Eh     change       -0.3987621E-05 Eh
 * total energy  :  -131.5041525 Eh     change       -0.2551827E-05 Eh
 * total energy  :  -131.5041546 Eh     change       -0.2058813E-05 Eh
 * total energy  :  -131.5041560 Eh     change       -0.1452568E-05 Eh
 * total energy  :  -131.5041570 Eh     change       -0.9818250E-06 Eh
 * total energy  :  -131.5041576 Eh     change       -0.5517642E-06 Eh
 * total energy  :  -131.5041579 Eh     change       -0.3313540E-06 Eh
 * total energy  :  -131.5041582 Eh     change       -0.3186067E-06 Eh
 * total energy  :  -131.5041587 Eh     change       -0.4547468E-06 Eh
 * total energy  :  -131.5041587 Eh     change       -0.8756672E-08 Eh
   *** GEOMETRY OPTIMIZATION CONVERGED AFTER 22 ITERATIONS ***

 final structure:
================
79
 xtb: 6.7.1 (edcfbbe)
C            3.89476782122131       -5.18777292445212        1.71056786526397
C            4.17620908439400       -3.84090707131431        1.88214413307021
C            3.16327189114476       -2.91589918109632        1.70421773947531
C            1.89356283469100       -3.37252423167813        1.34769678512468
C            0.76423971932902       -2.44979492475900        1.13449846316138
C           -0.48221318299329       -2.76942222111108        1.66697583997927
C           -1.55688024461885       -1.91370016459944        1.54176689942872
C           -1.41255382864063       -0.71249717199240        0.84948874960113
N           -2.50045553308840        0.15872010663328        0.70806760929948
C           -2.49384343842328        1.51275643996322        0.98681399798880
C           -1.47625817653752        2.31293684117542        1.48601860985977
C           -1.75005865144052        3.64998877842321        1.70251461837350
C           -3.00910829697473        4.18752488201197        1.44021836227144
C           -4.03488720470816        3.39418301701706        0.96664074453139
C           -3.77917644751607        2.04740012737019        0.74156574273158
C           -4.58722586104521        0.95468092244596        0.28809894650820
C           -5.90298353206396        0.80108934931606       -0.12616019248443
O           -6.86862307719540        1.75839109471065       -0.19413437073988
C           -7.98958078683474        1.13080731847929       -0.65795726002359
C           -9.22238697108515        1.71439791267922       -0.88500361334925
C          -10.23260847555258        0.89586158652773       -1.36055456768157
C          -10.01636398687663       -0.45876828729934       -1.60048933699701
C           -8.78393289854967       -1.03989437536796       -1.37224307428579
C           -7.75422412926575       -0.23848169883033       -0.89513146418903
C           -6.37542595789085       -0.45546235828349       -0.54458723436478
C           -5.53065453700244       -1.56754145011474       -0.56818567608800
C           -4.22132914237928       -1.44073678030503       -0.15854400273040
C           -3.76519162155797       -0.19671240696760        0.28085903576693
C           -0.18420553162507       -0.39547314626717        0.27898120089950
C            0.89869620538861       -1.25370211763751        0.41693499524904
N            2.11120774761786       -0.93243809813144       -0.21920778886501
C            2.77189110918154       -1.73353525632750       -1.12904192875266
C            2.38693812170933       -2.94687997243904       -1.68123604180273
C            3.24627152627912       -3.54167396403505       -2.58467127061708
C            4.45373597527275       -2.94475483521147       -2.94593194681455
C            4.82939952340883       -1.72448555585867       -2.42172435871786
C            3.98182717284774       -1.10952330709245       -1.50851144423116
C            4.03989594302138        0.12528029815340       -0.78407816087046
C            4.93987519751868        1.17694110402608       -0.67821071004974
O            6.12671426675279        1.32142556928830       -1.32897042320630
C            6.65292737364253        2.50538122602705       -0.89582264031514
C            7.85689528476320        3.06101236990141       -1.28788224421993
C            8.20755783278379        4.27545609862698       -0.72324213096074
C            7.38224593844164        4.91139209124283        0.20075093487460
C            6.18005317010006        4.35411965138066        0.59154094049607
C            5.80738196327267        3.13478296036672        0.03966893732270
C            4.67715512034867        2.25590789654846        0.18519110168077
C            3.51807411232609        2.28838746672599        0.96412423786947
C            2.61031723976737        1.25606240996347        0.87688081053875
C            2.86517967648260        0.19993689033148        0.00156139372548
N            1.62054445684813       -4.66898730651915        1.21706386842332
C            2.59317564053268       -5.54375337000002        1.39178440816708
H            4.65869897444197       -5.93958505671912        1.83095393420267
H            5.17015109203446       -3.51470219771034        2.15253557203195
H            3.34869358816169       -1.86375383525820        1.85532940124500
H           -0.58517644759719       -3.70040565250343        2.20224704109233
H           -2.50613051382305       -2.16102414927308        1.99049601920554
H           -0.50337963807818        1.90549269205298        1.71048018097443
H           -0.97127078703004        4.29237593915388        2.08661259365330
H           -3.18287307789550        5.23814936212300        1.62024983860830
H           -5.01775778649877        3.79809559803816        0.77615020880082
H           -9.38149100053099        2.76456482080968       -0.69676563044844
H          -11.20825139619492        1.31809801141087       -1.54906921299188
H          -10.83039812518426       -1.06387638263696       -1.97144664112558
H           -8.61960745737252       -2.09014150821557       -1.55856613067506
H           -5.90598958516255       -2.51890729951888       -0.91111502377824
H           -3.55466219329292       -2.28798191672866       -0.18987607215055
H           -0.07508670515978        0.50757743631479       -0.30270027121127
H            1.45201785283299       -3.41425919160877       -1.41226656894362
H            2.97477698601532       -4.49069768771779       -3.02306974488435
H            5.09801870106461       -3.44495969942684       -3.65387002395615
H            5.75554490803645       -1.24907713893912       -2.70778634988951
H            8.49056277374967        2.56224865358609       -2.00427037742429
H            9.14084813574850        4.73836682609202       -1.00656769345129
H            7.69146962686541        5.85835195571971        0.61776740147032
H            5.54234240417226        4.84937003725595        1.30767781016609
H            3.34292847433183        3.11633441588071        1.63290276706940
H            1.71995317561374        1.25293973202043        1.48543353043748
H            2.30926945803006       -6.58117785394601        1.26624780714650

          :  Hamiltonian                  GFN2-xTB          :
         :: gradient norm              0.000065843671 Eh/a0 ::
         :: HOMO-LUMO gap              2.568782006132 eV    ::
         :: SCC energy              -133.852248217871 Eh    ::
         :: -> dispersion             -0.118394898152 Eh    ::
         :: -> Gsolv                  -0.052447322102 Eh    ::
         :: repulsion energy           2.348089531803 Eh    ::

    * Orbital Energies and Occupations

         #    Occupation            Energy/Eh            Energy/eV
      -------------------------------------------------------------
         1        2.0000           -0.7374407             -20.0668
       ...           ...                  ...                  ...
       109        2.0000           -0.4211492             -11.4601
       110        2.0000           -0.4206231             -11.4457
       111        2.0000           -0.4198748             -11.4254
       112        2.0000           -0.4072484             -11.0818
       113        2.0000           -0.4038382             -10.9890
       114        2.0000           -0.4024012             -10.9499
       115        2.0000           -0.3971633             -10.8074
       116        2.0000           -0.3952965             -10.7566
       117        2.0000           -0.3788864             -10.3100
       118        2.0000           -0.3772263             -10.2649
       119        2.0000           -0.3756376             -10.2216
       120        2.0000           -0.3678038             -10.0084
       121        2.0000           -0.3648665              -9.9285 (HOMO)
       122                         -0.2704656              -7.3597 (LUMO)
       123                         -0.2560915              -6.9686
       124                         -0.2528865              -6.8814
       125                         -0.2498081              -6.7976
       126                         -0.2446999              -6.6586
       127                         -0.2432884              -6.6202
       128                         -0.2430880              -6.6148
       129                         -0.2238750              -6.0919
       130                         -0.2182275              -5.9383
       131                         -0.2167865              -5.8991
       132                         -0.2164268              -5.8893
       ...                                ...                  ...
       235                          0.7609984              20.7078
      -------------------------------------------------------------
                  HL-Gap            0.0944009 Eh            2.5688 eV

     #   Z          covCN         q      C6AA      α(0)
     1   6 C        2.914    -0.041    29.017     8.833
     2   6 C        2.928    -0.011    28.301     8.724
     3   6 C        2.917    -0.043    29.062     8.840
     4   6 C        2.963     0.100    25.775     8.327
     5   6 C        2.980    -0.008    28.211     8.713
     6   6 C        2.925    -0.025    28.621     8.773
     7   6 C        2.919    -0.044    29.105     8.847
     8   6 C        2.911     0.067    26.500     8.441
     9   7 N        2.805    -0.033    21.872     6.946
    10   6 C        3.075     0.045    26.920     8.507
    11   6 C        2.910    -0.050    29.237     8.866
    12   6 C        2.923    -0.034    28.837     8.806
    13   6 C        2.920    -0.040    28.996     8.830
    14   6 C        2.912    -0.033    28.818     8.803
    15   6 C        3.064    -0.012    28.242     8.715
    16   6 C        3.064    -0.038    28.884     8.813
    17   6 C        3.095     0.124    25.174     8.223
    18   8 O        1.714    -0.240    17.982     5.726
    19   6 C        3.099     0.124    25.168     8.221
    20   6 C        2.908    -0.054    29.339     8.882
    21   6 C        2.926    -0.035    28.865     8.811
    22   6 C        2.920    -0.039    28.975     8.827
    23   6 C        2.913    -0.036    28.903     8.816
    24   6 C        3.059    -0.020    28.439     8.745
    25   6 C        3.050    -0.033    28.769     8.797
    26   6 C        2.915    -0.038    28.946     8.822
    27   6 C        2.911    -0.059    29.476     8.903
    28   6 C        3.068     0.043    26.974     8.516
    29   6 C        2.924    -0.056    29.379     8.889
    30   6 C        2.914     0.062    26.615     8.460
    31   7 N        2.806    -0.040    22.015     6.969
    32   6 C        3.079     0.046    26.884     8.500
    33   6 C        2.909    -0.050    29.240     8.867
    34   6 C        2.924    -0.034    28.849     8.808
    35   6 C        2.920    -0.041    29.016     8.833
    36   6 C        2.912    -0.034    28.847     8.807
    37   6 C        3.065    -0.013    28.281     8.720
    38   6 C        3.064    -0.039    28.912     8.817
    39   6 C        3.094     0.124    25.174     8.223
    40   8 O        1.714    -0.241    17.987     5.726
    41   6 C        3.099     0.124    25.169     8.222
    42   6 C        2.908    -0.054    29.336     8.881
    43   6 C        2.926    -0.035    28.862     8.810
    44   6 C        2.920    -0.039    28.972     8.827
    45   6 C        2.913    -0.036    28.903     8.816
    46   6 C        3.058    -0.020    28.441     8.746
    47   6 C        3.050    -0.034    28.785     8.799
    48   6 C        2.915    -0.038    28.954     8.824
    49   6 C        2.911    -0.060    29.481     8.903
    50   6 C        3.072     0.044    26.950     8.512
    51   7 N        1.844    -0.244    27.226     7.733
    52   6 C        2.905     0.061    26.633     8.462
    53   1 H        0.926     0.044     2.403     2.424
    54   1 H        0.926     0.042     2.428     2.437
    55   1 H        0.926     0.036     2.506     2.475
    56   1 H        0.926     0.063     2.167     2.302
    57   1 H        0.926     0.059     2.210     2.325
    58   1 H        0.926     0.032     2.552     2.498
    59   1 H        0.926     0.035     2.514     2.480
    60   1 H        0.926     0.032     2.560     2.502
    61   1 H        0.926     0.036     2.509     2.477
    62   1 H        0.926     0.043     2.407     2.426
    63   1 H        0.926     0.042     2.427     2.436
    64   1 H        0.926     0.040     2.453     2.449
    65   1 H        0.926     0.041     2.440     2.443
    66   1 H        0.926     0.044     2.390     2.417
    67   1 H        0.926     0.044     2.394     2.419
    68   1 H        0.926     0.057     2.233     2.337
    69   1 H        0.926     0.032     2.560     2.502
    70   1 H        0.926     0.034     2.529     2.487
    71   1 H        0.926     0.033     2.550     2.497
    72   1 H        0.926     0.036     2.500     2.472
    73   1 H        0.926     0.043     2.404     2.425
    74   1 H        0.926     0.042     2.421     2.433
    75   1 H        0.926     0.040     2.448     2.447
    76   1 H        0.926     0.041     2.440     2.443
    77   1 H        0.926     0.044     2.394     2.420
    78   1 H        0.926     0.037     2.487     2.466
    79   1 H        0.925     0.040     2.452     2.449

molecular dipole:
                 x           y           z       tot (Debye)
 q only:        0.012      -0.575       0.675
   full:        0.420      -0.503       0.740       2.513

 projected vibrational frequencies (cm⁻¹)
eigval :       -0.00    -0.00    -0.00    -0.00     0.00     0.00
eigval :        8.26    13.45    16.62    25.00    29.16    39.69
eigval :       51.94    57.35    60.40    63.78    67.51    87.05
eigval :       99.06   107.72   109.96   129.54   137.57   147.64
eigval :      151.19   154.62   166.34   190.26   197.09   218.00
eigval :      230.78   252.42   257.21   261.52   262.29   289.97
eigval :      297.84   310.77   317.14   332.66   343.62   369.89
eigval :      374.26   374.87   400.02   405.23   409.34   411.17
eigval :      429.56   433.07   437.38   441.27   454.82   461.51
eigval :      490.26   494.84   500.15   506.20   527.34   535.47
eigval :      537.00   542.99   545.79   553.77   555.51   563.82
eigval :      564.40   576.51   587.55   596.30   608.88   611.75
eigval :      615.15   621.61   624.71   644.78   666.59   674.94
eigval :      678.76   678.93   690.11   700.61   701.49   702.65
eigval :      709.09   709.42   712.41   718.92   720.99   768.42
eigval :      769.93   771.40   773.06   775.74   776.41   813.31
eigval :      815.01   820.85   832.14   837.90   840.17   850.60
eigval :      858.20   863.39   867.43   868.17   870.67   873.79
eigval :      886.87   893.78   894.58   895.84   898.39   900.93
eigval :      903.86   905.21   908.66   915.58   918.71   918.93
eigval :      921.50   923.02   926.48   933.19   967.19   985.04
eigval :     1000.24  1004.63  1026.36  1058.60  1060.41  1061.84
eigval :     1066.15  1074.04  1079.58  1093.92  1095.99  1098.69
eigval :     1124.88  1132.32  1134.27  1140.67  1140.95  1149.71
eigval :     1165.41  1168.77  1171.26  1173.19  1176.87  1179.23
eigval :     1183.34  1190.91  1201.42  1202.76  1206.46  1225.70
eigval :     1230.90  1242.56  1244.99  1245.30  1246.64  1273.30
eigval :     1274.02  1277.15  1289.99  1298.33  1300.19  1305.06
eigval :     1307.99  1312.44  1337.65  1351.37  1351.66  1354.86
eigval :     1357.86  1362.64  1388.58  1396.12  1398.76  1401.05
eigval :     1408.04  1414.45  1415.79  1425.75  1427.82  1434.17
eigval :     1445.87  1457.50  1461.30  1473.03  1473.60  1483.75
eigval :     1484.16  1486.27  1546.26  1557.38  1568.57  1568.85
eigval :     1573.66  1578.38  1578.61  1583.47  1590.58  1590.72
eigval :     1599.87  1600.30  1607.51  1607.72  1623.06  1623.57
eigval :     3048.63  3072.87  3075.19  3076.42  3078.32  3079.25
eigval :     3082.70  3082.95  3085.98  3086.21  3091.18  3092.83
eigval :     3092.97  3093.38  3093.44  3094.55  3094.58  3097.06
eigval :     3097.22  3098.26  3098.98  3100.86  3101.45  3101.90
eigval :     3104.85  3105.17  3108.67

   temp. (K)  partition function   enthalpy   heat capacity  entropy
                                   cal/mol     cal/K/mol   cal/K/mol   J/K/mol
 298.15  VIB  0.626E+17            22270.142    145.419    137.047
         ROT  0.114E+09              888.752      2.981     39.843
         INT  0.711E+25            23158.894    148.400    176.890
         TR   0.166E+29             1481.254      4.968     45.348
         TOT                       24640.1483   153.3683   222.2379   929.8434

       T/K    H(0)-H(T)+PV         H(T)/Eh          T*S/Eh         G(T)/Eh
   ------------------------------------------------------------------------
    298.15    0.392666E-01    0.629234E+00    0.105592E+00    0.523641E+00
   ------------------------------------------------------------------------

         :::::::::::::::::::::::::::::::::::::::::::::::::::::
         ::                  THERMODYNAMIC                  ::
         :::::::::::::::::::::::::::::::::::::::::::::::::::::
         :: total free energy        -130.980517204957 Eh   ::
         ::.................................................::
         :: total energy             -131.504158677457 Eh   ::
         :: zero point energy           0.589967295669 Eh   ::
         :: G(RRHO) w/o ZPVE           -0.066325823168 Eh   ::
         :: G(RRHO) contrib.            0.523641472500 Eh   ::
         :::::::::::::::::::::::::::::::::::::::::::::::::::::

           -------------------------------------------------
          | TOTAL ENERGY             -131.504158677457 Eh   |
          | TOTAL ENTHALPY           -130.874924806043 Eh   |
          | TOTAL FREE ENERGY        -130.980517204957 Eh   |
          | GRADIENT NORM               0.000065821224 Eh/α |
          | HOMO-LUMO GAP               2.568779850223 eV   |
           -------------------------------------------------

 * finished run on 2025/09/14 at 09:46:36.223
