   * xtb version 6.7.1 (edcfbbe) compiled by 'albert@albert-system' on 2024-07-22

   ID    Z sym.   atoms
    1    6 C      1-8, 10-17, 19-30, 32-39, 41-50, 52
    2    7 N      9, 31, 51
    3    8 O      18, 40
    4    1 H      53-79

          program call               : xtb data2507/toluene/2BFCzPy/2BFCzPy_toluene_S0_finalOpt.xtbopt.xyz --gfn 2 --uhf 2 --gbsa toluene --ohess vtight --parallel 40 --molden --ceasefiles --namespace data2507/toluene/2BFCzPy/2BFCzPy_toluene_T1_preOpt
      * Solvation model:               GBSA
        Solvent                        toluene
        Solvent mass                       9.2140E+01 g/mol
          :  Hamiltonian                  GFN2-xTB          :
 * total energy  :  -131.4021059 Eh     change       -0.1960728E-08 Eh
 * total energy  :  -131.4050872 Eh     change       -0.2981336E-02 Eh
 * total energy  :  -131.4069681 Eh     change       -0.1880896E-02 Eh
 * total energy  :  -131.4075256 Eh     change       -0.5574225E-03 Eh
 * total energy  :  -131.4082668 Eh     change       -0.7411997E-03 Eh
 * total energy  :  -131.4086779 Eh     change       -0.4110985E-03 Eh
 * total energy  :  -131.4090012 Eh     change       -0.3233003E-03 Eh
 * total energy  :  -131.4092021 Eh     change       -0.2009061E-03 Eh
 * total energy  :  -131.4093241 Eh     change       -0.1219859E-03 Eh
 * total energy  :  -131.4094148 Eh     change       -0.9074142E-04 Eh
 * total energy  :  -131.4100302 Eh     change       -0.8357161E-06 Eh
 * total energy  :  -131.4100311 Eh     change       -0.8570661E-06 Eh
 * total energy  :  -131.4100319 Eh     change       -0.8017031E-06 Eh
 * total energy  :  -131.4100326 Eh     change       -0.6969276E-06 Eh
 * total energy  :  -131.4100331 Eh     change       -0.5762892E-06 Eh
 * total energy  :  -131.4100338 Eh     change       -0.6877003E-06 Eh
 * total energy  :  -131.4100346 Eh     change       -0.7597237E-06 Eh
 * total energy  :  -131.4100356 Eh     change       -0.9955398E-06 Eh
 * total energy  :  -131.4100356 Eh     change       -0.5974812E-08 Eh
   *** GEOMETRY OPTIMIZATION CONVERGED AFTER 68 ITERATIONS ***

 final structure:
================
79
 xtb: 6.7.1 (edcfbbe)
C            3.78436517446908       -5.38213403673270        2.11037287513465
C            4.16792289822057       -4.05360810346115        1.87925729265559
C            3.22058306741865       -3.11592974570522        1.57171430303608
C            1.85064872326920       -3.49271540181331        1.46318451855411
C            0.79439956831916       -2.61407398332150        1.12022336575149
C           -0.54104725118675       -2.96589426775860        1.47991131973831
C           -1.58167673852016       -2.10256659233705        1.35347666488342
C           -1.37593718191248       -0.79764858540433        0.82661437471075
N           -2.43626829169967        0.08907631808531        0.69766608522940
C           -2.41568263320728        1.42770452701294        1.05403778840086
C           -1.39989653706752        2.17731972633522        1.62903947176463
C           -1.65577397844516        3.50575712607912        1.91995994758540
C           -2.89789270765350        4.07998259347841        1.65656388966852
C           -3.92825323786329        3.33288476637626        1.11472233388445
C           -3.69052009445812        1.99834001840478        0.81716210683893
C           -4.50824635208973        0.94605923699951        0.29301887946552
C           -5.81768658214986        0.83351084203657       -0.14110068793278
O           -6.77287778869321        1.80060870169282       -0.15522845660164
C           -7.89552838940291        1.21662105577641       -0.67150210117089
C           -9.11928390766950        1.82466697310533       -0.87108781038591
C          -10.13263966410304        1.04753891907679       -1.41050950669513
C           -9.92541730740330       -0.29075165536878       -1.73844365028532
C           -8.70155628539958       -0.89749203098475       -1.53849574181268
C           -7.66760102732095       -0.13789678979227       -0.99803496308313
C           -6.30018440087867       -0.39157901922061       -0.65015525148858
C           -5.46131471504267       -1.50905486408324       -0.74907593497795
C           -4.15648451752134       -1.42161302433553       -0.31787978279612
C           -3.69411330733623       -0.21819824786437        0.22397604865509
C           -0.09422906825312       -0.44997236750091        0.38417852294187
C            0.95941009688901       -1.33048901177376        0.47735905753844
N            2.16958065776795       -0.98858348019903       -0.14049466713960
C            2.80539750303767       -1.74004861505454       -1.11208393242398
C            2.44084143190285       -2.95960654073221       -1.66413294665126
C            3.26208389101919       -3.49479873566886       -2.63891615390817
C            4.41140179088029       -2.83286979584595       -3.06768837251730
C            4.76817473431192       -1.60653411116969       -2.53874760056813
C            3.95827048271333       -1.05219904632264       -1.55761829822123
C            4.00535119908751        0.17289277249833       -0.81394435479218
C            4.86060133516766        1.26080167376596       -0.74173921418755
O            5.99435227641732        1.47371714066513       -1.46174423292347
C            6.49562150259249        2.67032486673777       -1.03311716490073
C            7.64413448770675        3.28942681516714       -1.48853804167041
C            7.97804643595976        4.50532196492047       -0.91501896180588
C            7.18925764045807        5.08057709424297        0.07872430982234
C            6.04153975299213        4.46092106515255        0.53228190686086
C            5.68537453288110        3.23892906950561       -0.02822996003619
C            4.60744814047377        2.30983262240058        0.16579817160558
C            3.50142691689250        2.27116679544487        1.02116066590530
C            2.63710119913976        1.20110295935967        0.96543790305772
C            2.87828859809074        0.17614557618084        0.04740974079614
N            1.50803584280375       -4.78300391065131        1.75122039426343
C            2.42388012224774       -5.66349602951911        2.05248848036974
H            4.50410312158922       -6.15073661765843        2.33847056151239
H            5.20757743297506       -3.76903963763349        1.96615758676191
H            3.49983490703385       -2.07925044314369        1.47846284758361
H           -0.68384295961731       -3.94666071021626        1.90559245890737
H           -2.56611721368025       -2.37618958719546        1.70016407279167
H           -0.44329153441415        1.73734785106618        1.85923200601233
H           -0.87764200338838        4.10805355418425        2.36424355413987
H           -3.05934109248174        5.12115561151561        1.89313096187181
H           -4.89973106770264        3.76527245175071        0.92959551466336
H           -9.27252384518840        2.86098915444570       -0.61459823857298
H          -11.10246385533475        1.49037541120984       -1.57979782711731
H          -10.74112856742788       -0.86165314767966       -2.15656458132163
H           -8.54356701234736       -1.93411815717293       -1.79294062153080
H           -5.83837216867972       -2.42641954121425       -1.17183180043616
H           -3.49274593593305       -2.26569845675039       -0.41584250442697
H            0.05044458341011        0.49131072797794       -0.12652808673058
H            1.54978942008039       -3.47479514803819       -1.34047848395861
H            3.00505621244471       -4.44619490749310       -3.08035409180802
H            5.02706100659733       -3.28554475321725       -3.83073177235730
H            5.65091602018024       -1.08377212391560       -2.87457156872430
H            8.24973154946477        2.83763088782659       -2.25816381482904
H            8.86929354913011        5.01658929323346       -1.24605568719253
H            7.48486144799736        6.02963400746594        0.50059241962773
H            5.43298314530200        4.90857795333557        1.30271236906370
H            3.33744407877803        3.07296991931289        1.72334336718961
H            1.79393012370451        1.13792392614594        1.63446281470320
H            2.05734913465173       -6.66533113999247        2.24768479705643

          :  Hamiltonian                  GFN2-xTB          :
         :: gradient norm              0.000052666374 Eh/a0 ::
         :: HOMO-LUMO gap              0.402372840354 eV    ::
         :: SCC energy              -133.741442256998 Eh    ::
         :: -> dispersion             -0.117563034479 Eh    ::
         :: -> Gsolv                  -0.052639289828 Eh    ::
         :: repulsion energy           2.331406663284 Eh    ::

    * Orbital Energies and Occupations

         #    Occupation            Energy/Eh            Energy/eV
      -------------------------------------------------------------
         1        2.0000           -0.7404403             -20.1484
       ...           ...                  ...                  ...
       110        2.0000           -0.4211145             -11.4591
       111        2.0000           -0.4120514             -11.2125
       112        2.0000           -0.4065438             -11.0626
       113        2.0000           -0.4063794             -11.0581
       114        2.0000           -0.4006287             -10.9017
       115        2.0000           -0.3992021             -10.8628
       116        2.0000           -0.3862751             -10.5111
       117        2.0000           -0.3815817             -10.3834
       118        2.0000           -0.3808336             -10.3630
       119        1.9987           -0.3701076             -10.0711
       120        1.8580           -0.3655137              -9.9461
       121        1.1433           -0.3621062              -9.8534
       122        0.9996           -0.2727045              -7.4207 (HOMO)
       123        0.0004           -0.2579179              -7.0183 (LUMO)
       124        0.0000           -0.2551177              -6.9421
       125                         -0.2476725              -6.7395
       126                         -0.2474351              -6.7331
       127                         -0.2329892              -6.3400
       128                         -0.2278770              -6.2008
       129                         -0.2221160              -6.0441
       130                         -0.2205627              -6.0018
       131                         -0.2192968              -5.9674
       132                         -0.2183215              -5.9408
       133                         -0.2049900              -5.5781
       ...                                ...                  ...
       235                          0.7572471              20.6057
      -------------------------------------------------------------
                  HL-Gap            0.0147867 Eh            0.4024 eV

     #   Z          covCN         q      C6AA      α(0)
     1   6 C        2.912    -0.062    29.542     8.913
     2   6 C        2.920    -0.023    28.578     8.766
     3   6 C        2.913    -0.047    29.178     8.858
     4   6 C        2.936     0.073    26.375     8.423
     5   6 C        2.971    -0.017    28.425     8.745
     6   6 C        2.919    -0.038    28.955     8.824
     7   6 C        2.910    -0.045    29.113     8.848
     8   6 C        2.909     0.033    27.258     8.561
     9   7 N        2.799     0.003    21.214     6.841
    10   6 C        3.075     0.042    26.989     8.518
    11   6 C        2.910    -0.041    29.028     8.835
    12   6 C        2.922    -0.034    28.858     8.810
    13   6 C        2.920    -0.033    28.834     8.806
    14   6 C        2.911    -0.031    28.766     8.795
    15   6 C        3.059    -0.008    28.171     8.704
    16   6 C        3.059    -0.037    28.866     8.811
    17   6 C        3.093     0.128    25.087     8.209
    18   8 O        1.714    -0.236    17.906     5.713
    19   6 C        3.099     0.125    25.137     8.216
    20   6 C        2.908    -0.053    29.311     8.877
    21   6 C        2.926    -0.033    28.817     8.803
    22   6 C        2.919    -0.038    28.939     8.822
    23   6 C        2.912    -0.035    28.861     8.809
    24   6 C        3.058    -0.019    28.418     8.742
    25   6 C        3.050    -0.026    28.596     8.770
    26   6 C        2.913    -0.042    29.032     8.835
    27   6 C        2.910    -0.050    29.241     8.867
    28   6 C        3.066     0.037    27.101     8.536
    29   6 C        2.918    -0.057    29.424     8.895
    30   6 C        2.906     0.039    27.118     8.539
    31   7 N        2.804    -0.016    21.550     6.895
    32   6 C        3.079     0.047    26.855     8.496
    33   6 C        2.909    -0.042    29.051     8.838
    34   6 C        2.924    -0.033    28.815     8.803
    35   6 C        2.920    -0.036    28.900     8.816
    36   6 C        2.911    -0.032    28.789     8.798
    37   6 C        3.062    -0.010    28.210     8.710
    38   6 C        3.061    -0.037    28.866     8.811
    39   6 C        3.093     0.127    25.121     8.215
    40   8 O        1.714    -0.237    17.927     5.717
    41   6 C        3.100     0.125    25.138     8.216
    42   6 C        2.908    -0.053    29.312     8.878
    43   6 C        2.926    -0.033    28.817     8.803
    44   6 C        2.920    -0.038    28.944     8.822
    45   6 C        2.912    -0.035    28.866     8.810
    46   6 C        3.058    -0.019    28.414     8.742
    47   6 C        3.051    -0.028    28.659     8.780
    48   6 C        2.914    -0.039    28.969     8.826
    49   6 C        2.911    -0.054    29.332     8.881
    50   6 C        3.070     0.042    26.985     8.518
    51   7 N        1.844    -0.245    27.243     7.735
    52   6 C        2.881     0.062    26.598     8.455
    53   1 H        0.926     0.025     2.656     2.548
    54   1 H        0.925     0.026     2.644     2.543
    55   1 H        0.926     0.026     2.641     2.541
    56   1 H        0.926     0.055     2.263     2.353
    57   1 H        0.926     0.046     2.373     2.409
    58   1 H        0.926     0.041     2.432     2.439
    59   1 H        0.926     0.040     2.447     2.446
    60   1 H        0.926     0.038     2.471     2.458
    61   1 H        0.926     0.041     2.435     2.440
    62   1 H        0.926     0.046     2.368     2.406
    63   1 H        0.926     0.045     2.389     2.417
    64   1 H        0.926     0.042     2.419     2.432
    65   1 H        0.926     0.043     2.404     2.425
    66   1 H        0.926     0.047     2.355     2.400
    67   1 H        0.926     0.051     2.305     2.374
    68   1 H        0.926     0.043     2.407     2.426
    69   1 H        0.926     0.037     2.493     2.469
    70   1 H        0.926     0.038     2.478     2.462
    71   1 H        0.926     0.037     2.483     2.464
    72   1 H        0.926     0.041     2.440     2.443
    73   1 H        0.926     0.046     2.372     2.408
    74   1 H        0.926     0.045     2.388     2.416
    75   1 H        0.926     0.043     2.415     2.430
    76   1 H        0.926     0.043     2.403     2.424
    77   1 H        0.926     0.048     2.345     2.394
    78   1 H        0.926     0.043     2.404     2.425
    79   1 H        0.925     0.030     2.591     2.517

molecular dipole:
                 x           y           z       tot (Debye)
 q only:       -0.807       0.944      -0.147
   full:       -0.423       0.933      -0.102       2.615

 projected vibrational frequencies (cm⁻¹)
eigval :       -0.00    -0.00    -0.00    -0.00     0.00     0.00
eigval :        6.40    14.71    17.94    25.33    27.72    45.47
eigval :       56.44    59.15    62.42    66.43    68.34    88.85
eigval :      103.71   110.23   115.73   125.87   135.14   147.54
eigval :      148.88   155.99   156.79   183.07   195.15   220.01
eigval :      232.20   247.02   260.49   261.08   261.67   292.18
eigval :      300.36   310.54   316.05   325.83   336.36   364.76
eigval :      371.85   382.50   387.57   393.78   399.02   406.25
eigval :      426.53   429.65   434.82   439.69   439.93   447.49
eigval :      472.81   489.73   492.66   502.00   513.01   521.90
eigval :      535.27   539.28   541.81   545.35   553.21   558.51
eigval :      560.78   564.44   569.36   584.35   596.06   599.92
eigval :      606.72   619.43   621.25   628.92   652.64   656.27
eigval :      667.87   670.07   675.63   679.01   687.62   698.19
eigval :      701.88   705.09   706.67   706.83   709.40   709.86
eigval :      758.67   766.86   770.54   771.16   773.09   785.17
eigval :      804.68   815.18   816.87   821.85   829.20   835.06
eigval :      845.08   855.84   859.41   862.69   864.16   867.86
eigval :      869.47   878.61   885.11   891.71   895.17   896.31
eigval :      899.14   899.69   902.93   903.11   906.46   914.21
eigval :      916.77   918.69   918.93   919.04   925.37   957.56
eigval :      987.89   996.69  1003.05  1037.56  1048.89  1057.19
eigval :     1060.25  1068.00  1068.63  1075.32  1091.45  1092.62
eigval :     1108.49  1120.88  1125.21  1135.66  1138.93  1142.43
eigval :     1156.06  1163.75  1167.64  1168.54  1172.73  1177.26
eigval :     1179.02  1183.72  1193.19  1196.90  1198.54  1203.92
eigval :     1219.84  1225.85  1233.51  1240.47  1242.83  1263.72
eigval :     1269.61  1271.52  1280.63  1286.52  1293.82  1297.50
eigval :     1310.95  1315.63  1337.96  1341.47  1345.48  1350.22
eigval :     1351.12  1351.27  1365.10  1374.67  1381.93  1388.88
eigval :     1393.06  1394.88  1396.45  1400.85  1405.04  1410.31
eigval :     1422.08  1429.80  1450.15  1453.17  1458.91  1461.93
eigval :     1469.04  1471.15  1475.43  1477.99  1529.74  1537.94
eigval :     1541.87  1551.97  1559.52  1569.15  1572.64  1579.55
eigval :     1582.28  1586.44  1587.74  1596.72  1598.95  1608.84
eigval :     3020.59  3057.82  3078.50  3079.39  3080.08  3080.85
eigval :     3081.93  3085.39  3087.24  3087.71  3089.10  3091.89
eigval :     3094.01  3095.96  3096.13  3096.21  3098.07  3099.31
eigval :     3099.35  3101.20  3102.95  3103.67  3105.38  3105.53
eigval :     3107.67  3108.41  3109.52

   temp. (K)  partition function   enthalpy   heat capacity  entropy
                                   cal/mol     cal/K/mol   cal/K/mol   J/K/mol
 298.15  VIB  0.649E+17            22519.762    147.779    138.372
         ROT  0.115E+09              888.752      2.981     39.870
         INT  0.748E+25            23408.514    150.760    178.242
         TR   0.166E+29             1481.254      4.968     45.348
         TOT                       24889.7683   155.7279   223.5903   935.5016

       T/K    H(0)-H(T)+PV         H(T)/Eh          T*S/Eh         G(T)/Eh
   ------------------------------------------------------------------------
    298.15    0.396644E-01    0.624991E+00    0.106235E+00    0.518756E+00
   ------------------------------------------------------------------------

         :::::::::::::::::::::::::::::::::::::::::::::::::::::
         ::                  THERMODYNAMIC                  ::
         :::::::::::::::::::::::::::::::::::::::::::::::::::::
         :: total free energy        -130.891279365881 Eh   ::
         ::.................................................::
         :: total energy             -131.410035590441 Eh   ::
         :: zero point energy           0.585326800492 Eh   ::
         :: G(RRHO) w/o ZPVE           -0.066570575933 Eh   ::
         :: G(RRHO) contrib.            0.518756224560 Eh   ::
         :::::::::::::::::::::::::::::::::::::::::::::::::::::

           -------------------------------------------------
          | TOTAL ENERGY             -131.410035590441 Eh   |
          | TOTAL ENTHALPY           -130.785044419367 Eh   |
          | TOTAL FREE ENERGY        -130.891279365881 Eh   |
          | GRADIENT NORM               0.000052784107 Eh/α |
          | HOMO-LUMO GAP               0.402365651510 eV   |
           -------------------------------------------------

 * finished run on 2025/09/14 at 09:46:47.122
