   * xtb version 6.7.1 (edcfbbe) compiled by 'albert@albert-system' on 2024-07-22

   ID    Z sym.   atoms
    1    6 C      1-8, 10-17, 19-30, 32-39, 41-50, 52
    2    7 N      9, 31, 51
    3    8 O      18, 40
    4    1 H      53-79

          program call               : xtb data2507/toluene/2BFCzPy/2BFCzPy.xyz --gfn 2 --gbsa toluene --ohess vtight --parallel 40 --molden --ceasefiles --namespace data2507/toluene/2BFCzPy/2BFCzPy_toluene_S0_preOpt
      * Solvation model:               GBSA
        Solvent                        toluene
        Solvent mass                       9.2140E+01 g/mol
          :  Hamiltonian                  GFN2-xTB          :
 * total energy  :  -131.4663612 Eh     change       -0.1605343E-08 Eh
 * total energy  :  -131.4866393 Eh     change       -0.2027814E-01 Eh
 * total energy  :  -131.4926920 Eh     change       -0.6052645E-02 Eh
 * total energy  :  -131.4953952 Eh     change       -0.2703205E-02 Eh
 * total energy  :  -131.4981321 Eh     change       -0.2736963E-02 Eh
 * total energy  :  -131.5000432 Eh     change       -0.1911015E-02 Eh
 * total energy  :  -131.5013311 Eh     change       -0.1287935E-02 Eh
 * total energy  :  -131.5021362 Eh     change       -0.8051304E-03 Eh
 * total energy  :  -131.5025933 Eh     change       -0.4570925E-03 Eh
 * total energy  :  -131.5028845 Eh     change       -0.2912135E-03 Eh
 * total energy  :  -131.5041096 Eh     change       -0.2117377E-06 Eh
 * total energy  :  -131.5041098 Eh     change       -0.2158068E-06 Eh
 * total energy  :  -131.5041100 Eh     change       -0.1974937E-06 Eh
 * total energy  :  -131.5041102 Eh     change       -0.1667756E-06 Eh
 * total energy  :  -131.5041103 Eh     change       -0.1442697E-06 Eh
 * total energy  :  -131.5041105 Eh     change       -0.1462390E-06 Eh
 * total energy  :  -131.5041107 Eh     change       -0.1858452E-06 Eh
 * total energy  :  -131.5041109 Eh     change       -0.2163045E-06 Eh
 * total energy  :  -131.5041109 Eh     change       -0.1772605E-08 Eh
   *** GEOMETRY OPTIMIZATION CONVERGED AFTER 68 ITERATIONS ***

 final structure:
================
79
 xtb: 6.7.1 (edcfbbe)
C            4.24745627555119        4.46779211755869       -0.02958963106954
C            3.90069636665389        3.68980650530676        1.06455318516007
C            2.77066517649968        2.89494601484710        0.99202272457878
C            2.02435053933311        2.89732072477030       -0.18722212782213
C            0.81371103453321        2.07160040075670       -0.34814684279547
C           -0.31313454482431        2.63106174357165       -0.94603298978147
C           -1.48305272397262        1.91369458586902       -1.08722289392203
C           -1.55037212176804        0.59880806927605       -0.63064728973809
N           -2.72951897728816       -0.14473050298083       -0.77129941238527
C           -2.82581327871675       -1.39769750058493       -1.34811015386156
C           -1.84205260236435       -2.18874972273234       -1.92510063677008
C           -2.22402217436424       -3.40384091602415       -2.46156921783636
C           -3.55173933083635       -3.82798144947110       -2.43715198432182
C           -4.53984998934818       -3.03695368956658       -1.88625458309942
C           -4.17755415538979       -1.81129537072650       -1.34163117141383
C           -4.91844978239584       -0.75086159393701       -0.72567497992272
C           -6.25027699223042       -0.52765502859627       -0.40506109109877
O           -7.30883432325588       -1.35146788925148       -0.63741664637990
C           -8.40629294487304       -0.70239965837168       -0.14782648802371
C           -9.70945003971312       -1.16421223764365       -0.16774236068158
C          -10.67986868522778       -0.34601296918604        0.38488552669956
C          -10.35701032637763        0.89048915455145        0.93811686957184
C           -9.05433897327317        1.35022947107128        0.95639154578214
C           -8.06274383219498        0.54671649310080        0.40740725644710
C           -6.63813585431356        0.66112708407545        0.23836340288573
C           -5.69464302886539        1.63297198766291        0.57993241584376
C           -4.36679864115924        1.43541949807520        0.26999660029619
C           -3.99160414844973        0.26410205134422       -0.39021681223321
C           -0.42628538548752        0.01592272870514       -0.05693223449799
C            0.75212007348409        0.73834739631579        0.07728320688296
N            1.87854211504853        0.09662883370771        0.62119100143132
C            1.94395123622470       -0.48928401642412        1.86946655361186
C            0.97107956666099       -0.58233026356789        2.85488171170053
C            1.31348388163555       -1.20760625915467        4.03886995434113
C            2.59188600814722       -1.72373319917312        4.24781693791014
C            3.56959873604319       -1.61913783278232        3.27860480155251
C            3.24767138143261       -0.99443069985719        2.07998449149682
C            3.98766758071454       -0.69832698366345        0.88916615258960
C            5.28161137574980       -0.92339639933942        0.43998386521925
O            6.29360246951832       -1.54689420112826        1.10370549317802
C            7.36588921379985       -1.53049482072745        0.25760435277997
C            8.61857563981721       -2.05862807582411        0.51005383612062
C            9.57015912922958       -1.93668456927062       -0.48810517264156
C            9.27801276674780       -1.30764558354177       -1.69571007813731
C            8.02532951724611       -0.78143895437196       -1.94598669511619
C            7.05302210774723       -0.89304974859427       -0.95982230682825
C            5.67541267602582       -0.49412349245603       -0.83980156626263
C            4.77483714759715        0.15116965570352       -1.69108383727388
C            3.48397316124650        0.38267363419134       -1.27082214241410
C            3.10833055265332       -0.02312473613460        0.01037635497543
N            2.34263095927009        3.67193359066628       -1.22234177205356
C            3.42057459595516        4.42885464030409       -1.14203096679248
H            5.12592385414568        5.09346074324536       -0.01665138804381
H            4.50028201383019        3.70284322852771        1.96334826786458
H            2.46402031151014        2.29926189702663        1.83776651939410
H           -0.25094974370707        3.64855393811169       -1.29916155156395
H           -2.34282027992640        2.35850689604933       -1.56354281878782
H           -0.81316698745408       -1.86550146890907       -1.96768336485410
H           -1.47573758630104       -4.03832852832018       -2.91350365353068
H           -3.80767503065323       -4.78603169867790       -2.86510243159639
H           -5.57305987297521       -3.34980846702027       -1.87758505344866
H           -9.95088825928796       -2.12351793164013       -0.59789951574302
H          -11.70822444201499       -0.67487471309315        0.38657082473973
H          -11.14312416895788        1.49925870775671        1.35977987523058
H           -8.80774561342321        2.30940631898183        1.38537183723938
H           -6.00977605734574        2.53081268555381        1.08809490809041
H           -3.62582249427833        2.17079994602239        0.54159554504285
H           -0.46229904593260       -1.00714909956888        0.28566680307480
H           -0.01775662069187       -0.17551550184241        2.70528670030051
H            0.57430785062123       -1.29654619656865        4.82139493647210
H            2.81822205326824       -2.20651027961974        5.18705353233719
H            4.56451739267570       -2.00678288577430        3.43767968689330
H            8.83638756946882       -2.54413927328561        1.44834918578840
H           10.55892259152498       -2.33858976143770       -0.32563052535558
H           10.04795291616188       -1.23222503150692       -2.44924504368157
H            7.80135322568277       -0.29559825340509       -2.88334372182277
H            5.09201588039517        0.45882407971793       -2.67513184809193
H            2.77386169664299        0.87125220949150       -1.91960506781661
H            3.62828441914360        5.03070942386510       -2.01797779399655

          :  Hamiltonian                  GFN2-xTB          :
         :: gradient norm              0.000037994464 Eh/a0 ::
         :: HOMO-LUMO gap              2.581203402492 eV    ::
         :: SCC energy              -133.851617474159 Eh    ::
         :: -> dispersion             -0.117243357909 Eh    ::
         :: -> Gsolv                  -0.052860575310 Eh    ::
         :: repulsion energy           2.347506591193 Eh    ::

    * Orbital Energies and Occupations

         #    Occupation            Energy/Eh            Energy/eV
      -------------------------------------------------------------
         1        2.0000           -0.7372865             -20.0626
       ...           ...                  ...                  ...
       109        2.0000           -0.4210251             -11.4567
       110        2.0000           -0.4203637             -11.4387
       111        2.0000           -0.4195597             -11.4168
       112        2.0000           -0.4081584             -11.1066
       113        2.0000           -0.4039954             -10.9933
       114        2.0000           -0.4024458             -10.9511
       115        2.0000           -0.3968217             -10.7981
       116        2.0000           -0.3951837             -10.7535
       117        2.0000           -0.3787793             -10.3071
       118        2.0000           -0.3772184             -10.2646
       119        2.0000           -0.3759303             -10.2296
       120        2.0000           -0.3671070              -9.9895
       121        2.0000           -0.3653875              -9.9427 (HOMO)
       122                         -0.2705300              -7.3615 (LUMO)
       123                         -0.2563646              -6.9760
       124                         -0.2531055              -6.8874
       125                         -0.2495623              -6.7909
       126                         -0.2446237              -6.6566
       127                         -0.2432166              -6.6183
       128                         -0.2429817              -6.6119
       129                         -0.2241379              -6.0991
       130                         -0.2183329              -5.9411
       131                         -0.2169292              -5.9029
       132                         -0.2164468              -5.8898
       ...                                ...                  ...
       235                          0.7608777              20.7045
      -------------------------------------------------------------
                  HL-Gap            0.0948575 Eh            2.5812 eV

     #   Z          covCN         q      C6AA      α(0)
     1   6 C        2.914    -0.041    29.018     8.833
     2   6 C        2.928    -0.012    28.306     8.725
     3   6 C        2.917    -0.043    29.068     8.841
     4   6 C        2.963     0.100    25.783     8.329
     5   6 C        2.979    -0.008    28.211     8.712
     6   6 C        2.925    -0.025    28.623     8.774
     7   6 C        2.919    -0.044    29.090     8.845
     8   6 C        2.912     0.067    26.499     8.441
     9   7 N        2.805    -0.033    21.878     6.947
    10   6 C        3.075     0.045    26.914     8.506
    11   6 C        2.910    -0.050    29.247     8.868
    12   6 C        2.924    -0.033    28.833     8.806
    13   6 C        2.920    -0.040    28.993     8.830
    14   6 C        2.912    -0.033    28.820     8.803
    15   6 C        3.064    -0.012    28.241     8.714
    16   6 C        3.064    -0.038    28.886     8.813
    17   6 C        3.095     0.124    25.172     8.223
    18   8 O        1.714    -0.240    17.981     5.725
    19   6 C        3.100     0.124    25.167     8.221
    20   6 C        2.908    -0.054    29.338     8.882
    21   6 C        2.926    -0.035    28.866     8.811
    22   6 C        2.920    -0.039    28.976     8.827
    23   6 C        2.913    -0.036    28.905     8.816
    24   6 C        3.059    -0.020    28.440     8.746
    25   6 C        3.050    -0.033    28.774     8.798
    26   6 C        2.915    -0.038    28.951     8.823
    27   6 C        2.911    -0.060    29.480     8.903
    28   6 C        3.068     0.043    26.972     8.516
    29   6 C        2.926    -0.056    29.391     8.891
    30   6 C        2.914     0.062    26.614     8.460
    31   7 N        2.807    -0.040    22.013     6.968
    32   6 C        3.078     0.046    26.895     8.502
    33   6 C        2.909    -0.051    29.276     8.872
    34   6 C        2.924    -0.034    28.836     8.806
    35   6 C        2.920    -0.040    29.003     8.831
    36   6 C        2.912    -0.033    28.823     8.804
    37   6 C        3.064    -0.013    28.265     8.718
    38   6 C        3.065    -0.040    28.925     8.819
    39   6 C        3.095     0.123    25.189     8.226
    40   8 O        1.714    -0.240    17.975     5.724
    41   6 C        3.099     0.124    25.171     8.222
    42   6 C        2.908    -0.054    29.337     8.881
    43   6 C        2.926    -0.035    28.864     8.811
    44   6 C        2.920    -0.039    28.971     8.827
    45   6 C        2.913    -0.036    28.904     8.816
    46   6 C        3.059    -0.020    28.442     8.746
    47   6 C        3.050    -0.034    28.796     8.801
    48   6 C        2.916    -0.039    28.966     8.826
    49   6 C        2.911    -0.059    29.473     8.902
    50   6 C        3.071     0.044    26.940     8.510
    51   7 N        1.844    -0.244    27.214     7.731
    52   6 C        2.905     0.061    26.635     8.462
    53   1 H        0.926     0.044     2.402     2.424
    54   1 H        0.926     0.042     2.428     2.437
    55   1 H        0.926     0.037     2.492     2.468
    56   1 H        0.926     0.063     2.162     2.300
    57   1 H        0.926     0.059     2.214     2.327
    58   1 H        0.926     0.034     2.532     2.488
    59   1 H        0.926     0.034     2.524     2.484
    60   1 H        0.926     0.032     2.560     2.502
    61   1 H        0.926     0.036     2.506     2.476
    62   1 H        0.926     0.043     2.407     2.426
    63   1 H        0.926     0.042     2.427     2.436
    64   1 H        0.926     0.040     2.454     2.450
    65   1 H        0.926     0.040     2.443     2.444
    66   1 H        0.926     0.044     2.396     2.421
    67   1 H        0.926     0.043     2.414     2.430
    68   1 H        0.926     0.058     2.228     2.334
    69   1 H        0.926     0.033     2.544     2.494
    70   1 H        0.926     0.035     2.514     2.480
    71   1 H        0.926     0.032     2.555     2.499
    72   1 H        0.926     0.035     2.510     2.477
    73   1 H        0.926     0.044     2.397     2.421
    74   1 H        0.926     0.043     2.415     2.430
    75   1 H        0.926     0.040     2.444     2.445
    76   1 H        0.926     0.040     2.448     2.446
    77   1 H        0.926     0.042     2.418     2.432
    78   1 H        0.926     0.038     2.479     2.462
    79   1 H        0.925     0.040     2.449     2.447

molecular dipole:
                 x           y           z       tot (Debye)
 q only:        0.080       1.045       0.013
   full:        0.342       1.037       0.315       2.888

 projected vibrational frequencies (cm⁻¹)
eigval :       -0.00    -0.00    -0.00    -0.00     0.00     0.00
eigval :       10.97    12.36    20.04    27.73    30.13    48.29
eigval :       49.52    60.58    61.35    66.06    69.05    86.33
eigval :      100.34   105.07   107.07   130.09   137.52   146.92
eigval :      155.25   157.79   166.12   189.53   194.32   224.60
eigval :      233.77   249.04   252.97   262.64   263.28   289.48
eigval :      305.74   313.69   319.35   332.94   341.92   365.33
eigval :      371.50   382.04   385.86   407.13   409.43   418.72
eigval :      429.88   435.15   437.14   440.46   454.85   467.64
eigval :      487.69   496.20   501.89   509.55   527.15   535.19
eigval :      538.50   540.64   546.24   553.70   556.54   558.87
eigval :      567.44   571.63   590.34   597.41   606.07   614.85
eigval :      616.37   624.35   624.93   647.60   667.09   673.35
eigval :      679.40   679.81   691.07   693.97   702.88   703.03
eigval :      709.31   709.55   710.52   718.57   725.37   769.60
eigval :      773.03   776.09   777.26   778.18   778.46   818.52
eigval :      821.19   823.76   833.63   837.99   840.46   850.50
eigval :      857.89   869.34   871.35   871.75   873.70   874.79
eigval :      894.92   896.28   898.17   901.48   902.33   903.10
eigval :      905.68   906.85   908.61   918.23   922.65   923.05
eigval :      923.28   924.32   925.83   936.54   964.69   985.45
eigval :      999.61  1002.93  1030.60  1058.66  1060.84  1061.33
eigval :     1065.58  1074.05  1083.11  1094.03  1096.55  1099.05
eigval :     1125.61  1131.99  1135.88  1142.28  1144.76  1149.36
eigval :     1165.05  1168.74  1171.60  1173.72  1175.64  1179.72
eigval :     1183.61  1190.37  1201.90  1203.23  1207.84  1227.14
eigval :     1230.88  1242.78  1244.90  1245.15  1246.56  1273.55
eigval :     1274.68  1276.89  1290.16  1299.12  1300.99  1306.11
eigval :     1308.85  1311.96  1338.54  1351.56  1351.69  1353.90
eigval :     1357.25  1364.30  1387.73  1397.07  1399.04  1400.49
eigval :     1408.50  1413.99  1416.84  1426.40  1427.33  1433.51
eigval :     1449.53  1457.12  1459.87  1473.20  1473.40  1483.38
eigval :     1483.96  1487.02  1547.50  1557.94  1568.66  1569.77
eigval :     1574.00  1577.49  1578.14  1584.14  1590.49  1590.59
eigval :     1599.11  1599.58  1607.36  1607.62  1623.27  1623.94
eigval :     3049.15  3072.33  3074.97  3075.66  3078.62  3078.81
eigval :     3080.98  3081.48  3085.83  3087.01  3088.63  3088.86
eigval :     3092.63  3093.33  3094.18  3094.53  3094.94  3095.14
eigval :     3096.13  3098.45  3099.30  3099.93  3101.28  3102.21
eigval :     3104.03  3104.64  3109.00

   temp. (K)  partition function   enthalpy   heat capacity  entropy
                                   cal/mol     cal/K/mol   cal/K/mol   J/K/mol
 298.15  VIB  0.290E+17            22210.443    145.493    136.368
         ROT  0.104E+09              888.752      2.981     39.667
         INT  0.302E+25            23099.196    148.474    176.035
         TR   0.166E+29             1481.254      4.968     45.348
         TOT                       24580.4497   153.4424   221.3831   926.2667

       T/K    H(0)-H(T)+PV         H(T)/Eh          T*S/Eh         G(T)/Eh
   ------------------------------------------------------------------------
    298.15    0.391714E-01    0.629485E+00    0.105186E+00    0.524299E+00
   ------------------------------------------------------------------------

         :::::::::::::::::::::::::::::::::::::::::::::::::::::
         ::                  THERMODYNAMIC                  ::
         :::::::::::::::::::::::::::::::::::::::::::::::::::::
         :: total free energy        -130.979812375043 Eh   ::
         ::.................................................::
         :: total energy             -131.504110883287 Eh   ::
         :: zero point energy           0.590313300864 Eh   ::
         :: G(RRHO) w/o ZPVE           -0.066014792621 Eh   ::
         :: G(RRHO) contrib.            0.524298508244 Eh   ::
         :::::::::::::::::::::::::::::::::::::::::::::::::::::

           -------------------------------------------------
          | TOTAL ENERGY             -131.504110883287 Eh   |
          | TOTAL ENTHALPY           -130.874626142498 Eh   |
          | TOTAL FREE ENERGY        -130.979812375043 Eh   |
          | GRADIENT NORM               0.000037991943 Eh/α |
          | HOMO-LUMO GAP               2.581203653291 eV   |
           -------------------------------------------------

 * finished run on 2025/09/14 at 09:41:53.902
