   * xtb version 6.7.1 (edcfbbe) compiled by 'albert@albert-system' on 2024-07-22

   ID    Z sym.   atoms
    1    6 C      1-23, 25-37
    2    7 N      24
    3    1 H      38-60

          program call               : xtb data2507/gas/D1–D6/D1–D6_gas_T1_crest.xyz --gfn 2 --spinpol --tblite --uhf 2 --ohess vtight --parallel 40 --molden --ceasefiles --namespace data2507/gas/D1–D6/D1–D6_gas_T1_finalOpt
 * total energy  :   -91.6951299 Eh     change       -0.7981882E-08 Eh
 * total energy  :   -91.6951503 Eh     change       -0.2041378E-04 Eh
 * total energy  :   -91.6951577 Eh     change       -0.7434143E-05 Eh
 * total energy  :   -91.6951607 Eh     change       -0.2961170E-05 Eh
 * total energy  :   -91.6951639 Eh     change       -0.3275694E-05 Eh
 * total energy  :   -91.6951674 Eh     change       -0.3434915E-05 Eh
 * total energy  :   -91.6951700 Eh     change       -0.2644595E-05 Eh
 * total energy  :   -91.6951713 Eh     change       -0.1264327E-05 Eh
 * total energy  :   -91.6951721 Eh     change       -0.8177478E-06 Eh
 * total energy  :   -91.6951731 Eh     change       -0.1008786E-05 Eh
 * total energy  :   -91.6951750 Eh     change       -0.2011657E-06 Eh
 * total energy  :   -91.6951752 Eh     change       -0.1763335E-06 Eh
 * total energy  :   -91.6951754 Eh     change       -0.2260852E-06 Eh
 * total energy  :   -91.6951757 Eh     change       -0.2715171E-06 Eh
 * total energy  :   -91.6951759 Eh     change       -0.2490271E-06 Eh
 * total energy  :   -91.6951762 Eh     change       -0.2436222E-06 Eh
 * total energy  :   -91.6951763 Eh     change       -0.1542599E-06 Eh
 * total energy  :   -91.6951766 Eh     change       -0.2178922E-06 Eh
 * total energy  :   -91.6951766 Eh     change       -0.1799435E-07 Eh
   *** GEOMETRY OPTIMIZATION CONVERGED AFTER 22 ITERATIONS ***

 final structure:
================
60
 xtb: 6.7.1 (edcfbbe)
C           -2.26519738108719       -3.42654343509523        1.54732963632254
C           -0.92379266370180       -3.19911160324288        1.37381666343895
C           -0.44120312962122       -1.99158357142142        0.79006445802058
C            0.94373940904291       -1.73211329372592        0.62471972029176
C            1.93800708041903       -2.76086611537289        0.70772894677390
C            3.24366661532806       -2.50217494951530        0.48515828705997
C            3.72929283542907       -1.18382534319202        0.16697533686833
C            5.03625321397867       -0.93490089685337       -0.26841611930688
C            5.97995702653007       -1.98435481441715       -0.48155567260495
C            7.21755375726034       -1.74509755989668       -1.00173123558485
C            7.59257651918380       -0.44220730164680       -1.34993858711251
C            6.71691452276635        0.60410829473214       -1.12595525055731
C            5.45730224034117        0.40908136691970       -0.57038660053488
C            4.57032121818522        1.51544905412655       -0.26337161488541
C            5.00600824164747        2.84421361530345       -0.32940258955829
C            4.17287011469803        3.89970140784339       -0.01429478269197
C            2.87724778651040        3.65031437440189        0.39971232690053
C            2.42896679441966        2.34483177827391        0.48836455940927
C            3.24347254271248        1.26409718097965        0.14913380060561
C            2.76458293179989       -0.10988110647171        0.24984967615054
C            1.43966816304861       -0.40675400180115        0.41108989563620
C           -1.42450945189741       -1.05832721764162        0.37378524716947
C           -2.76716022805858       -1.29607192826211        0.55361226518430
N           -3.70552020443395       -0.33276815971621        0.15304242232746
C           -4.83139402245307       -0.56675194563922       -0.60706441593586
C           -5.27221582526090       -1.74583996865161       -1.19262646507532
C           -6.43923570721015       -1.70139886661017       -1.93135926908981
C           -7.14914320514251       -0.51467486370625       -2.09874049409933
C           -6.70060523281314        0.66776652258773       -1.54122721201790
C           -5.53234974325746        0.64812412518458       -0.79330531179088
C           -4.78044914331644        1.66089918330665       -0.10409669293171
C           -4.96281282269117        3.02326761648144        0.08547741190095
C           -4.03537769631153        3.71654510405068        0.83964956353783
C           -2.94784023941252        3.06396390947926        1.41562890520172
C           -2.74536836786134        1.70825449103320        1.24127908201725
C           -3.65902262436668        1.01077423403598        0.46258794337664
C           -3.21148946467236       -2.48506765473529        1.15435663675287
H           -2.59720085296359       -4.34458601059768        2.01037523022566
H           -0.22181575553607       -3.93716475879636        1.72612969323914
H            1.63440408013875       -3.77468454298944        0.91623341934426
H            3.94800262862632       -3.31598325188017        0.54691183117405
H            5.70544670186570       -2.99882293060340       -0.24352592085809
H            7.90821521781708       -2.56084737711076       -1.15916288816395
H            8.56131060673884       -0.25488384703338       -1.78730756290546
H            7.03508221364336        1.59549389933852       -1.40762576742017
H            6.02058111035450        3.06699201358241       -0.61770213977752
H            4.54029390890965        4.91329279351480       -0.07945001886755
H            2.21972713101103        4.46524678156909        0.66393982428438
H            1.42628900937843        2.17534060571511        0.84793224055957
H            0.72297981119217        0.39667101465787        0.42380047234364
H           -1.13009918122189       -0.16006289063854       -0.14519326986379
H           -4.71636661740797       -2.66491905367844       -1.08529655887974
H           -6.80593735030881       -2.60575255698486       -2.39389805170525
H           -8.05754812857779       -0.52119217673377       -2.68241878464443
H           -7.24289956174461        1.58996089694741       -1.68565616754740
H           -5.81530225884570        3.52637000458667       -0.34520537311973
H           -4.15700549016320        4.77802206378005        0.99577800150166
H           -2.24935755748882        3.62946419321719        2.01463634853395
H           -1.91194294746322        1.20617666757962        1.70909476167681
H           -4.26319758088578       -2.64281654786676        1.33173105220117

 projected vibrational frequencies (cm⁻¹)
eigval :       -0.00    -0.00    -0.00     0.00     0.00     0.00
eigval :       11.31    14.94    22.13    34.64    52.12    59.95
eigval :       69.49    72.65    92.99   103.88   116.43   140.86
eigval :      141.89   177.37   201.32   215.70   234.23   240.62
eigval :      250.66   271.34   284.05   289.31   311.42   349.18
eigval :      360.72   374.70   388.64   392.94   395.85   402.14
eigval :      411.48   422.87   436.19   446.48   460.28   472.66
eigval :      499.41   512.15   517.94   539.12   539.94   551.42
eigval :      560.64   573.36   579.98   586.07   590.54   607.27
eigval :      614.61   637.24   648.45   666.59   667.99   674.94
eigval :      685.64   709.19   723.91   732.40   736.88   752.74
eigval :      756.83   759.25   761.89   769.87   776.93   779.72
eigval :      807.31   829.73   831.24   835.33   846.66   850.67
eigval :      873.08   876.80   884.37   889.81   897.25   899.74
eigval :      903.20   904.85   909.78   910.91   918.04   921.80
eigval :      922.66   930.52   942.65   967.19   985.80  1007.68
eigval :     1012.29  1040.94  1068.97  1072.23  1080.99  1111.95
eigval :     1113.74  1121.25  1122.78  1141.04  1148.44  1162.45
eigval :     1173.35  1175.02  1179.37  1180.84  1185.97  1190.39
eigval :     1201.14  1234.02  1234.59  1238.99  1243.90  1246.31
eigval :     1257.12  1270.11  1285.26  1295.52  1297.98  1310.78
eigval :     1328.34  1330.00  1344.03  1348.68  1352.77  1357.89
eigval :     1360.85  1365.03  1376.47  1378.43  1400.52  1407.75
eigval :     1420.36  1435.07  1436.62  1451.30  1464.53  1469.93
eigval :     1486.03  1489.99  1493.22  1503.01  1532.87  1554.09
eigval :     1562.20  1569.50  1570.39  1584.55  1588.75  1596.90
eigval :     1610.45  3074.53  3075.27  3076.12  3077.87  3078.82
eigval :     3082.93  3084.35  3084.49  3087.14  3088.62  3089.67
eigval :     3091.63  3096.34  3096.87  3097.86  3098.42  3100.81
eigval :     3102.34  3105.11  3109.77  3110.37  3113.92  3119.29

   temp. (K)  partition function   enthalpy   heat capacity  entropy
                                   cal/mol     cal/K/mol   cal/K/mol   J/K/mol
 298.15  VIB  0.515E+12            15985.675    106.640     97.296
         ROT  0.400E+08              888.752      2.981     37.769
         INT  0.206E+20            16874.428    109.621    135.065
         TR   0.984E+28             1481.254      4.968     44.308
         TOT                       18355.6817   114.5894   179.3729   750.4961

       T/K    H(0)-H(T)+PV         H(T)/Eh          T*S/Eh         G(T)/Eh
   ------------------------------------------------------------------------
    298.15    0.292516E-01    0.488289E+00    0.852258E-01    0.403063E+00
   ------------------------------------------------------------------------

         :::::::::::::::::::::::::::::::::::::::::::::::::::::
         ::                  THERMODYNAMIC                  ::
         :::::::::::::::::::::::::::::::::::::::::::::::::::::
         :: total free energy         -91.292113092428 Eh   ::
         ::.................................................::
         :: total energy              -91.695176576164 Eh   ::
         :: zero point energy           0.459037679151 Eh   ::
         :: G(RRHO) w/o ZPVE           -0.055974195415 Eh   ::
         :: G(RRHO) contrib.            0.403063483736 Eh   ::
         :::::::::::::::::::::::::::::::::::::::::::::::::::::

           -------------------------------------------------
          | TOTAL ENERGY              -91.695176576164 Eh   |
          | TOTAL ENTHALPY            -91.206887256199 Eh   |
          | TOTAL FREE ENERGY         -91.292113092428 Eh   |
          | GRADIENT NORM               0.000034445814 Eh/α |
           -------------------------------------------------

 * finished run on 2025/09/04 at 22:36:36.164
