   * xtb version 6.7.1 (edcfbbe) compiled by 'albert@albert-system' on 2024-07-22

   ID    Z sym.   atoms
    1    6 C      1-23, 25-37
    2    7 N      24
    3    1 H      38-60

          program call               : xtb data2507/gas/D1–D6/D1–D6_gas_S0_crest.xyz --gfn 2 --ohess vtight --parallel 40 --molden --ceasefiles --namespace data2507/gas/D1–D6/D1–D6_gas_S0_finalOpt
          :  Hamiltonian                  GFN2-xTB          :
 * total energy  :   -91.7911124 Eh     change       -0.7271979E-09 Eh
 * total energy  :   -91.7911132 Eh     change       -0.7990163E-06 Eh
 * total energy  :   -91.7911143 Eh     change       -0.1024785E-05 Eh
 * total energy  :   -91.7911158 Eh     change       -0.1511392E-05 Eh
 * total energy  :   -91.7911172 Eh     change       -0.1386111E-05 Eh
 * total energy  :   -91.7911181 Eh     change       -0.9750661E-06 Eh
 * total energy  :   -91.7911190 Eh     change       -0.8394696E-06 Eh
 * total energy  :   -91.7911199 Eh     change       -0.9684809E-06 Eh
 * total energy  :   -91.7911210 Eh     change       -0.1063213E-05 Eh
 * total energy  :   -91.7911217 Eh     change       -0.6714978E-06 Eh
 * total energy  :   -91.7911221 Eh     change       -0.4345791E-06 Eh
 * total energy  :   -91.7911225 Eh     change       -0.4332837E-06 Eh
 * total energy  :   -91.7911228 Eh     change       -0.2307464E-06 Eh
 * total energy  :   -91.7911229 Eh     change       -0.7578846E-07 Eh
   *** GEOMETRY OPTIMIZATION CONVERGED AFTER 14 ITERATIONS ***

 final structure:
================
60
 xtb: 6.7.1 (edcfbbe)
C           -2.19898396051871       -3.24189720235714        1.78704949722983
C           -0.86843013319724       -3.04165882261503        1.46836822488906
C           -0.48172450515111       -1.93393093591013        0.71633358758304
C            0.93089373934842       -1.69747345258511        0.38933139134202
C            1.78400262682822       -2.75197991107150        0.05459737154802
C            3.10651503778318       -2.50974540461602       -0.21867841890938
C            3.65146028545964       -1.21784088996108       -0.18257274700458
C            5.06161779945047       -0.97479900823317       -0.42018809018866
C            5.95075742073117       -2.02287191282418       -0.69810051669960
C            7.29473088580961       -1.80464034469186       -0.88266292523488
C            7.80053304630148       -0.51466407382940       -0.78659739679430
C            6.94913918304353        0.53184130720055       -0.52472583647121
C            5.57184732227185        0.33990641536358       -0.34711215191119
C            4.67356855183281        1.45506257563362       -0.10414928063334
C            5.13125229624209        2.78035767435354       -0.10485891709117
C            4.28327620969478        3.84144428119371        0.10397823823111
C            2.93024019108007        3.60914203688562        0.31369001749009
C            2.45482350129512        2.31982816526683        0.31742418758508
C            3.30018449111860        1.21893386899961        0.11998441489841
C            2.79063513099533       -0.14106379230231        0.12032587052726
C            1.45119483990184       -0.41675940069255        0.41370538775536
C           -1.45833979796408       -1.04323580984960        0.28390798000042
C           -2.79306166246231       -1.23545919050021        0.61769101179590
N           -3.75232635189859       -0.30290805348860        0.19931460929093
C           -4.94295019156180       -0.58554052854458       -0.43907629776934
C           -5.45526372531863       -1.80604699141539       -0.85513248050812
C           -6.67565295525083       -1.80616356215814       -1.50280231087470
C           -7.37241392376507       -0.62382317631510       -1.74303143222675
C           -6.85635251905746        0.59572892839466       -1.35342792820357
C           -5.63119229872032        0.62186373616637       -0.70028253439201
C           -4.80852059278140        1.68038191804848       -0.18561836106774
C           -4.95027097333564        3.06075843026168       -0.12995721175599
C           -3.95493187453601        3.80482363156453        0.47098263969821
C           -2.83719078436068        3.18788541475277        1.02872468381685
C           -2.67447607023129        1.81668494066819        0.98662855783639
C           -3.65797349668692        1.06523202394116        0.35903849393653
C           -3.16526243955041       -2.34212464880636        1.37508015188347
H           -2.48637757281454       -4.09969948356849        2.37717663886974
H           -0.12012758470056       -3.73422078033256        1.82315371707182
H            1.39738608235745       -3.75881340975620       -0.00187458872008
H            3.72974394973674       -3.35334789220530       -0.46654344708148
H            5.58912580958718       -3.03556678573000       -0.76988859324112
H            7.95414207321445       -2.63321476119212       -1.09507283708334
H            8.85710889870473       -0.33344947756064       -0.91796470667159
H            7.37233452576003        1.52036252421149       -0.45300357706687
H            6.17261230024385        2.99425934213608       -0.28126494443324
H            4.66719412104913        4.85090616708677        0.09662619743500
H            2.25319914062938        4.43644301111465        0.46722120880324
H            1.39738870821778        2.17392923035237        0.46670608215806
H            0.79027687145517        0.38456305417711        0.70029591461159
H           -1.18760966960185       -0.20650773913402       -0.34282177913562
H           -4.91462648109258       -2.72586578912744       -0.68988984386963
H           -7.09741746467198       -2.74394947732451       -1.83355768857213
H           -8.32505998490818       -0.66665186289463       -2.24980267137081
H           -7.38845426521741        1.51358014956439       -1.55359878475587
H           -5.82535079224742        3.53720432762331       -0.54564947358640
H           -4.04439053126317        4.87980284018418        0.52195841010285
H           -2.08380972518944        3.79487597483972        1.50938744278796
H           -1.81733906066742        1.34535293784076        1.44406419701755
H           -4.20003019092120       -2.48089429733324        1.64902095732873

          :  Hamiltonian                  GFN2-xTB          :
         :: gradient norm              0.000043994568 Eh/a0 ::
         :: HOMO-LUMO gap              2.615464060283 eV    ::
         :: SCC energy               -93.579244292043 Eh    ::
         :: -> dispersion             -0.082388784574 Eh    ::
         :: repulsion energy           1.788121438260 Eh    ::

    * Orbital Energies and Occupations

         #    Occupation            Energy/Eh            Energy/eV
      -------------------------------------------------------------
         1        2.0000           -0.6735458             -18.3281
       ...           ...                  ...                  ...
        74        2.0000           -0.4198624             -11.4250
        75        2.0000           -0.4163142             -11.3285
        76        2.0000           -0.4153833             -11.3032
        77        2.0000           -0.4107584             -11.1773
        78        2.0000           -0.4083541             -11.1119
        79        2.0000           -0.4058839             -11.0447
        80        2.0000           -0.4044988             -11.0070
        81        2.0000           -0.4023259             -10.9478
        82        2.0000           -0.3944046             -10.7323
        83        2.0000           -0.3814669             -10.3802
        84        2.0000           -0.3777341             -10.2787
        85        2.0000           -0.3757743             -10.2253
        86        2.0000           -0.3598447              -9.7919 (HOMO)
        87                         -0.2637281              -7.1764 (LUMO)
        88                         -0.2570121              -6.9937
        89                         -0.2434906              -6.6257
        90                         -0.2412373              -6.5644
        91                         -0.2320115              -6.3134
        92                         -0.2275887              -6.1930
        93                         -0.2190486              -5.9606
        94                         -0.1949993              -5.3062
        95                         -0.1930727              -5.2538
        96                         -0.1884421              -5.1278
        97                         -0.1831999              -4.9851
       ...                                ...                  ...
       171                          0.7490027              20.3814
      -------------------------------------------------------------
                  HL-Gap            0.0961165 Eh            2.6155 eV

     #   Z          covCN         q      C6AA      α(0)
     1   6 C        2.918    -0.029    28.731     8.790
     2   6 C        2.924    -0.039    28.958     8.825
     3   6 C        2.977     0.012    27.745     8.640
     4   6 C        2.975     0.007    27.860     8.658
     5   6 C        2.922    -0.036    28.900     8.816
     6   6 C        2.921    -0.036    28.905     8.817
     7   6 C        2.979     0.005    27.908     8.666
     8   6 C        2.979     0.006    27.875     8.660
     9   6 C        2.923    -0.036    28.886     8.814
    10   6 C        2.917    -0.031    28.782     8.797
    11   6 C        2.917    -0.031    28.780     8.797
    12   6 C        2.923    -0.035    28.883     8.813
    13   6 C        2.979     0.006    27.875     8.660
    14   6 C        2.979     0.006    27.874     8.660
    15   6 C        2.923    -0.035    28.883     8.813
    16   6 C        2.917    -0.031    28.777     8.797
    17   6 C        2.917    -0.031    28.776     8.797
    18   6 C        2.923    -0.035    28.874     8.812
    19   6 C        2.980     0.006    27.882     8.662
    20   6 C        2.978     0.006    27.885     8.662
    21   6 C        2.930    -0.041    29.017     8.834
    22   6 C        2.929    -0.048    29.203     8.862
    23   6 C        2.912     0.064    26.564     8.451
    24   7 N        2.803    -0.045    22.099     6.982
    25   6 C        3.076     0.047    26.867     8.498
    26   6 C        2.910    -0.051    29.265     8.871
    27   6 C        2.924    -0.034    28.836     8.806
    28   6 C        2.920    -0.041    29.021     8.834
    29   6 C        2.912    -0.033    28.820     8.803
    30   6 C        3.069    -0.017    28.370     8.734
    31   6 C        3.068    -0.017    28.366     8.733
    32   6 C        2.913    -0.033    28.817     8.803
    33   6 C        2.920    -0.041    29.024     8.835
    34   6 C        2.924    -0.034    28.840     8.807
    35   6 C        2.910    -0.050    29.253     8.869
    36   6 C        3.077     0.047    26.870     8.499
    37   6 C        2.922    -0.045    29.125     8.850
    38   1 H        0.926     0.035     2.513     2.479
    39   1 H        0.926     0.036     2.503     2.474
    40   1 H        0.926     0.031     2.567     2.505
    41   1 H        0.926     0.034     2.529     2.487
    42   1 H        0.926     0.033     2.548     2.496
    43   1 H        0.926     0.029     2.597     2.520
    44   1 H        0.926     0.029     2.596     2.519
    45   1 H        0.926     0.033     2.541     2.493
    46   1 H        0.926     0.033     2.542     2.493
    47   1 H        0.926     0.030     2.593     2.518
    48   1 H        0.926     0.030     2.588     2.516
    49   1 H        0.926     0.033     2.547     2.495
    50   1 H        0.926     0.035     2.512     2.479
    51   1 H        0.926     0.042     2.429     2.437
    52   1 H        0.926     0.027     2.630     2.536
    53   1 H        0.926     0.028     2.612     2.527
    54   1 H        0.926     0.027     2.626     2.534
    55   1 H        0.926     0.030     2.583     2.513
    56   1 H        0.926     0.030     2.582     2.513
    57   1 H        0.926     0.027     2.627     2.535
    58   1 H        0.926     0.027     2.623     2.533
    59   1 H        0.926     0.024     2.670     2.555
    60   1 H        0.926     0.040     2.452     2.449

molecular dipole:
                 x           y           z       tot (Debye)
 q only:        0.471      -0.303       0.127
   full:        0.512      -0.365       0.153       1.645

 projected vibrational frequencies (cm⁻¹)
eigval :       -0.00    -0.00    -0.00     0.00     0.00     0.00
eigval :       10.04    16.62    18.61    29.29    38.13    60.61
eigval :       64.00    74.47    99.18   106.32   118.39   144.10
eigval :      147.33   202.35   212.36   218.30   236.19   247.90
eigval :      266.39   271.98   280.97   313.47   318.37   359.19
eigval :      383.62   391.85   394.63   395.66   399.46   409.44
eigval :      423.56   435.32   440.41   450.52   467.89   514.66
eigval :      517.13   522.04   528.09   540.23   541.25   556.34
eigval :      581.93   586.96   588.34   596.82   603.85   614.24
eigval :      638.80   670.72   673.55   676.37   678.29   688.82
eigval :      702.99   708.47   738.08   748.88   757.76   759.49
eigval :      765.99   769.40   779.12   780.74   797.09   822.01
eigval :      843.72   846.46   860.82   863.76   869.08   872.13
eigval :      893.78   897.54   900.47   903.62   904.84   908.25
eigval :      908.60   914.90   922.01   923.47   923.86   925.62
eigval :      931.76   940.89   977.74  1001.68  1012.34  1020.40
eigval :     1033.68  1070.05  1073.69  1095.61  1099.45  1118.79
eigval :     1127.56  1128.79  1145.79  1152.05  1155.45  1172.09
eigval :     1175.89  1181.55  1182.69  1184.93  1192.57  1203.56
eigval :     1236.85  1237.10  1246.93  1258.04  1264.04  1266.64
eigval :     1271.72  1291.03  1301.54  1305.50  1313.55  1318.46
eigval :     1319.69  1336.85  1341.85  1355.11  1359.71  1361.78
eigval :     1366.56  1398.39  1416.30  1422.01  1428.39  1431.38
eigval :     1435.69  1449.76  1475.69  1478.63  1480.80  1488.88
eigval :     1497.08  1542.11  1561.95  1568.61  1572.48  1576.54
eigval :     1585.80  1589.30  1593.52  1595.00  1599.72  1606.59
eigval :     1615.67  3073.73  3075.61  3075.91  3076.42  3078.73
eigval :     3079.78  3081.28  3081.88  3085.62  3086.28  3086.85
eigval :     3088.75  3090.38  3092.50  3094.29  3096.01  3098.97
eigval :     3101.82  3102.61  3103.89  3115.72  3116.03  3117.02

   temp. (K)  partition function   enthalpy   heat capacity  entropy
                                   cal/mol     cal/K/mol   cal/K/mol   J/K/mol
 298.15  VIB  0.558E+12            15626.298    103.897     95.144
         ROT  0.397E+08              888.752      2.981     37.753
         INT  0.222E+20            16515.051    106.878    132.897
         TR   0.984E+28             1481.254      4.968     44.308
         TOT                       17996.3045   111.8465   177.2051   741.4263

       T/K    H(0)-H(T)+PV         H(T)/Eh          T*S/Eh         G(T)/Eh
   ------------------------------------------------------------------------
    298.15    0.286789E-01    0.492561E+00    0.841959E-01    0.408365E+00
   ------------------------------------------------------------------------

         :::::::::::::::::::::::::::::::::::::::::::::::::::::
         ::                  THERMODYNAMIC                  ::
         :::::::::::::::::::::::::::::::::::::::::::::::::::::
         :: total free energy         -91.382757965945 Eh   ::
         ::.................................................::
         :: total energy              -91.791122853782 Eh   ::
         :: zero point energy           0.463881826270 Eh   ::
         :: G(RRHO) w/o ZPVE           -0.055516938433 Eh   ::
         :: G(RRHO) contrib.            0.408364887837 Eh   ::
         :::::::::::::::::::::::::::::::::::::::::::::::::::::

           -------------------------------------------------
          | TOTAL ENERGY              -91.791122853782 Eh   |
          | TOTAL ENTHALPY            -91.298562090800 Eh   |
          | TOTAL FREE ENERGY         -91.382757965945 Eh   |
          | GRADIENT NORM               0.000043990019 Eh/α |
          | HOMO-LUMO GAP               2.615464216124 eV   |
           -------------------------------------------------

 * finished run on 2025/09/04 at 22:33:20.329
