   * xtb version 6.7.1 (edcfbbe) compiled by 'albert@albert-system' on 2024-07-22

   ID    Z sym.   atoms
    1    6 C      1-23, 25-37
    2    7 N      24
    3    1 H      38-60

          program call               : xtb data2507/gas/D1–D6/D1–D6_gas_S0_finalOpt.xtbopt.xyz --gfn 2 --spinpol --tblite --uhf 2 --ohess vtight --parallel 40 --molden --ceasefiles --namespace data2507/gas/D1–D6/D1–D6_gas_T1_preOpt
 * total energy  :   -91.6835403 Eh     change        0.1875819E-08 Eh
 * total energy  :   -91.6904792 Eh     change       -0.6938948E-02 Eh
 * total energy  :   -91.6931367 Eh     change       -0.2657511E-02 Eh
 * total energy  :   -91.6934150 Eh     change       -0.2783022E-03 Eh
 * total energy  :   -91.6937602 Eh     change       -0.3451276E-03 Eh
 * total energy  :   -91.6939452 Eh     change       -0.1850979E-03 Eh
 * total energy  :   -91.6941143 Eh     change       -0.1690618E-03 Eh
 * total energy  :   -91.6942057 Eh     change       -0.9137089E-04 Eh
 * total energy  :   -91.6942585 Eh     change       -0.5280599E-04 Eh
 * total energy  :   -91.6943008 Eh     change       -0.4229369E-04 Eh
 * total energy  :   -91.6951760 Eh     change       -0.1058384E-05 Eh
 * total energy  :   -91.6951763 Eh     change       -0.3452093E-06 Eh
 * total energy  :   -91.6951770 Eh     change       -0.7017017E-06 Eh
 * total energy  :   -91.6951771 Eh     change       -0.1266147E-06 Eh
 * total energy  :   -91.6951773 Eh     change       -0.1720778E-06 Eh
 * total energy  :   -91.6951774 Eh     change       -0.1402913E-06 Eh
 * total energy  :   -91.6951776 Eh     change       -0.1894105E-06 Eh
 * total energy  :   -91.6951778 Eh     change       -0.1623564E-06 Eh
 * total energy  :   -91.6951779 Eh     change       -0.9804671E-07 Eh
   *** GEOMETRY OPTIMIZATION CONVERGED AFTER 75 ITERATIONS ***

 final structure:
================
60
 xtb: 6.7.1 (edcfbbe)
C           -2.28650752773373       -3.36557290769086        1.65480530969333
C           -0.94367108634348       -3.15409908659831        1.47199218650527
C           -0.45302717370260       -1.96698027461606        0.85437675460478
C            0.93338162965726       -1.72223267624205        0.67884500884545
C            1.92050633209507       -2.75575097182858        0.78424840983729
C            3.22694845086696       -2.51222843655451        0.54928521329529
C            3.72022272926174       -1.20580114472620        0.19537811247767
C            5.02592180078877       -0.97722543957424       -0.25451594301907
C            5.95956479106859       -2.03883938941741       -0.45115496644885
C            7.19531213019329       -1.82113203341844       -0.98500524265728
C            7.57836536467020       -0.52926177822266       -1.36424411045192
C            6.71260967167987        0.52883066014008       -1.15758571198907
C            5.45542515708098        0.35629240288533       -0.58933970617087
C            4.57922992038849        1.47631479107268       -0.30140912136271
C            5.02518422351897        2.79973030133319       -0.39842682395616
C            4.20188198496555        3.86848701576435       -0.10264729031071
C            2.90624133944993        3.63863568546857        0.32245875329453
C            2.44816620578007        2.33902395754309        0.44214566505556
C            3.25265162883554        1.24471017704031        0.12323143977133
C            2.76400521424791       -0.12286324874426        0.25768904278179
C            1.43775633674213       -0.40600874483906        0.43151730195917
C           -1.42969522173641       -1.03781142785012        0.41441385691853
C           -2.77384035026094       -1.25950473491949        0.60352298439668
N           -3.70459403932576       -0.29991886140301        0.17719518390227
C           -4.83217188862269       -0.54486976181818       -0.57691487665110
C           -5.28520395166361       -1.73646757090832       -1.12671967571347
C           -6.45108507433538       -1.70204559487878       -1.86778139799790
C           -7.14793924182499       -0.51339632948851       -2.07220619216381
C           -6.68711536892194        0.68062324097534       -1.55054265030467
C           -5.51983244326664        0.67124491783929       -0.80091610512923
C           -4.75775147535697        1.69643037088641       -0.14189143681849
C           -4.92540285974884        3.06587503962441        0.00567677951728
C           -3.99130590369342        3.77174092495297        0.73968236982599
C           -2.91168328162218        3.12526694759161        1.33705147513864
C           -2.72375762412976        1.76277398224331        1.20435173706361
C           -3.64397428422565        1.05184564039587        0.44578341596377
C           -3.22619824635425       -2.42761930338898        1.23814980992847
H           -2.62481613454851       -4.26773122699525        2.14379293503643
H           -0.24661700215152       -3.88778631479027        1.84281499953613
H            1.61029691824232       -3.76156210574351        1.02015452804020
H            3.92612655402759       -3.32893227267339        0.62904683498070
H            5.67822447722016       -3.04563593357343       -0.18962807402051
H            7.87816241673656       -2.64579738081692       -1.12950897468761
H            8.54548303111888       -0.35945619211786       -1.81220055123583
H            7.03658399260643        1.51117083610626       -1.46334916602013
H            6.04015096748921        3.00793363651245       -0.69612004230230
H            4.57697482113092        4.87745446662766       -0.19157096271143
H            2.25638634450265        4.46443169398153        0.57147727621200
H            1.44595358906790        2.18536000834781        0.81004297662213
H            0.72691601208350        0.40270049402209        0.42848878087429
H           -1.12920779586060       -0.15694789500626       -0.13028191588721
H           -4.73934625509489       -2.65774786439190       -0.99083358256864
H           -6.82717357780220       -2.61611289146139       -2.30287143766457
H           -8.05591523480241       -0.52796855342878       -2.65641018146394
H           -7.21928239953455        1.60377278647029       -1.72370757811908
H           -5.77176151452554        3.56486812118172       -0.44156350763280
H           -4.10149174145542        4.83876038500465        0.86311654265806
H           -2.20789426168709        3.70114452877281        1.91974399200126
H           -1.89639673337474        1.26614015126639        1.68848345955472
H           -4.27869332976233       -2.57191577923887        1.42223621402794

 projected vibrational frequencies (cm⁻¹)
eigval :       -0.00    -0.00    -0.00     0.00     0.00     0.00
eigval :       11.55    15.21    22.07    34.66    52.40    60.25
eigval :       69.55    72.60    93.86   103.89   116.60   140.92
eigval :      141.97   177.42   201.55   215.98   234.25   240.57
eigval :      250.72   271.26   284.34   289.19   311.44   349.13
eigval :      360.55   374.68   388.50   393.06   395.87   402.28
eigval :      411.41   422.87   436.14   446.38   460.40   472.48
eigval :      499.50   512.18   517.95   539.11   539.92   551.41
eigval :      560.64   573.38   579.88   586.02   590.51   607.28
eigval :      614.70   637.28   648.59   666.59   667.81   674.94
eigval :      685.56   709.14   723.95   732.08   736.88   752.92
eigval :      756.77   759.11   761.94   769.86   777.17   779.72
eigval :      807.62   829.74   831.40   835.71   846.85   850.73
eigval :      873.15   876.82   884.38   890.01   897.25   899.71
eigval :      903.20   904.85   909.76   910.92   918.03   921.83
eigval :      922.62   930.37   942.18   967.45   985.96  1007.64
eigval :     1012.36  1041.42  1069.01  1072.18  1080.93  1111.82
eigval :     1113.70  1121.16  1122.62  1140.99  1148.41  1162.26
eigval :     1173.77  1174.98  1179.18  1180.85  1185.98  1190.29
eigval :     1201.01  1233.99  1234.28  1238.86  1243.80  1246.24
eigval :     1256.89  1269.89  1285.29  1295.70  1298.02  1310.83
eigval :     1328.30  1329.98  1344.04  1348.69  1352.77  1357.78
eigval :     1360.68  1364.87  1376.72  1378.27  1400.57  1407.81
eigval :     1420.32  1435.00  1436.46  1451.38  1464.72  1470.05
eigval :     1486.08  1489.91  1493.19  1503.06  1533.00  1554.07
eigval :     1562.11  1569.43  1570.40  1584.57  1588.76  1596.75
eigval :     1610.52  3074.49  3075.26  3076.03  3077.87  3078.87
eigval :     3082.92  3084.38  3084.50  3087.00  3088.36  3089.63
eigval :     3091.69  3096.32  3096.91  3098.08  3098.17  3100.68
eigval :     3102.07  3104.80  3109.87  3110.78  3113.75  3119.22

   temp. (K)  partition function   enthalpy   heat capacity  entropy
                                   cal/mol     cal/K/mol   cal/K/mol   J/K/mol
 298.15  VIB  0.487E+12            15982.316    106.651     97.231
         ROT  0.400E+08              888.752      2.981     37.767
         INT  0.195E+20            16871.069    109.632    134.999
         TR   0.984E+28             1481.254      4.968     44.308
         TOT                       18352.3227   114.6005   179.3067   750.2191

       T/K    H(0)-H(T)+PV         H(T)/Eh          T*S/Eh         G(T)/Eh
   ------------------------------------------------------------------------
    298.15    0.292463E-01    0.488287E+00    0.851944E-01    0.403093E+00
   ------------------------------------------------------------------------

         :::::::::::::::::::::::::::::::::::::::::::::::::::::
         ::                  THERMODYNAMIC                  ::
         :::::::::::::::::::::::::::::::::::::::::::::::::::::
         :: total free energy         -91.292085188562 Eh   ::
         ::.................................................::
         :: total energy              -91.695177894964 Eh   ::
         :: zero point energy           0.459040799963 Eh   ::
         :: G(RRHO) w/o ZPVE           -0.055948093561 Eh   ::
         :: G(RRHO) contrib.            0.403092706403 Eh   ::
         :::::::::::::::::::::::::::::::::::::::::::::::::::::

           -------------------------------------------------
          | TOTAL ENERGY              -91.695177894964 Eh   |
          | TOTAL ENTHALPY            -91.206890807227 Eh   |
          | TOTAL FREE ENERGY         -91.292085188562 Eh   |
          | GRADIENT NORM               0.000042817862 Eh/α |
           -------------------------------------------------

 * finished run on 2025/09/04 at 22:33:28.771
