   * xtb version 6.7.1 (edcfbbe) compiled by 'albert@albert-system' on 2024-07-22

   ID    Z sym.   atoms
    1    6 C      1-12, 14-16, 18-32, 34-36, 38
    2    7 N      13, 17, 33, 37
    3    1 H      39-60

          program call               : xtb data2507/toluene/DMeCzIPN/DMeCzIPN_toluene_T1_crest.xyz --gfn 2 --uhf 2 --gbsa toluene --ohess vtight --parallel 40 --molden --ceasefiles --namespace data2507/toluene/DMeCzIPN/DMeCzIPN_toluene_T1_finalOpt
      * Solvation model:               GBSA
        Solvent                        toluene
        Solvent mass                       9.2140E+01 g/mol
          :  Hamiltonian                  GFN2-xTB          :
 * total energy  :   -95.6802372 Eh     change       -0.2846524E-07 Eh
 * total energy  :   -95.6803593 Eh     change       -0.1221082E-03 Eh
 * total energy  :   -95.6804370 Eh     change       -0.7773278E-04 Eh
 * total energy  :   -95.6804616 Eh     change       -0.2457229E-04 Eh
 * total energy  :   -95.6804757 Eh     change       -0.1410104E-04 Eh
 * total energy  :   -95.6804852 Eh     change       -0.9489760E-05 Eh
 * total energy  :   -95.6804910 Eh     change       -0.5796910E-05 Eh
 * total energy  :   -95.6804956 Eh     change       -0.4636020E-05 Eh
 * total energy  :   -95.6804953 Eh     change        0.3027540E-06 Eh
 * total energy  :   -95.6804975 Eh     change       -0.2221510E-05 Eh
 * total energy  :   -95.6805015 Eh     change       -0.7620218E-06 Eh
 * total energy  :   -95.6805019 Eh     change       -0.4751235E-06 Eh
 * total energy  :   -95.6805021 Eh     change       -0.1949032E-06 Eh
 * total energy  :   -95.6805023 Eh     change       -0.1773974E-06 Eh
 * total energy  :   -95.6805025 Eh     change       -0.1673978E-06 Eh
 * total energy  :   -95.6805027 Eh     change       -0.1830817E-06 Eh
 * total energy  :   -95.6805028 Eh     change       -0.1651843E-06 Eh
 * total energy  :   -95.6805028 Eh     change        0.1635200E-08 Eh
 * total energy  :   -95.6805028 Eh     change       -0.1666919E-08 Eh
   *** GEOMETRY OPTIMIZATION CONVERGED AFTER 23 ITERATIONS ***

 final structure:
================
60
 xtb: 6.7.1 (edcfbbe)
C            2.30928779164876        2.93036734889334        0.79075278465774
C            3.46075754132760        1.99638590656093        0.98013292593704
C            4.63765977448447        2.45782534944935        1.56210734881605
C            5.73181273035579        1.63663874303450        1.79557317931930
C            5.68681508977344        0.28591232335788        1.48171057411635
C            4.53352732260980       -0.21118072408390        0.90273895301632
C            4.14662024371365       -1.53492285433540        0.49013555918944
C            4.77376697301593       -2.76990284953869        0.50891472074781
C            4.09264889953123       -3.86582583993209        0.00209814196906
C            2.81033833482101       -3.73738822436342       -0.52835541916762
C            2.16618705969021       -2.51501902706177       -0.55614350177273
C            2.83764881481856       -1.41690254713883       -0.03266385463681
N            2.42637973646814       -0.10517914012141        0.04843719944956
C            1.20795086514609        0.35406921122912       -0.47418096354911
C            0.00153954919983       -0.08746581982639        0.04024429750052
C           -1.20654866724254        0.35235991321896       -0.47197384914029
N           -2.42363901917722       -0.10662427111464        0.05343882065274
C           -2.83288232429865       -1.41955324643894       -0.01981461251011
C           -2.15789120443620       -2.52084718805868       -0.53198821030097
C           -2.80056974736845       -3.74383370437170       -0.49748185086631
C           -4.08504935858200       -3.86985899698460        0.02829483084557
C           -4.76967594150585       -2.77094352256280        0.52379614663611
C           -4.14385923346317       -1.53541142994795        0.49856497617991
C           -4.53388537734936       -0.20940624242769        0.90073843418122
C           -5.68988378953696        0.29005028404116        1.47216707272647
C           -5.73719117819810        1.64252078504275        1.77807971059793
C           -4.64245400939600        2.46299299281234        1.54496410002328
C           -3.46281902818954        1.99916222148028        0.97042427022807
C           -2.31069439649212        2.93278969037666        0.78303017944068
C           -3.43450848201799        0.64410415089684        0.61712286312029
C           -1.21349764329395        1.20625951843975       -1.64999773911589
C           -2.41457765531937        1.57183669381120       -2.24679748958218
N           -3.41680366603871        1.88203826560894       -2.73728078193385
C           -0.00160493347328        1.59220863175891       -2.20688624321775
C            1.21187041451963        1.20882560379676       -1.65150516550722
C            2.41154786350034        1.57791658399137       -2.24886748216875
N            3.41280983880938        1.89134895162220       -2.73934838588662
C            3.43449652975056        0.64306910224644        0.62009879931771
H            2.39525476610574        3.77448195878084        1.47067411555492
H            1.36107029321878        2.42612698251782        0.96463129103159
H            2.30252610950213        3.31779432923980       -0.22895548142031
H            4.69434261644263        3.49837019351697        1.84547409194587
H            6.62152108786715        2.05428809700952        2.24189236825115
H            6.52489474059080       -0.36185681654158        1.68539591102839
H            5.77193204565456       -2.87461460714653        0.90502981850829
H            4.56480079766688       -4.83662461638296        0.00961607870514
H            2.31275987025720       -4.60774373886536       -0.92864182343051
H            1.17923166017296       -2.41166720603647       -0.97930096071220
H            0.00295856672072       -0.74267034944775        0.90074218873455
H           -1.16907542530324       -2.41980567423601       -0.95121029280830
H           -2.30006337952532       -4.61660487469574       -0.88873824501628
H           -4.55600359527349       -4.84118498721692        0.04126664276223
H           -5.76934337444513       -2.87389165892491        0.91655984542510
H           -6.52824965454820       -0.35721554896434        1.67626871013750
H           -6.62904137705453        2.06207984339356        2.21828323425848
H           -4.70074773798097        3.50495143703761        1.82276541298195
H           -1.36292768570290        2.42844845141633        0.95897883789044
H           -2.30183277490624        3.32020964247609       -0.23667458272454
H           -2.39794965539964        3.77703232553802        1.46265898577905
H           -0.00284031976496        2.20259228097097       -3.10055729679566

          :  Hamiltonian                  GFN2-xTB          :
         :: gradient norm              0.000092583435 Eh/a0 ::
         :: HOMO-LUMO gap              0.552643555261 eV    ::
         :: SCC energy               -97.492161033535 Eh    ::
         :: -> dispersion             -0.088902589978 Eh    ::
         :: -> Gsolv                  -0.048308794980 Eh    ::
         :: repulsion energy           1.811658204526 Eh    ::

    * Orbital Energies and Occupations

         #    Occupation            Energy/Eh            Energy/eV
      -------------------------------------------------------------
         1        2.0000           -0.6938493             -18.8806
       ...           ...                  ...                  ...
        78        2.0000           -0.4338275             -11.8050
        79        2.0000           -0.4315779             -11.7438
        80        2.0000           -0.4231061             -11.5133
        81        2.0000           -0.4182265             -11.3805
        82        2.0000           -0.4173647             -11.3571
        83        2.0000           -0.4160030             -11.3200
        84        2.0000           -0.4123278             -11.2200
        85        2.0000           -0.4039986             -10.9934
        86        2.0000           -0.3941882             -10.7264
        87        2.0000           -0.3940079             -10.7215
        88        1.8148           -0.3793717             -10.3232
        89        1.1852           -0.3765562             -10.2466
        90        1.0000           -0.2817192              -7.6660 (HOMO)
        91        0.0000           -0.2614099              -7.1133 (LUMO)
        92        0.0000           -0.2592550              -7.0547
        93        0.0000           -0.2586416              -7.0380
        94                         -0.2392240              -6.5096
        95                         -0.2390565              -6.5051
        96                         -0.2155607              -5.8657
        97                         -0.2116460              -5.7592
        98                         -0.2063286              -5.6145
        99                         -0.2014985              -5.4831
       100                         -0.2012674              -5.4768
       101                         -0.1957834              -5.3275
       ...                                ...                  ...
       174                          1.1547390              31.4220
      -------------------------------------------------------------
                  HL-Gap            0.0203092 Eh            0.5526 eV

     #   Z          covCN         q      C6AA      α(0)
     1   6 C        3.757    -0.107    22.589     6.776
     2   6 C        2.956     0.016    27.647     8.624
     3   6 C        2.928    -0.041    29.017     8.834
     4   6 C        2.918    -0.029    28.716     8.788
     5   6 C        2.911    -0.029    28.733     8.790
     6   6 C        3.070    -0.012    28.239     8.713
     7   6 C        3.060    -0.010    28.200     8.709
     8   6 C        2.912    -0.027    28.684     8.782
     9   6 C        2.920    -0.030    28.738     8.791
    10   6 C        2.922    -0.031    28.765     8.795
    11   6 C        2.910    -0.038    28.956     8.824
    12   6 C        3.079     0.048    26.844     8.494
    13   7 N        2.801    -0.007    21.401     6.871
    14   6 C        2.910     0.019    27.592     8.613
    15   6 C        2.911    -0.050    29.247     8.868
    16   6 C        2.910     0.019    27.592     8.613
    17   7 N        2.801    -0.007    21.398     6.870
    18   6 C        3.078     0.048    26.846     8.495
    19   6 C        2.910    -0.038    28.956     8.824
    20   6 C        2.922    -0.031    28.766     8.795
    21   6 C        2.920    -0.030    28.738     8.791
    22   6 C        2.912    -0.027    28.684     8.782
    23   6 C        3.060    -0.010    28.200     8.708
    24   6 C        3.070    -0.012    28.239     8.713
    25   6 C        2.911    -0.029    28.733     8.790
    26   6 C        2.918    -0.029    28.715     8.787
    27   6 C        2.928    -0.041    29.017     8.834
    28   6 C        2.956     0.016    27.646     8.624
    29   6 C        3.757    -0.107    22.588     6.776
    30   6 C        3.064     0.043    26.969     8.516
    31   6 C        2.962    -0.018    28.466     8.751
    32   6 C        1.911     0.104    28.517     8.624
    33   7 N        0.911    -0.338    28.693     7.747
    34   6 C        2.931    -0.015    28.397     8.739
    35   6 C        2.962    -0.018    28.466     8.751
    36   6 C        1.911     0.104    28.518     8.624
    37   7 N        0.911    -0.338    28.694     7.747
    38   6 C        3.064     0.043    26.969     8.516
    39   1 H        0.925     0.058     2.221     2.331
    40   1 H        0.925     0.051     2.307     2.375
    41   1 H        0.924     0.055     2.260     2.351
    42   1 H        0.926     0.048     2.343     2.394
    43   1 H        0.926     0.048     2.344     2.394
    44   1 H        0.926     0.049     2.333     2.388
    45   1 H        0.926     0.048     2.349     2.396
    46   1 H        0.926     0.047     2.363     2.404
    47   1 H        0.926     0.045     2.378     2.411
    48   1 H        0.926     0.037     2.489     2.467
    49   1 H        0.925     0.040     2.455     2.450
    50   1 H        0.926     0.037     2.486     2.465
    51   1 H        0.926     0.045     2.378     2.411
    52   1 H        0.926     0.047     2.363     2.404
    53   1 H        0.926     0.048     2.349     2.396
    54   1 H        0.926     0.049     2.333     2.388
    55   1 H        0.926     0.048     2.344     2.394
    56   1 H        0.926     0.048     2.343     2.394
    57   1 H        0.925     0.051     2.308     2.376
    58   1 H        0.924     0.055     2.260     2.351
    59   1 H        0.925     0.058     2.221     2.330
    60   1 H        0.925     0.028     2.618     2.530

molecular dipole:
                 x           y           z       tot (Debye)
 q only:       -0.000      -1.609       3.310
   full:       -0.000      -1.762       3.400       9.732

 projected vibrational frequencies (cm⁻¹)
eigval :       -0.00    -0.00    -0.00     0.00     0.00     0.00
eigval :        6.52    17.75    23.75    30.27    37.39    49.67
eigval :       75.75    79.73    86.80    99.90   104.65   108.61
eigval :      122.29   124.33   139.68   162.91   166.30   174.32
eigval :      180.73   200.44   216.87   245.59   252.11   256.35
eigval :      261.30   265.01   274.81   281.67   318.66   328.38
eigval :      362.08   370.87   391.27   397.12   402.35   425.08
eigval :      426.51   433.59   439.94   469.14   469.24   483.89
eigval :      491.46   492.01   523.08   527.50   539.91   543.73
eigval :      544.42   551.69   554.64   562.82   573.75   574.15
eigval :      603.61   620.33   640.10   640.59   668.81   673.45
eigval :      676.32   683.05   706.07   706.86   718.92   732.71
eigval :      763.29   767.86   786.70   787.15   857.50   860.77
eigval :      867.82   876.99   877.75   879.73   881.92   884.36
eigval :      884.83   892.42   899.56   901.52   902.35   905.01
eigval :      910.33   910.73   915.59   917.51   996.04  1000.60
eigval :     1013.34  1015.53  1058.60  1061.24  1063.95  1082.02
eigval :     1106.45  1107.54  1122.99  1133.74  1135.90  1154.05
eigval :     1157.20  1172.09  1172.40  1186.06  1189.30  1190.63
eigval :     1207.66  1212.48  1233.30  1242.44  1258.60  1260.54
eigval :     1264.26  1287.61  1295.61  1300.51  1312.28  1316.07
eigval :     1323.14  1355.55  1362.18  1363.41  1365.37  1381.81
eigval :     1383.05  1390.97  1395.15  1398.97  1408.13  1410.76
eigval :     1442.92  1447.21  1457.45  1460.22  1463.55  1466.59
eigval :     1469.95  1471.91  1485.50  1487.55  1547.92  1553.18
eigval :     1556.64  1557.59  1568.71  1572.31  1589.11  1591.34
eigval :     2216.46  2293.71  2990.28  2990.69  3029.72  3030.07
eigval :     3039.20  3039.70  3065.74  3073.34  3083.22  3083.29
eigval :     3083.90  3084.14  3089.13  3089.46  3091.80  3091.91
eigval :     3095.89  3096.38  3101.40  3101.50  3102.38  3103.20

   temp. (K)  partition function   enthalpy   heat capacity  entropy
                                   cal/mol     cal/K/mol   cal/K/mol   J/K/mol
 298.15  VIB  0.569E+14            18179.814    114.250    112.623
         ROT  0.313E+08              888.752      2.981     37.281
         INT  0.178E+22            19068.566    117.231    149.904
         TR   0.104E+29             1481.254      4.968     44.414
         TOT                       20549.8203   122.1987   194.3183   813.0277

       T/K    H(0)-H(T)+PV         H(T)/Eh          T*S/Eh         G(T)/Eh
   ------------------------------------------------------------------------
    298.15    0.327482E-01    0.480524E+00    0.923269E-01    0.388197E+00
   ------------------------------------------------------------------------

         :::::::::::::::::::::::::::::::::::::::::::::::::::::
         ::                  THERMODYNAMIC                  ::
         :::::::::::::::::::::::::::::::::::::::::::::::::::::
         :: total free energy         -95.292305522762 Eh   ::
         ::.................................................::
         :: total energy              -95.680502829176 Eh   ::
         :: zero point energy           0.447775971357 Eh   ::
         :: G(RRHO) w/o ZPVE           -0.059578664944 Eh   ::
         :: G(RRHO) contrib.            0.388197306414 Eh   ::
         :::::::::::::::::::::::::::::::::::::::::::::::::::::

           -------------------------------------------------
          | TOTAL ENERGY              -95.680502829176 Eh   |
          | TOTAL ENTHALPY            -95.199978634730 Eh   |
          | TOTAL FREE ENERGY         -95.292305522762 Eh   |
          | GRADIENT NORM               0.000091277919 Eh/α |
          | HOMO-LUMO GAP               0.552642302693 eV   |
           -------------------------------------------------

 * finished run on 2025/07/19 at 22:17:09.470
