   * xtb version 6.7.1 (edcfbbe) compiled by 'albert@albert-system' on 2024-07-22

   ID    Z sym.   atoms
    1    6 C      1-12, 14-16, 18-32, 34-36, 38
    2    7 N      13, 17, 33, 37
    3    1 H      39-60

          program call               : xtb data2507/toluene/DMeCzIPN/DMeCzIPN_toluene_S0_finalOpt.xtbopt.xyz --gfn 2 --uhf 2 --gbsa toluene --ohess vtight --parallel 40 --molden --ceasefiles --namespace data2507/toluene/DMeCzIPN/DMeCzIPN_toluene_T1_preOpt
      * Solvation model:               GBSA
        Solvent                        toluene
        Solvent mass                       9.2140E+01 g/mol
          :  Hamiltonian                  GFN2-xTB          :
 * total energy  :   -95.6747887 Eh     change       -0.9852116E-08 Eh
 * total energy  :   -95.6785604 Eh     change       -0.3771684E-02 Eh
 * total energy  :   -95.6795978 Eh     change       -0.1037436E-02 Eh
 * total energy  :   -95.6797702 Eh     change       -0.1723562E-03 Eh
 * total energy  :   -95.6799269 Eh     change       -0.1567194E-03 Eh
 * total energy  :   -95.6800024 Eh     change       -0.7555111E-04 Eh
 * total energy  :   -95.6800670 Eh     change       -0.6458846E-04 Eh
 * total energy  :   -95.6801057 Eh     change       -0.3870647E-04 Eh
 * total energy  :   -95.6801292 Eh     change       -0.2342424E-04 Eh
 * total energy  :   -95.6801552 Eh     change       -0.2603389E-04 Eh
 * total energy  :   -95.6804876 Eh     change       -0.5670975E-06 Eh
 * total energy  :   -95.6804881 Eh     change       -0.4895783E-06 Eh
 * total energy  :   -95.6804885 Eh     change       -0.4261123E-06 Eh
 * total energy  :   -95.6804889 Eh     change       -0.3778621E-06 Eh
 * total energy  :   -95.6804892 Eh     change       -0.3329339E-06 Eh
 * total energy  :   -95.6804896 Eh     change       -0.3375818E-06 Eh
 * total energy  :   -95.6804899 Eh     change       -0.3150868E-06 Eh
 * total energy  :   -95.6804902 Eh     change       -0.3305611E-06 Eh
 * total energy  :   -95.6804902 Eh     change       -0.2517638E-08 Eh
   *** GEOMETRY OPTIMIZATION CONVERGED AFTER 68 ITERATIONS ***

 final structure:
================
60
 xtb: 6.7.1 (edcfbbe)
C            2.30593752275918        2.90530706313575        0.83052132373416
C            3.46594592083397        1.97586540211838        0.98842869189015
C            4.65070620333805        2.43850838202907        1.55324114221840
C            5.75219376904150        1.62059185472612        1.76228836890826
C            5.70708231621439        0.27153079022349        1.44124258865451
C            4.54641121638452       -0.22645207389036        0.87809219259871
C            4.15710996687018       -1.54918959270130        0.46449840278988
C            4.78848175089011       -2.78212061136614        0.46751195824730
C            4.10283120685663       -3.87798968581555       -0.03329931792500
C            2.81181538800974       -3.75129379589084       -0.54260581063521
C            2.16368162950796       -2.53073672792890       -0.55533355695689
C            2.83992028649750       -1.43272082015111       -0.03787964700774
N            2.42634426947975       -0.12240208030941        0.05548620930576
C            1.20780926380328        0.34228284658553       -0.46151714200176
C           -0.00015109138945       -0.10156182345338        0.04744850352972
C           -1.20632962363499        0.34839148976126       -0.46032406725656
N           -2.42668263182798       -0.11022742860405        0.05789250291745
C           -2.84734367935516       -1.41824220938731       -0.03602710666037
C           -2.17766281287312       -2.51937244247947       -0.55538798826659
C           -2.83227617626930       -3.73646765576115       -0.54282606859656
C           -4.12320522448560       -3.85676695512372       -0.03175854796596
C           -4.80228250179194       -2.75773729626249        0.47106834605599
C           -4.16438848694509       -1.52817081037543        0.46819129090503
C           -4.54605115577287       -0.20375362280367        0.88353497221504
C           -5.70323194434755        0.29993444619020        1.44879452898482
C           -5.74068926696939        1.64895018171795        1.77102042244883
C           -4.63521804345232        2.46121808125874        1.56096488485709
C           -3.45379482588731        1.99275419606363        0.99397871288146
C           -2.28909299174291        2.91610159210722        0.83488272786760
C           -3.43576004916292        0.64254424508107        0.62206869619949
C           -1.21018859444802        1.21706290442566       -1.62764007470931
C           -2.40992071298478        1.59519687312703       -2.21933630318768
N           -3.41089833535966        1.91635263691605       -2.70531816586239
C            0.00305908296296        1.60490827099045       -2.18022522239999
C            1.21486315649946        1.21082601656304       -1.62891419481317
C            2.41587957845488        1.58262339375938       -2.22201609036008
N            3.41794355306233        1.89834987066574       -2.70929896579593
C            3.44022123242147        0.62549576996793        0.61755679611689
H            2.39467603440285        3.73637696441795        1.52602182406562
H            1.36330546255572        2.39136830246898        1.00589938760491
H            2.28421958254024        3.31296813114230       -0.18097720112260
H            4.70743509489232        3.47720539020429        1.84332828061480
H            6.64769407959684        2.03916240987480        2.19597457064836
H            6.55084707247555       -0.37414019961137        1.62738197716900
H            5.79309789546956       -2.88528212283109        0.84738540226105
H            4.57811053367306       -4.84728400637286       -0.03763568728718
H            2.31049411787611       -4.62158779867677       -0.93831707025429
H            1.16975706462015       -2.42902948566875       -0.96217603845980
H           -0.00144471467513       -0.76645598811765        0.90045321913009
H           -1.18377066460112       -2.42258279086234       -0.96352699127403
H           -2.33617245685338       -4.60907506620465       -0.94001697531836
H           -4.60362043586660       -4.82351789748666       -0.03627164782999
H           -5.80686501035126       -2.85590993238983        0.85234898225279
H           -6.55021280831733       -0.34132265993228        1.63560794414497
H           -6.63332963852211        2.07187309017712        2.20636687735062
H           -4.68603753662893        3.49998166500619        1.85191928452622
H           -1.34901988516836        2.39718863152734        1.00937411705544
H           -2.26617846852828        3.32357714738221       -0.17665560482826
H           -2.37276576260275        3.74765733850171        1.53042247625086
H            0.00421499965314        2.22560007445752       -3.06676787225676

          :  Hamiltonian                  GFN2-xTB          :
         :: gradient norm              0.000044121395 Eh/a0 ::
         :: HOMO-LUMO gap              0.551279516273 eV    ::
         :: SCC energy               -97.492149068423 Eh    ::
         :: -> dispersion             -0.088972689644 Eh    ::
         :: -> Gsolv                  -0.048290699324 Eh    ::
         :: repulsion energy           1.811658834758 Eh    ::

    * Orbital Energies and Occupations

         #    Occupation            Energy/Eh            Energy/eV
      -------------------------------------------------------------
         1        2.0000           -0.6938112             -18.8796
       ...           ...                  ...                  ...
        78        2.0000           -0.4337851             -11.8039
        79        2.0000           -0.4315790             -11.7439
        80        2.0000           -0.4231097             -11.5134
        81        2.0000           -0.4182011             -11.3798
        82        2.0000           -0.4173257             -11.3560
        83        2.0000           -0.4159627             -11.3189
        84        2.0000           -0.4123010             -11.2193
        85        2.0000           -0.4039631             -10.9924
        86        2.0000           -0.3941354             -10.7250
        87        2.0000           -0.3939467             -10.7198
        88        1.8108           -0.3793126             -10.3216
        89        1.1892           -0.3765480             -10.2464
        90        1.0000           -0.2816801              -7.6649 (HOMO)
        91        0.0000           -0.2614210              -7.1136 (LUMO)
        92        0.0000           -0.2591926              -7.0530
        93        0.0000           -0.2586234              -7.0375
        94                         -0.2391807              -6.5084
        95                         -0.2390229              -6.5041
        96                         -0.2156034              -5.8669
        97                         -0.2116925              -5.7604
        98                         -0.2062840              -5.6133
        99                         -0.2014526              -5.4818
       100                         -0.2012538              -5.4764
       101                         -0.1956996              -5.3253
       ...                                ...                  ...
       174                          1.1547571              31.4225
      -------------------------------------------------------------
                  HL-Gap            0.0202591 Eh            0.5513 eV

     #   Z          covCN         q      C6AA      α(0)
     1   6 C        3.757    -0.107    22.589     6.776
     2   6 C        2.956     0.016    27.647     8.624
     3   6 C        2.928    -0.041    29.017     8.834
     4   6 C        2.918    -0.029    28.715     8.787
     5   6 C        2.911    -0.029    28.733     8.790
     6   6 C        3.070    -0.012    28.240     8.713
     7   6 C        3.060    -0.010    28.199     8.708
     8   6 C        2.912    -0.027    28.684     8.782
     9   6 C        2.920    -0.030    28.738     8.791
    10   6 C        2.922    -0.031    28.766     8.795
    11   6 C        2.910    -0.039    28.957     8.824
    12   6 C        3.078     0.048    26.845     8.495
    13   7 N        2.801    -0.007    21.401     6.871
    14   6 C        2.910     0.019    27.591     8.613
    15   6 C        2.911    -0.050    29.250     8.868
    16   6 C        2.910     0.019    27.591     8.613
    17   7 N        2.801    -0.008    21.401     6.871
    18   6 C        3.078     0.048    26.845     8.495
    19   6 C        2.910    -0.039    28.957     8.824
    20   6 C        2.922    -0.031    28.766     8.795
    21   6 C        2.920    -0.030    28.738     8.791
    22   6 C        2.912    -0.027    28.684     8.782
    23   6 C        3.060    -0.010    28.199     8.708
    24   6 C        3.070    -0.012    28.240     8.713
    25   6 C        2.911    -0.029    28.733     8.790
    26   6 C        2.918    -0.029    28.715     8.787
    27   6 C        2.928    -0.041    29.017     8.834
    28   6 C        2.956     0.016    27.647     8.624
    29   6 C        3.757    -0.107    22.589     6.776
    30   6 C        3.065     0.043    26.968     8.516
    31   6 C        2.962    -0.018    28.466     8.751
    32   6 C        1.911     0.104    28.517     8.624
    33   7 N        0.911    -0.338    28.694     7.747
    34   6 C        2.931    -0.015    28.396     8.739
    35   6 C        2.962    -0.018    28.466     8.751
    36   6 C        1.911     0.104    28.517     8.624
    37   7 N        0.911    -0.338    28.694     7.747
    38   6 C        3.065     0.043    26.968     8.516
    39   1 H        0.925     0.058     2.220     2.330
    40   1 H        0.925     0.051     2.308     2.376
    41   1 H        0.924     0.055     2.261     2.351
    42   1 H        0.926     0.048     2.343     2.394
    43   1 H        0.926     0.048     2.344     2.394
    44   1 H        0.926     0.049     2.333     2.389
    45   1 H        0.926     0.048     2.349     2.397
    46   1 H        0.926     0.047     2.363     2.404
    47   1 H        0.926     0.045     2.378     2.411
    48   1 H        0.926     0.037     2.486     2.465
    49   1 H        0.925     0.040     2.452     2.449
    50   1 H        0.926     0.037     2.486     2.466
    51   1 H        0.926     0.045     2.378     2.411
    52   1 H        0.926     0.047     2.363     2.404
    53   1 H        0.926     0.048     2.349     2.397
    54   1 H        0.926     0.049     2.333     2.389
    55   1 H        0.926     0.048     2.344     2.394
    56   1 H        0.926     0.048     2.343     2.394
    57   1 H        0.925     0.051     2.307     2.375
    58   1 H        0.924     0.055     2.261     2.352
    59   1 H        0.925     0.058     2.220     2.330
    60   1 H        0.925     0.028     2.619     2.531

molecular dipole:
                 x           y           z       tot (Debye)
 q only:       -0.002      -1.638       3.279
   full:       -0.002      -1.792       3.367       9.694

 projected vibrational frequencies (cm⁻¹)
eigval :       -0.00    -0.00    -0.00    -0.00     0.00     0.00
eigval :        9.22    20.00    23.73    31.32    36.43    50.22
eigval :       75.78    79.35    86.31    99.74   106.31   110.95
eigval :      122.36   124.80   139.36   168.99   176.45   181.36
eigval :      183.82   201.25   217.67   245.32   252.07   256.46
eigval :      261.63   265.09   275.27   281.47   318.93   328.35
eigval :      361.13   370.89   391.43   397.39   402.96   425.74
eigval :      426.68   433.58   439.91   468.95   469.10   483.85
eigval :      491.35   491.93   522.86   527.74   539.61   543.79
eigval :      544.39   551.67   554.66   563.05   573.60   574.29
eigval :      603.39   620.50   639.95   640.70   668.67   673.48
eigval :      676.59   683.08   706.43   706.51   718.92   732.70
eigval :      764.18   768.76   790.12   790.74   855.41   857.63
eigval :      867.22   877.65   879.10   880.20   881.05   883.78
eigval :      884.86   890.01   899.86   901.48   902.55   904.75
eigval :      915.28   916.04   917.10   918.44   996.06  1000.82
eigval :     1015.00  1017.12  1058.74  1061.12  1064.03  1082.03
eigval :     1106.21  1107.37  1123.06  1133.82  1135.86  1153.44
eigval :     1157.17  1172.20  1172.57  1185.24  1189.11  1190.76
eigval :     1207.88  1212.61  1233.26  1242.51  1258.83  1260.64
eigval :     1264.19  1287.52  1295.51  1299.95  1312.03  1315.97
eigval :     1322.76  1355.29  1362.13  1362.99  1365.42  1381.79
eigval :     1383.03  1392.63  1396.67  1399.33  1407.98  1410.63
eigval :     1443.27  1447.32  1457.90  1460.62  1464.38  1468.17
eigval :     1472.61  1474.10  1485.50  1487.59  1547.99  1553.19
eigval :     1556.61  1557.59  1568.67  1572.25  1589.07  1591.31
eigval :     2216.48  2293.66  2989.75  2990.13  3031.28  3031.37
eigval :     3039.58  3040.04  3065.12  3072.38  3083.46  3083.66
eigval :     3084.07  3084.32  3089.33  3089.41  3091.79  3091.96
eigval :     3096.01  3096.30  3101.36  3101.44  3102.35  3103.14

   temp. (K)  partition function   enthalpy   heat capacity  entropy
                                   cal/mol     cal/K/mol   cal/K/mol   J/K/mol
 298.15  VIB  0.314E+14            18135.927    114.206    111.803
         ROT  0.313E+08              888.752      2.981     37.282
         INT  0.983E+21            19024.679    117.187    149.085
         TR   0.104E+29             1481.254      4.968     44.414
         TOT                       20505.9328   122.1550   193.4988   809.5990

       T/K    H(0)-H(T)+PV         H(T)/Eh          T*S/Eh         G(T)/Eh
   ------------------------------------------------------------------------
    298.15    0.326783E-01    0.480606E+00    0.919375E-01    0.388668E+00
   ------------------------------------------------------------------------

         :::::::::::::::::::::::::::::::::::::::::::::::::::::
         ::                  THERMODYNAMIC                  ::
         :::::::::::::::::::::::::::::::::::::::::::::::::::::
         :: total free energy         -95.291821829736 Eh   ::
         ::.................................................::
         :: total energy              -95.680490233728 Eh   ::
         :: zero point energy           0.447927648762 Eh   ::
         :: G(RRHO) w/o ZPVE           -0.059259244770 Eh   ::
         :: G(RRHO) contrib.            0.388668403992 Eh   ::
         :::::::::::::::::::::::::::::::::::::::::::::::::::::

           -------------------------------------------------
          | TOTAL ENERGY              -95.680490233728 Eh   |
          | TOTAL ENTHALPY            -95.199884300942 Eh   |
          | TOTAL FREE ENERGY         -95.291821829736 Eh   |
          | GRADIENT NORM               0.000044129139 Eh/α |
          | HOMO-LUMO GAP               0.551279401665 eV   |
           -------------------------------------------------

 * finished run on 2025/07/19 at 22:14:02.280
