   * xtb version 6.7.1 (edcfbbe) compiled by 'albert@albert-system' on 2024-07-22

   ID    Z sym.   atoms
    1    6 C      1-12, 14-16, 18-32, 34-36, 38
    2    7 N      13, 17, 33, 37
    3    1 H      39-60

          program call               : xtb data2507/toluene/DMeCzIPN/DMeCzIPN.xyz --gfn 2 --gbsa toluene --ohess vtight --parallel 40 --molden --ceasefiles --namespace data2507/toluene/DMeCzIPN/DMeCzIPN_toluene_S0_preOpt
      * Solvation model:               GBSA
        Solvent                        toluene
        Solvent mass                       9.2140E+01 g/mol
          :  Hamiltonian                  GFN2-xTB          :
 * total energy  :   -95.7437617 Eh     change       -0.6508799E-08 Eh
 * total energy  :   -95.7579122 Eh     change       -0.1415047E-01 Eh
 * total energy  :   -95.7606898 Eh     change       -0.2777557E-02 Eh
 * total energy  :   -95.7605324 Eh     change        0.1573585E-03 Eh
 * total energy  :   -95.7624360 Eh     change       -0.1903630E-02 Eh
 * total energy  :   -95.7627372 Eh     change       -0.3011984E-03 Eh
 * total energy  :   -95.7626531 Eh     change        0.8418334E-04 Eh
 * total energy  :   -95.7631011 Eh     change       -0.4480715E-03 Eh
 * total energy  :   -95.7631684 Eh     change       -0.6723201E-04 Eh
 * total energy  :   -95.7632954 Eh     change       -0.1269917E-03 Eh
 * total energy  :   -95.7637118 Eh     change       -0.7327797E-06 Eh
 * total energy  :   -95.7637123 Eh     change       -0.4398213E-06 Eh
 * total energy  :   -95.7637125 Eh     change       -0.2552145E-06 Eh
 * total energy  :   -95.7637128 Eh     change       -0.2590524E-06 Eh
 * total energy  :   -95.7637131 Eh     change       -0.3004336E-06 Eh
 * total energy  :   -95.7637133 Eh     change       -0.2122168E-06 Eh
 * total energy  :   -95.7637134 Eh     change       -0.1293068E-06 Eh
 * total energy  :   -95.7637134 Eh     change        0.7399521E-08 Eh
 * total energy  :   -95.7637135 Eh     change       -0.5189710E-07 Eh
   *** GEOMETRY OPTIMIZATION CONVERGED AFTER 45 ITERATIONS ***

 final structure:
================
60
 xtb: 6.7.1 (edcfbbe)
C            2.81078412144972        2.47899806888923       -1.10327465161155
C            3.80769302119492        1.52145392736671       -0.52137333498275
C            5.13217825296205        1.91228108873403       -0.36974800064662
C            6.09071455577001        1.10476058367099        0.23038206126805
C            5.74967178378884       -0.12947698124695        0.74566556660072
C            4.43826068897721       -0.55845790296467        0.60226279129669
C            3.75147185842727       -1.73933672521406        1.05246095471161
C            4.15951248471798       -2.87345431063566        1.74207316120348
C            3.22822211512075       -3.86000179572558        2.00294346778151
C            1.91041833167973       -3.73193361812035        1.57273583342130
C            1.48249345548201       -2.61177505322601        0.88273881497377
C            2.40947617270653       -1.61030428502701        0.64070859144071
N            2.25802072468130       -0.41246524237352       -0.04912260217031
C            1.13297138503415       -0.11225143469222       -0.80818090580529
C           -0.11703573676494       -0.03799923219646       -0.20428901446834
C           -1.26302948012005        0.22713111531770       -0.94538833852372
N           -2.50904226273087        0.26416297284370       -0.32802148460682
C           -3.52616184371749       -0.63421015196282       -0.62395763957958
C           -3.57311626867643       -1.62464866769046       -1.59234226636489
C           -4.70503860690920       -2.41706972833004       -1.64811720380031
C           -5.75807377403049       -2.24257463073270       -0.75411446728118
C           -5.69949059027845       -1.27801447140095        0.23268411757227
C           -4.57365021437898       -0.46829371913199        0.30430088215730
C           -4.17347067362659        0.58834159706990        1.19330551559114
C           -4.81026773850943        1.19180609287495        2.26851063460727
C           -4.16611016539742        2.23200011898432        2.90682126391460
C           -2.93325764232863        2.68660093728891        2.45344248877352
C           -2.27065984573025        2.11621803583865        1.37364247431785
C           -0.98347280681463        2.71624537224806        0.89099221351288
C           -2.89347632987268        1.02006875159938        0.77530711809824
C           -1.15249428912285        0.41036145347774       -2.34093407836031
C           -2.28428084674858        0.74553649783224       -3.11681918012562
N           -3.18346784960941        1.04958159563450       -3.76118548321706
C            0.08953080175641        0.31019576139147       -2.95925032849812
C            1.22896950497631        0.04025570336035       -2.20956077780558
C            2.46053209455384       -0.15346221282029       -2.87346320313204
N            3.43907355780885       -0.34747806172308       -3.44053462994203
C            3.48755880750002        0.24078169168184       -0.07175795656168
H            1.83864752068896        2.37467783125675       -0.62542309961597
H            2.68774602337849        2.31399577869620       -2.17482952962661
H            3.15809160428460        3.50024514818519       -0.96391653304032
H            5.42087268858749        2.89175422740413       -0.72271135634599
H            7.10535227014995        1.46396769255031        0.31587271417248
H            6.47547203569689       -0.74416801543383        1.25494490330962
H            5.18549121778565       -2.98011536071806        2.05932202055019
H            3.52453388144939       -4.74903739562098        2.53934997906952
H            1.20609110557561       -4.52450805553107        1.77754553802577
H            0.46101635363717       -2.53563825816066        0.54111343278631
H           -0.20240487743936       -0.18860639483847        0.86119780820000
H           -2.76037220955437       -1.78336932941593       -2.28590949008326
H           -4.76940489661579       -3.18934160148372       -2.40012379975766
H           -6.62659974503130       -2.87943288476693       -0.83140630181528
H           -6.50722535484248       -1.15538467476010        0.93791359732784
H           -5.78668522199544        0.85883686644964        2.58403631510498
H           -4.63106807434836        2.71912099191744        3.75090051526091
H           -2.47464216315456        3.53006821067875        2.94908336695774
H           -0.12150061792548        2.15714316341716        1.25598602376230
H           -0.94690490732197        2.73387979291796       -0.19714287020403
H           -0.89580385583488        3.73760537240909        1.25421070126429
H            0.16734146960932        0.43473375395114       -4.02955833906940

          :  Hamiltonian                  GFN2-xTB          :
         :: gradient norm              0.000041162362 Eh/a0 ::
         :: HOMO-LUMO gap              1.948922102911 eV    ::
         :: SCC energy               -97.596587441399 Eh    ::
         :: -> dispersion             -0.088633314403 Eh    ::
         :: -> Gsolv                  -0.042077053162 Eh    ::
         :: repulsion energy           1.832873958901 Eh    ::

    * Orbital Energies and Occupations

         #    Occupation            Energy/Eh            Energy/eV
      -------------------------------------------------------------
         1        2.0000           -0.7080887             -19.2681
       ...           ...                  ...                  ...
        77        2.0000           -0.4349570             -11.8358
        78        2.0000           -0.4298645             -11.6972
        79        2.0000           -0.4293736             -11.6839
        80        2.0000           -0.4276978             -11.6383
        81        2.0000           -0.4273311             -11.6283
        82        2.0000           -0.4258832             -11.5889
        83        2.0000           -0.4248120             -11.5597
        84        2.0000           -0.4111237             -11.1872
        85        2.0000           -0.4108864             -11.1808
        86        2.0000           -0.3869125             -10.5284
        87        2.0000           -0.3866718             -10.5219
        88        2.0000           -0.3774504             -10.2709
        89        2.0000           -0.3749078             -10.2018 (HOMO)
        90                         -0.3032863              -8.2528 (LUMO)
        91                         -0.2904094              -7.9024
        92                         -0.2532720              -6.8919
        93                         -0.2527890              -6.8787
        94                         -0.2338175              -6.3625
        95                         -0.2309751              -6.2852
        96                         -0.2301959              -6.2639
        97                         -0.2264557              -6.1622
        98                         -0.2232585              -6.0752
        99                         -0.2057279              -5.5981
       100                         -0.2022646              -5.5039
       ...                                ...                  ...
       174                          1.1462971              31.1923
      -------------------------------------------------------------
                  HL-Gap            0.0716216 Eh            1.9489 eV

     #   Z          covCN         q      C6AA      α(0)
     1   6 C        3.756    -0.104    22.535     6.768
     2   6 C        2.957    -0.002    28.084     8.692
     3   6 C        2.932    -0.042    29.043     8.838
     4   6 C        2.919    -0.038    28.956     8.824
     5   6 C        2.913    -0.036    28.906     8.816
     6   6 C        3.068    -0.015    28.309     8.724
     7   6 C        3.062    -0.013    28.275     8.720
     8   6 C        2.913    -0.032    28.796     8.799
     9   6 C        2.920    -0.038    28.952     8.824
    10   6 C        2.924    -0.032    28.808     8.802
    11   6 C        2.910    -0.052    29.285     8.874
    12   6 C        3.063     0.045    26.918     8.508
    13   7 N        2.801    -0.048    22.162     6.992
    14   6 C        2.914     0.084    26.136     8.383
    15   6 C        2.923    -0.054    29.344     8.883
    16   6 C        2.914     0.083    26.143     8.384
    17   7 N        2.802    -0.047    22.147     6.990
    18   6 C        3.065     0.047    26.889     8.503
    19   6 C        2.910    -0.049    29.213     8.863
    20   6 C        2.925    -0.032    28.791     8.799
    21   6 C        2.920    -0.038    28.950     8.823
    22   6 C        2.913    -0.032    28.802     8.800
    23   6 C        3.062    -0.014    28.293     8.722
    24   6 C        3.069    -0.015    28.305     8.724
    25   6 C        2.913    -0.036    28.908     8.816
    26   6 C        2.919    -0.039    28.979     8.828
    27   6 C        2.931    -0.043    29.069     8.842
    28   6 C        2.956    -0.002    28.085     8.692
    29   6 C        3.756    -0.105    22.552     6.771
    30   6 C        3.054     0.036    27.135     8.543
    31   6 C        2.972    -0.000    28.034     8.685
    32   6 C        1.911     0.124    28.062     8.555
    33   7 N        0.911    -0.254    26.600     7.459
    34   6 C        2.935    -0.012    28.307     8.726
    35   6 C        2.971     0.002    27.982     8.677
    36   6 C        1.911     0.125    28.043     8.552
    37   7 N        0.911    -0.257    26.671     7.469
    38   6 C        3.056     0.037    27.109     8.539
    39   1 H        0.925     0.040     2.448     2.447
    40   1 H        0.924     0.041     2.432     2.439
    41   1 H        0.925     0.054     2.276     2.359
    42   1 H        0.926     0.039     2.466     2.456
    43   1 H        0.926     0.036     2.497     2.471
    44   1 H        0.926     0.038     2.475     2.460
    45   1 H        0.926     0.039     2.462     2.453
    46   1 H        0.926     0.036     2.496     2.471
    47   1 H        0.926     0.037     2.486     2.466
    48   1 H        0.926     0.029     2.597     2.520
    49   1 H        0.926     0.070     2.085     2.258
    50   1 H        0.926     0.020     2.734     2.586
    51   1 H        0.926     0.036     2.500     2.473
    52   1 H        0.926     0.037     2.489     2.467
    53   1 H        0.926     0.040     2.450     2.448
    54   1 H        0.926     0.037     2.486     2.466
    55   1 H        0.926     0.035     2.511     2.478
    56   1 H        0.926     0.039     2.466     2.455
    57   1 H        0.924     0.049     2.335     2.389
    58   1 H        0.925     0.035     2.523     2.484
    59   1 H        0.925     0.052     2.289     2.366
    60   1 H        0.926     0.059     2.210     2.325

molecular dipole:
                 x           y           z       tot (Debye)
 q only:        0.082       0.187       1.679
   full:        0.061       0.136       1.880       4.792

 projected vibrational frequencies (cm⁻¹)
eigval :       -0.00    -0.00    -0.00    -0.00    -0.00     0.00
eigval :       19.52    21.15    23.07    41.50    47.40    56.70
eigval :       82.10    90.67    98.08   105.18   118.20   121.36
eigval :      125.59   132.85   144.46   179.10   188.24   195.19
eigval :      200.41   211.02   225.94   245.82   253.51   266.10
eigval :      271.52   279.25   283.28   287.87   321.26   326.66
eigval :      355.55   389.97   399.35   410.00   411.28   436.19
eigval :      439.58   479.50   482.07   484.20   493.34   495.96
eigval :      502.21   507.11   520.92   525.32   545.02   549.03
eigval :      549.60   554.23   565.45   572.51   580.99   592.93
eigval :      632.43   642.84   661.13   672.05   674.20   680.08
eigval :      692.19   699.64   705.61   707.44   725.51   738.29
eigval :      772.16   773.17   792.98   793.21   864.87   870.10
eigval :      870.97   882.39   883.82   885.30   886.91   892.41
eigval :      897.61   902.83   904.04   907.30   911.40   912.34
eigval :      913.16   915.37   922.37   923.45  1001.15  1005.56
eigval :     1028.39  1033.39  1066.53  1074.39  1076.73  1088.52
eigval :     1114.58  1115.95  1130.66  1149.66  1155.79  1165.82
eigval :     1167.65  1179.94  1181.41  1193.80  1194.28  1217.14
eigval :     1224.47  1226.41  1233.91  1252.47  1259.50  1285.62
eigval :     1287.99  1300.16  1306.33  1307.72  1335.53  1350.32
eigval :     1352.03  1354.38  1357.78  1360.31  1389.83  1394.17
eigval :     1403.40  1407.87  1421.39  1425.68  1446.67  1456.61
eigval :     1472.96  1474.00  1479.24  1483.33  1484.30  1486.62
eigval :     1494.41  1499.15  1500.41  1549.79  1579.86  1580.00
eigval :     1585.56  1587.17  1595.30  1595.78  1608.57  1609.22
eigval :     2356.43  2362.47  2985.90  2992.28  3019.28  3027.23
eigval :     3038.54  3040.16  3074.19  3075.31  3076.71  3076.94
eigval :     3081.06  3081.65  3085.40  3086.68  3088.93  3089.47
eigval :     3092.64  3097.07  3097.11  3099.48  3099.52  3102.85

   temp. (K)  partition function   enthalpy   heat capacity  entropy
                                   cal/mol     cal/K/mol   cal/K/mol   J/K/mol
 298.15  VIB  0.275E+13            17645.063    113.063    107.520
         ROT  0.309E+08              888.752      2.981     37.252
         INT  0.848E+20            18533.815    116.044    144.773
         TR   0.104E+29             1481.254      4.968     44.414
         TOT                       20015.0694   121.0123   189.1867   791.5571

       T/K    H(0)-H(T)+PV         H(T)/Eh          T*S/Eh         G(T)/Eh
   ------------------------------------------------------------------------
    298.15    0.318960E-01    0.484544E+00    0.898887E-01    0.394656E+00
   ------------------------------------------------------------------------

         :::::::::::::::::::::::::::::::::::::::::::::::::::::
         ::                  THERMODYNAMIC                  ::
         :::::::::::::::::::::::::::::::::::::::::::::::::::::
         :: total free energy         -95.369057718862 Eh   ::
         ::.................................................::
         :: total energy              -95.763713481504 Eh   ::
         :: zero point energy           0.452648421705 Eh   ::
         :: G(RRHO) w/o ZPVE           -0.057992659063 Eh   ::
         :: G(RRHO) contrib.            0.394655762642 Eh   ::
         :::::::::::::::::::::::::::::::::::::::::::::::::::::

           -------------------------------------------------
          | TOTAL ENERGY              -95.763713481504 Eh   |
          | TOTAL ENTHALPY            -95.279169016423 Eh   |
          | TOTAL FREE ENERGY         -95.369057718862 Eh   |
          | GRADIENT NORM               0.000041136227 Eh/α |
          | HOMO-LUMO GAP               1.948922204327 eV   |
           -------------------------------------------------

 * finished run on 2025/07/19 at 22:11:32.147
