   * xtb version 6.7.1 (edcfbbe) compiled by 'albert@albert-system' on 2024-07-22

   ID    Z sym.   atoms
    1    6 C      1-12, 14-16, 18-32, 34-36, 38
    2    7 N      13, 17, 33, 37
    3    1 H      39-60

          program call               : xtb data2507/toluene/DMeCzIPN/DMeCzIPN_toluene_S0_crest.xyz --gfn 2 --gbsa toluene --ohess vtight --parallel 40 --molden --ceasefiles --namespace data2507/toluene/DMeCzIPN/DMeCzIPN_toluene_S0_finalOpt
      * Solvation model:               GBSA
        Solvent                        toluene
        Solvent mass                       9.2140E+01 g/mol
          :  Hamiltonian                  GFN2-xTB          :
 * total energy  :   -95.7638317 Eh     change       -0.2825971E-08 Eh
 * total energy  :   -95.7638935 Eh     change       -0.6181670E-04 Eh
 * total energy  :   -95.7639165 Eh     change       -0.2295616E-04 Eh
 * total energy  :   -95.7639298 Eh     change       -0.1332984E-04 Eh
 * total energy  :   -95.7639346 Eh     change       -0.4848546E-05 Eh
 * total energy  :   -95.7639370 Eh     change       -0.2369539E-05 Eh
 * total energy  :   -95.7639397 Eh     change       -0.2725451E-05 Eh
 * total energy  :   -95.7639417 Eh     change       -0.1921740E-05 Eh
 * total energy  :   -95.7639434 Eh     change       -0.1743018E-05 Eh
 * total energy  :   -95.7639447 Eh     change       -0.1288835E-05 Eh
 * total energy  :   -95.7639467 Eh     change       -0.4845173E-06 Eh
 * total energy  :   -95.7639472 Eh     change       -0.4840634E-06 Eh
 * total energy  :   -95.7639477 Eh     change       -0.5252892E-06 Eh
 * total energy  :   -95.7639483 Eh     change       -0.6151179E-06 Eh
 * total energy  :   -95.7639489 Eh     change       -0.5860612E-06 Eh
 * total energy  :   -95.7639494 Eh     change       -0.4421437E-06 Eh
 * total energy  :   -95.7639497 Eh     change       -0.3046929E-06 Eh
 * total energy  :   -95.7639499 Eh     change       -0.2248914E-06 Eh
 * total energy  :   -95.7639499 Eh     change       -0.2560526E-08 Eh
   *** GEOMETRY OPTIMIZATION CONVERGED AFTER 22 ITERATIONS ***

 final structure:
================
60
 xtb: 6.7.1 (edcfbbe)
C            2.33560395636754        2.87616458036207        0.93125131010776
C            3.53105010290697        1.97034230969303        0.92798331761361
C            4.76183721164168        2.45305824770003        1.35453237407433
C            5.89127398690200        1.64975524088851        1.45560312079550
C            5.82386618909138        0.30131583126746        1.16933104860436
C            4.61386021420663       -0.21387085352549        0.72793167215045
C            4.19450165303489       -1.54923369018998        0.39787783952742
C            4.84838272727810       -2.77387554480860        0.36991313253588
C            4.13973138062005       -3.89429010477899       -0.01901715271146
C            2.80216213869180       -3.80062345322500       -0.39309145510974
C            2.13364079216870       -2.59009729023373       -0.37557381586059
C            2.83337346400045       -1.46936147446526        0.04044697028915
N            2.41436373215797       -0.14737344703904        0.12817882978969
C            1.21205528438767        0.31396635559557       -0.39687335590021
C           -0.00019054107501       -0.16148804082498        0.09147288572895
C           -1.21063822228170        0.31975545656658       -0.39516349258574
N           -2.41463323112001       -0.13747533276723        0.13043335961984
C           -2.84286598052421       -1.45567440420725        0.03273408156243
C           -2.15115400727362       -2.57765088752905       -0.39322837344057
C           -2.82785411212313       -3.78344127887863       -0.41959605472114
C           -4.16558550183248       -3.87100309545258       -0.04454504838897
C           -4.86618402814207       -2.74905161690980        0.35441966651135
C           -4.20400015882518       -1.52911333853418        0.39166688822182
C           -4.61372575269240       -0.19349567521202        0.73262774440890
C           -5.81924448805094        0.32703977370428        1.18010338798916
C           -5.87654892652787        1.67377312449177        1.47640194800072
C           -4.74182880562789        2.47011640005151        1.37874802811247
C           -3.51536469810807        1.98185871570034        0.94632310348188
C           -2.31300479311480        2.87843208182066        0.95282301350531
C           -3.48479893002259        0.64012065990647        0.56656151274752
C           -1.20406735655621        1.26104964250073       -1.44912683150691
C           -2.41453527886515        1.69313877327847       -2.03471598246366
N           -3.38233528058525        2.03114624848555       -2.55038673460605
C            0.00275593435456        1.71732631853096       -1.96698434329511
C            1.20811063086227        1.25388781804958       -1.45214028885321
C            2.41943689428111        1.67702554478262       -2.04246016012773
N            3.38744867223078        2.00684959774508       -2.56303787213441
C            3.49038926541316        0.62624592672400        0.55744548536928
H            2.49774118374274        3.69459124952675        1.62893142652237
H            1.43754326529418        2.33837290852804        1.23002902635731
H            2.16629772927858        3.30953066519556       -0.05557395524418
H            4.83538278045474        3.49447025662915        1.63256547020155
H            6.82077543162047        2.08520767415308        1.79050249601962
H            6.68169702096535       -0.34132967903560        1.29218147210640
H            5.89007579103113       -2.84327034275739        0.64321191875163
H            4.62887106803143       -4.85656743363665       -0.04370522146402
H            2.27506242658526       -4.68933081075679       -0.70702157157126
H            1.10235075928314       -2.52797501687117       -0.68602014152984
H           -0.00150751205430       -0.87169215885979        0.90488736778666
H           -1.11991896051482       -2.51959799277863       -0.70481592215290
H           -2.30728759526937       -4.67321627102758       -0.74131084107007
H           -4.66132712965995       -4.82967420279015       -0.07657556327485
H           -5.90802178592635       -2.81370655365293        0.62835548061785
H           -6.68144386751209       -0.31032696183642        1.29986799299494
H           -6.80227641880223        2.11313798799331        1.81658051556552
H           -4.80769290230376        3.50998984700791        1.66437375410058
H           -1.41925578116584        2.33212955423568        1.24919190115057
H           -2.14036549842825        3.31416397216899       -0.03235776662115
H           -2.46836544050861        3.69532428724124        1.65381505847711
H            0.00384388660906        2.42086197056015       -2.78683790096690

          :  Hamiltonian                  GFN2-xTB          :
         :: gradient norm              0.000066862331 Eh/a0 ::
         :: HOMO-LUMO gap              1.982285863827 eV    ::
         :: SCC energy               -97.597294635842 Eh    ::
         :: -> dispersion             -0.089961833425 Eh    ::
         :: -> Gsolv                  -0.041625862836 Eh    ::
         :: repulsion energy           1.833344731166 Eh    ::

    * Orbital Energies and Occupations

         #    Occupation            Energy/Eh            Energy/eV
      -------------------------------------------------------------
         1        2.0000           -0.7078234             -19.2609
       ...           ...                  ...                  ...
        77        2.0000           -0.4342863             -11.8175
        78        2.0000           -0.4305118             -11.7148
        79        2.0000           -0.4291664             -11.6782
        80        2.0000           -0.4285621             -11.6618
        81        2.0000           -0.4269215             -11.6171
        82        2.0000           -0.4268951             -11.6164
        83        2.0000           -0.4231224             -11.5137
        84        2.0000           -0.4110105             -11.1842
        85        2.0000           -0.4109273             -11.1819
        86        2.0000           -0.3868178             -10.5258
        87        2.0000           -0.3866762             -10.5220
        88        2.0000           -0.3767782             -10.2527
        89        2.0000           -0.3757171             -10.2238 (HOMO)
        90                         -0.3028695              -8.2415 (LUMO)
        91                         -0.2902292              -7.8975
        92                         -0.2535536              -6.8995
        93                         -0.2526837              -6.8759
        94                         -0.2339813              -6.3670
        95                         -0.2308034              -6.2805
        96                         -0.2297574              -6.2520
        97                         -0.2267181              -6.1693
        98                         -0.2231697              -6.0728
        99                         -0.2051225              -5.5817
       100                         -0.2032118              -5.5297
       ...                                ...                  ...
       174                          1.1456580              31.1749
      -------------------------------------------------------------
                  HL-Gap            0.0728477 Eh            1.9823 eV

     #   Z          covCN         q      C6AA      α(0)
     1   6 C        3.756    -0.102    22.510     6.765
     2   6 C        2.957    -0.003    28.093     8.694
     3   6 C        2.932    -0.042    29.044     8.838
     4   6 C        2.919    -0.038    28.957     8.824
     5   6 C        2.913    -0.036    28.906     8.816
     6   6 C        3.068    -0.015    28.307     8.724
     7   6 C        3.062    -0.013    28.279     8.720
     8   6 C        2.913    -0.032    28.794     8.799
     9   6 C        2.920    -0.038    28.955     8.824
    10   6 C        2.924    -0.032    28.808     8.802
    11   6 C        2.911    -0.051    29.260     8.870
    12   6 C        3.064     0.046    26.908     8.506
    13   7 N        2.801    -0.048    22.164     6.992
    14   6 C        2.914     0.083    26.145     8.385
    15   6 C        2.922    -0.056    29.389     8.890
    16   6 C        2.914     0.083    26.144     8.384
    17   7 N        2.801    -0.048    22.171     6.993
    18   6 C        3.064     0.046    26.907     8.506
    19   6 C        2.911    -0.051    29.261     8.870
    20   6 C        2.924    -0.032    28.809     8.802
    21   6 C        2.920    -0.038    28.957     8.824
    22   6 C        2.913    -0.032    28.795     8.799
    23   6 C        3.062    -0.013    28.281     8.721
    24   6 C        3.068    -0.015    28.308     8.724
    25   6 C        2.913    -0.036    28.906     8.816
    26   6 C        2.919    -0.039    28.958     8.825
    27   6 C        2.932    -0.042    29.045     8.838
    28   6 C        2.957    -0.003    28.095     8.694
    29   6 C        3.756    -0.102    22.509     6.765
    30   6 C        3.058     0.038    27.103     8.538
    31   6 C        2.971     0.001    27.992     8.678
    32   6 C        1.911     0.124    28.049     8.553
    33   7 N        0.911    -0.257    26.680     7.470
    34   6 C        2.935    -0.011    28.293     8.723
    35   6 C        2.971     0.001    27.991     8.678
    36   6 C        1.911     0.124    28.049     8.553
    37   7 N        0.911    -0.257    26.681     7.471
    38   6 C        3.057     0.038    27.105     8.538
    39   1 H        0.925     0.054     2.276     2.359
    40   1 H        0.925     0.037     2.485     2.465
    41   1 H        0.924     0.042     2.425     2.435
    42   1 H        0.926     0.039     2.466     2.456
    43   1 H        0.926     0.037     2.495     2.470
    44   1 H        0.926     0.038     2.472     2.459
    45   1 H        0.926     0.039     2.464     2.455
    46   1 H        0.926     0.036     2.497     2.471
    47   1 H        0.926     0.038     2.481     2.463
    48   1 H        0.926     0.027     2.625     2.534
    49   1 H        0.926     0.070     2.087     2.259
    50   1 H        0.926     0.027     2.628     2.535
    51   1 H        0.926     0.037     2.482     2.464
    52   1 H        0.926     0.036     2.498     2.472
    53   1 H        0.926     0.039     2.465     2.455
    54   1 H        0.926     0.038     2.474     2.459
    55   1 H        0.926     0.036     2.496     2.471
    56   1 H        0.926     0.039     2.467     2.456
    57   1 H        0.925     0.037     2.485     2.465
    58   1 H        0.924     0.042     2.427     2.436
    59   1 H        0.925     0.053     2.277     2.360
    60   1 H        0.926     0.059     2.212     2.326

molecular dipole:
                 x           y           z       tot (Debye)
 q only:        0.010      -0.584       1.444
   full:        0.010      -0.722       1.632       4.536

 projected vibrational frequencies (cm⁻¹)
eigval :       -0.00    -0.00     0.00     0.00     0.00     0.00
eigval :       11.47    24.09    27.61    35.56    45.65    56.01
eigval :       78.53    91.36    98.06   107.20   113.02   116.83
eigval :      124.54   131.41   142.01   174.70   188.27   197.32
eigval :      203.44   214.95   226.10   254.24   255.68   259.83
eigval :      263.65   274.94   281.71   285.61   320.01   326.57
eigval :      361.30   394.38   396.30   401.46   407.02   436.56
eigval :      438.99   478.82   481.34   487.05   489.12   494.18
eigval :      500.80   506.52   521.71   527.63   544.68   548.38
eigval :      549.42   554.88   566.05   573.88   585.57   589.36
eigval :      634.45   638.92   667.60   670.78   672.97   677.73
eigval :      689.97   700.22   705.82   707.12   725.66   737.97
eigval :      770.16   774.36   789.01   791.28   859.97   866.52
eigval :      876.11   882.26   885.55   887.58   887.83   893.03
eigval :      893.56   899.52   900.82   908.57   909.90   911.14
eigval :      911.53   911.84   922.59   926.09  1001.95  1005.15
eigval :     1027.69  1029.37  1065.82  1067.97  1072.86  1087.43
eigval :     1114.16  1115.70  1128.57  1149.59  1150.48  1162.24
eigval :     1166.58  1177.29  1180.17  1193.19  1194.82  1216.67
eigval :     1220.18  1224.13  1230.09  1249.85  1259.47  1285.07
eigval :     1286.70  1298.50  1305.57  1306.33  1334.18  1351.20
eigval :     1351.89  1356.34  1357.89  1360.82  1391.11  1393.99
eigval :     1400.87  1404.18  1420.55  1422.81  1444.68  1455.67
eigval :     1473.52  1473.57  1478.96  1483.68  1486.24  1487.29
eigval :     1494.33  1499.02  1500.20  1549.07  1580.22  1580.52
eigval :     1586.59  1586.91  1596.25  1596.54  1609.13  1609.27
eigval :     2355.11  2360.62  2983.11  2983.58  3019.50  3019.88
eigval :     3039.20  3039.59  3077.00  3077.03  3079.05  3079.43
eigval :     3085.08  3085.32  3086.28  3086.31  3092.09  3092.61
eigval :     3093.26  3097.43  3097.54  3099.81  3099.90  3101.80

   temp. (K)  partition function   enthalpy   heat capacity  entropy
                                   cal/mol     cal/K/mol   cal/K/mol   J/K/mol
 298.15  VIB  0.464E+13            17691.210    113.033    108.153
         ROT  0.312E+08              888.752      2.981     37.276
         INT  0.145E+21            18579.963    116.014    145.428
         TR   0.104E+29             1481.254      4.968     44.414
         TOT                       20061.2166   120.9819   189.8421   794.2995

       T/K    H(0)-H(T)+PV         H(T)/Eh          T*S/Eh         G(T)/Eh
   ------------------------------------------------------------------------
    298.15    0.319696E-01    0.484359E+00    0.902001E-01    0.394158E+00
   ------------------------------------------------------------------------

         :::::::::::::::::::::::::::::::::::::::::::::::::::::
         ::                  THERMODYNAMIC                  ::
         :::::::::::::::::::::::::::::::::::::::::::::::::::::
         :: total free energy         -95.369791521717 Eh   ::
         ::.................................................::
         :: total energy              -95.763949905652 Eh   ::
         :: zero point energy           0.452388930173 Eh   ::
         :: G(RRHO) w/o ZPVE           -0.058230546237 Eh   ::
         :: G(RRHO) contrib.            0.394158383936 Eh   ::
         :::::::::::::::::::::::::::::::::::::::::::::::::::::

           -------------------------------------------------
          | TOTAL ENERGY              -95.763949905652 Eh   |
          | TOTAL ENTHALPY            -95.279591391931 Eh   |
          | TOTAL FREE ENERGY         -95.369791521717 Eh   |
          | GRADIENT NORM               0.000066846061 Eh/α |
          | HOMO-LUMO GAP               1.982285672742 eV   |
           -------------------------------------------------

 * finished run on 2025/07/19 at 22:13:56.302
