   * xtb version 6.7.1 (edcfbbe) compiled by 'albert@albert-system' on 2024-07-22

   ID    Z sym.   atoms
    1    6 C      1-6, 8-13, 15-27, 29-34, 36-41, 43-46, 48
    2    8 O      7
    3    7 N      14, 28, 35, 42, 47
    4    1 H      49-73

          program call               : xtb data2507/gas/pDPBPZ-PXZ/pDPBPZ-PXZ_gas_S0_finalOpt.xtbopt.xyz --gfn 2 --spinpol --tblite --uhf 2 --ohess vtight --parallel 40 --molden --ceasefiles --namespace data2507/gas/pDPBPZ-PXZ/pDPBPZ-PXZ_gas_T1_preOpt
 * total energy  :  -121.3750959 Eh     change        0.3984491E-07 Eh
 * total energy  :  -121.3781012 Eh     change       -0.3005341E-02 Eh
 * total energy  :  -121.3790817 Eh     change       -0.9804365E-03 Eh
 * total energy  :  -121.3791998 Eh     change       -0.1180816E-03 Eh
 * total energy  :  -121.3792512 Eh     change       -0.5142717E-04 Eh
 * total energy  :  -121.3792625 Eh     change       -0.1129853E-04 Eh
 * total energy  :  -121.3792776 Eh     change       -0.1510218E-04 Eh
 * total energy  :  -121.3792953 Eh     change       -0.1773223E-04 Eh
 * total energy  :  -121.3793078 Eh     change       -0.1243781E-04 Eh
 * total energy  :  -121.3793159 Eh     change       -0.8093382E-05 Eh
 * total energy  :  -121.3793740 Eh     change       -0.1637335E-06 Eh
 * total energy  :  -121.3793742 Eh     change       -0.1992966E-06 Eh
 * total energy  :  -121.3793744 Eh     change       -0.1899950E-06 Eh
 * total energy  :  -121.3793746 Eh     change       -0.1764041E-06 Eh
 * total energy  :  -121.3793748 Eh     change       -0.1894273E-06 Eh
 * total energy  :  -121.3793750 Eh     change       -0.2009477E-06 Eh
 * total energy  :  -121.3793751 Eh     change       -0.1217393E-06 Eh
 * total energy  :  -121.3793754 Eh     change       -0.2913921E-06 Eh
 * total energy  :  -121.3793755 Eh     change       -0.9012079E-07 Eh
   *** GEOMETRY OPTIMIZATION CONVERGED AFTER 57 ITERATIONS ***

 final structure:
================
73
 xtb: 6.7.1 (edcfbbe)
C           -7.72399727004583       -0.88678152425729       -3.08171822800795
C           -6.37946025554391       -1.20740626772006       -3.07183205659279
C           -5.54200259371790       -0.69199429118370       -2.09670203281928
C           -6.03883684369590        0.14971916059748       -1.10680097776102
C           -7.40050634393887        0.48952053145177       -1.14086475122537
C           -8.23145101808507       -0.03071737983205       -2.11697558528054
O           -7.96404927511844        1.34817316733699       -0.23437543429013
C           -7.15200220415764        1.86891277773486        0.73818988463377
C           -7.73302672959269        2.72808950945385        1.65353506500663
C           -6.97445284987363        3.27215164969202        2.67820761724080
C           -5.63730965621191        2.94005667141118        2.79008216735954
C           -5.04857697163873        2.08161875296886        1.87664002900523
C           -5.78871563974595        1.54716412092917        0.82704566889013
N           -5.22909401466741        0.68467538003472       -0.10984637951171
C           -3.84768134043154        0.37372462309826       -0.05795155538545
C           -2.89998540318568        1.37821424697546       -0.30048721344019
C           -1.56876238845833        1.06864755644607       -0.24569639549555
C           -1.13819580406473       -0.23960880542750        0.03629787227046
C           -2.08867228459883       -1.26205246863500        0.27316197518322
C           -3.44440419899161       -0.91354783862839        0.22691857367714
C           -1.63540327266785       -2.60310754429809        0.55502946026674
C           -2.51258848826926       -3.67500321361208        0.77965709559768
C           -2.04732175779662       -4.93987304976871        1.04635834025279
C           -0.67584847721616       -5.19083351753102        1.10059302003291
C            0.20923607960551       -4.16749745125472        0.88212014742367
C           -0.24733397191205       -2.86842708044776        0.60635958420088
C            0.71007933949689       -1.83118265366004        0.37574772098151
N            2.01131339566728       -2.07648322905347        0.42709762179434
C            2.91975956377256       -1.12522309197317        0.21601378986851
C            4.28789974568807       -1.36804481507222        0.25823339698601
C            5.22003661597047       -0.36126814127698        0.03497754447985
C            6.64795157948639       -0.70734744070796        0.03194963552662
C            7.49424475804082       -0.30563007993514       -1.00147827792139
C            8.82682024486326       -0.67510174804244       -0.95320404787760
N            9.35245569270013       -1.39613204963448        0.02324359203154
C            8.55003757523169       -1.78837675108814        0.99847281806099
C            7.20179891182211       -1.48038988788176        1.05177255800916
C            4.77707743526207        0.94582003632981       -0.22835165295171
C            5.71942960565380        2.06154822050147       -0.39136244724279
C            5.58419581415036        2.96855175637337       -1.44169150076036
C            6.49038238473722        4.00955500952993       -1.54509468695809
N            7.48319311854514        4.20302270488085       -0.69326891679149
C            7.60537151412725        3.35250400310055        0.31238065309368
C            6.76039317682840        2.27510517410511        0.51205457016064
C            3.41389267547850        1.20861529145455       -0.28846490127343
C            2.46346880214067        0.21474520681692       -0.07855091972379
N            1.15395716042333        0.44577849838237       -0.13433627688230
C            0.26108917166991       -0.51336983273559        0.08362200335428
H           -8.37853173820569       -1.28977895391436       -3.83800763441778
H           -5.96982447983141       -1.86077355221634       -3.82640418637720
H           -4.49204888656765       -0.93836169705222       -2.10594027262676
H           -9.27191041079096        0.25159147306449       -2.10564564873773
H           -8.78176700186638        2.95467701485024        1.54783012278960
H           -7.43390431345131        3.94321097702419        3.38629839489025
H           -5.04107470904496        3.34511578260899        3.59285659704641
H           -4.00775411282357        1.81846399946431        1.97953274105862
H           -3.23215571020135        2.37960159486746       -0.52921446133579
H           -0.81440925893649        1.81890867880722       -0.42579740576291
H           -4.20684192365919       -1.65258331995846        0.41641068339473
H           -3.57875527073689       -3.51663136996496        0.74240766393189
H           -2.74728445070635       -5.74497628328605        1.21445180934913
H           -0.31730161057048       -6.18704982933089        1.31183186333591
H            1.27548257263451       -4.33150030399900        0.91413531704054
H            4.61748325012264       -2.37898877143936        0.44350227059760
H            7.11469685786809        0.27235245454516       -1.83022755762269
H            9.51261494031303       -0.38004004525558       -1.73677607064267
H            9.01646654957126       -2.37884274379868        1.77681460638773
H            6.59196923567437       -1.81366282073961        1.87809927776969
H            4.79824063154036        2.84644359826265       -2.17187751554893
H            6.42197350183748        4.72794232903195       -2.35211659674183
H            8.42435985251312        3.54818687988455        0.99231198970955
H            6.89747424970251        1.61949074338476        1.35840815757253
H            3.06424749880574        2.21330524453495       -0.47125308248994

 projected vibrational frequencies (cm⁻¹)
eigval :       -0.00    -0.00     0.00     0.00     0.00     0.00
eigval :       10.81    12.73    21.75    24.49    34.20    42.48
eigval :       45.66    56.05    59.21    63.02    76.70    84.77
eigval :       91.24    98.50   111.75   123.15   137.77   148.28
eigval :      154.84   189.22   197.69   211.54   234.62   239.60
eigval :      244.41   248.11   257.22   274.43   285.31   298.58
eigval :      313.76   328.19   336.33   341.28   364.11   372.52
eigval :      379.44   393.20   405.71   412.68   419.35   427.24
eigval :      430.29   435.42   447.14   457.63   470.01   505.63
eigval :      506.74   507.54   515.68   523.13   527.88   537.50
eigval :      560.71   574.99   575.83   581.52   588.99   603.74
eigval :      612.51   618.33   619.94   625.12   630.31   652.47
eigval :      655.53   663.65   665.60   679.77   681.36   682.11
eigval :      702.86   708.50   709.44   723.20   724.47   730.79
eigval :      765.18   772.61   778.25   778.87   797.95   798.31
eigval :      814.86   821.48   825.52   832.11   855.89   857.69
eigval :      861.31   866.21   867.78   877.12   887.53   888.27
eigval :      899.10   900.53   909.58   912.40   914.67   915.19
eigval :      916.05   916.80   917.64   918.82   923.30   924.19
eigval :      924.33   940.81   966.91   997.78  1022.24  1034.27
eigval :     1062.42  1081.63  1087.83  1088.10  1090.23  1099.45
eigval :     1100.19  1111.37  1118.29  1119.23  1122.67  1144.30
eigval :     1147.59  1168.15  1175.12  1179.57  1184.79  1198.65
eigval :     1205.19  1206.17  1206.97  1209.17  1225.68  1237.46
eigval :     1239.07  1241.86  1244.89  1250.37  1257.78  1259.33
eigval :     1263.81  1265.18  1279.87  1282.28  1285.36  1287.26
eigval :     1300.90  1311.03  1313.65  1328.34  1332.12  1343.20
eigval :     1348.96  1360.23  1371.30  1374.35  1382.61  1395.11
eigval :     1408.42  1414.27  1419.48  1423.37  1443.07  1461.62
eigval :     1466.54  1467.24  1471.65  1478.25  1483.92  1492.24
eigval :     1510.60  1520.69  1526.94  1546.80  1547.66  1547.99
eigval :     1563.01  1571.77  1574.36  1577.65  1577.94  1583.73
eigval :     1590.71  1595.12  3053.20  3053.36  3056.95  3057.47
eigval :     3079.07  3085.24  3085.45  3087.89  3088.75  3090.57
eigval :     3090.71  3091.82  3092.59  3093.56  3093.85  3096.86
eigval :     3100.53  3101.96  3102.75  3102.99  3107.58  3109.63
eigval :     3110.13  3115.29  3115.72

   temp. (K)  partition function   enthalpy   heat capacity  entropy
                                   cal/mol     cal/K/mol   cal/K/mol   J/K/mol
 298.15  VIB  0.118E+17            21114.526    135.612    130.508
         ROT  0.100E+09              888.752      2.981     39.593
         INT  0.119E+25            22003.279    138.593    170.101
         TR   0.148E+29             1481.254      4.968     45.115
         TOT                       23484.5327   143.5610   215.2165   900.4660

       T/K    H(0)-H(T)+PV         H(T)/Eh          T*S/Eh         G(T)/Eh
   ------------------------------------------------------------------------
    298.15    0.374250E-01    0.577870E+00    0.102256E+00    0.475613E+00
   ------------------------------------------------------------------------

         :::::::::::::::::::::::::::::::::::::::::::::::::::::
         ::                  THERMODYNAMIC                  ::
         :::::::::::::::::::::::::::::::::::::::::::::::::::::
         :: total free energy        -120.903762058167 Eh   ::
         ::.................................................::
         :: total energy             -121.379375524573 Eh   ::
         :: zero point energy           0.540444800296 Eh   ::
         :: G(RRHO) w/o ZPVE           -0.064831333890 Eh   ::
         :: G(RRHO) contrib.            0.475613466406 Eh   ::
         :::::::::::::::::::::::::::::::::::::::::::::::::::::

           -------------------------------------------------
          | TOTAL ENERGY             -121.379375524573 Eh   |
          | TOTAL ENTHALPY           -120.801505739214 Eh   |
          | TOTAL FREE ENERGY        -120.903762058167 Eh   |
          | GRADIENT NORM               0.000070686251 Eh/α |
           -------------------------------------------------

 * finished run on 2025/08/22 at 12:54:25.753
