   * xtb version 6.7.1 (edcfbbe) compiled by 'albert@albert-system' on 2024-07-22

   ID    Z sym.   atoms
    1    6 C      1-6, 8-13, 15-27, 29-34, 36-41, 43-46, 48
    2    8 O      7
    3    7 N      14, 28, 35, 42, 47
    4    1 H      49-73

          program call               : xtb data2507/gas/pDPBPZ-PXZ/pDPBPZ-PXZ_gas_S0_crest.xyz --gfn 2 --ohess vtight --parallel 40 --molden --ceasefiles --namespace data2507/gas/pDPBPZ-PXZ/pDPBPZ-PXZ_gas_S0_finalOpt
          :  Hamiltonian                  GFN2-xTB          :
 * total energy  :  -121.4196423 Eh     change       -0.8416805E-09 Eh
 * total energy  :  -121.4196435 Eh     change       -0.1205386E-05 Eh
 * total energy  :  -121.4196448 Eh     change       -0.1266996E-05 Eh
 * total energy  :  -121.4196473 Eh     change       -0.2489381E-05 Eh
 * total energy  :  -121.4196482 Eh     change       -0.8946091E-06 Eh
 * total energy  :  -121.4196489 Eh     change       -0.7454766E-06 Eh
 * total energy  :  -121.4196498 Eh     change       -0.9079006E-06 Eh
 * total energy  :  -121.4196506 Eh     change       -0.8042216E-06 Eh
 * total energy  :  -121.4196513 Eh     change       -0.6976366E-06 Eh
 * total energy  :  -121.4196521 Eh     change       -0.7387809E-06 Eh
 * total energy  :  -121.4196543 Eh     change       -0.6018730E-06 Eh
 * total energy  :  -121.4196550 Eh     change       -0.6964607E-06 Eh
 * total energy  :  -121.4196557 Eh     change       -0.7074687E-06 Eh
 * total energy  :  -121.4196564 Eh     change       -0.7306563E-06 Eh
 * total energy  :  -121.4196572 Eh     change       -0.8073276E-06 Eh
 * total energy  :  -121.4196581 Eh     change       -0.8755598E-06 Eh
 * total energy  :  -121.4196590 Eh     change       -0.8726083E-06 Eh
 * total energy  :  -121.4196596 Eh     change       -0.6009425E-06 Eh
 * total energy  :  -121.4196596 Eh     change       -0.6092478E-08 Eh
   *** GEOMETRY OPTIMIZATION CONVERGED AFTER 22 ITERATIONS ***

 final structure:
================
73
 xtb: 6.7.1 (edcfbbe)
C           -7.75727189082654       -1.03954520182661       -2.94122528800696
C           -6.41103969145999       -1.34242660979248       -2.94663932922839
C           -5.55985511238710       -0.77276667523354       -2.01189321293924
C           -6.04380564440711        0.10218711989072       -1.04713122084786
C           -7.40617771767189        0.43038890617663       -1.07332359559528
C           -8.25094125363766       -0.14229700586571       -2.00587868177608
O           -7.96407036523803        1.33440711489431       -0.20451796490607
C           -7.13681973122420        1.91282230652446        0.72545340294459
C           -7.71374079031043        2.81100020278672        1.60380554701708
C           -6.95016615688030        3.41062422782254        2.59434878911338
C           -5.61326000658249        3.08872850914299        2.71009294478335
C           -5.02932444642047        2.19004869462181        1.83028869301451
C           -5.77194436700113        1.60761678144110        0.81080259408075
N           -5.21538030160141        0.69642077458273       -0.09098767271603
C           -3.83886188071063        0.39770438986149       -0.04641132227744
C           -2.89526526571709        1.40699308700777       -0.25870542012949
C           -1.55884350973137        1.09856278720660       -0.21107894908789
C           -1.12887645707523       -0.20930591959376        0.03689944973141
C           -2.06903363067005       -1.23923579321901        0.24225484072586
C           -3.42310718384799       -0.89955075524741        0.20405875819782
C           -1.61482763117626       -2.60110901363547        0.48894401936203
C           -2.50101827624995       -3.66880489126585        0.67143413400687
C           -2.04570740214475       -4.94872413404781        0.90270455859119
C           -0.68197882530894       -5.21226793482490        0.96019521672709
C            0.21287454530892       -4.18361435586881        0.77923074065492
C           -0.23512442451876       -2.88120144967056        0.54213559325628
C            0.73330980984207       -1.82503981992287        0.34400134704852
N            2.01844737671933       -2.11607024737011        0.40410104386765
C            2.89671153223881       -1.12224922867715        0.20806956453129
C            4.27931710678383       -1.38462422033276        0.25410269341937
C            5.19300358850879       -0.38246307820553        0.04647766969755
C            6.62869232541043       -0.70895497248597        0.03802755223883
C            7.45832063339940       -0.31564809806893       -1.01045966777785
C            8.79687819939188       -0.66653355589571       -0.96557121937455
N            9.33881780887274       -1.35776968117901        0.02245584040424
C            8.55138803888503       -1.74146130217634        1.01248704829071
C            7.19845889592218       -1.45215301439436        1.06971063416197
C            4.74699966707542        0.94852899936211       -0.20030426355841
C            5.71242981366315        2.04957383080644       -0.35431166438022
C            5.61062395463445        2.94470921495349       -1.41722513473803
C            6.53738510944392        3.96881764585854       -1.51565074234474
N            7.51650848668249        4.15333757373572       -0.64692768445643
C            7.60500570842712        3.31503433266321        0.37144107502724
C            6.73804913024808        2.25337260784501        0.56698223826089
C            3.40410033230233        1.22242245313897       -0.25724286688436
C            2.45037779498359        0.20538440590100       -0.05823974607611
N            1.14272309814812        0.49297310095712       -0.11185130014873
C            0.28592358922114       -0.49257529849261        0.08338367385600
H           -8.42443753526380       -1.48337394004796       -3.66303296161376
H           -6.00655846941353       -2.02220610298876       -3.68075151865211
H           -4.50676816294161       -1.00474437666236       -2.04212081235724
H           -9.29315457556366        0.13343420809232       -1.98659800959401
H           -8.76555775763399        3.02357951062433        1.49845795909634
H           -7.40795834386878        4.11293677299198        3.27280293574943
H           -5.01032381770910        3.53014769733354        3.48863270396286
H           -3.98745140088953        1.93465605174901        1.94390590469095
H           -3.22722752934031        2.41369462395024       -0.46335075863526
H           -0.80577459567974        1.85353039302252       -0.37214809792343
H           -4.18330100337830       -1.64446887879559        0.37726140152856
H           -3.56586228393943       -3.50478662400064        0.62993954280430
H           -2.75582914333844       -5.75109234609195        1.03897059960907
H           -0.33092071339625       -6.21673654907118        1.14265109189346
H            1.27781403381456       -4.35131515728796        0.81255791457378
H            4.59940925444192       -2.40071749290921        0.42900522320380
H            7.06395864241957        0.24044457250015       -1.84724200430818
H            9.47251124074698       -0.37849041607421       -1.76020603570507
H            9.03272967331343       -2.30820006076146        1.79898982010813
H            6.59763660743707       -1.77752261657205        1.90562572606547
H            4.83475181439316        2.82715444840708       -2.15870766991531
H            6.49725929388323        4.67873989876558       -2.33166088991348
H            8.41444393481107        3.50467885592882        1.06406559283926
H            6.84798293386571        1.60492896939220        1.42277574836909
H            3.04858051171706        2.22707450601775       -0.42980057743656

          :  Hamiltonian                  GFN2-xTB          :
         :: gradient norm              0.000053640568 Eh/a0 ::
         :: HOMO-LUMO gap              0.936133287415 eV    ::
         :: SCC energy              -123.570342658194 Eh    ::
         :: -> dispersion             -0.105927832960 Eh    ::
         :: repulsion energy           2.150683074992 Eh    ::

    * Orbital Energies and Occupations

         #    Occupation            Energy/Eh            Energy/eV
      -------------------------------------------------------------
         1        2.0000           -0.7292859             -19.8449
       ...           ...                  ...                  ...
       100        2.0000           -0.4239748             -11.5369
       101        2.0000           -0.4202428             -11.4354
       102        2.0000           -0.4178498             -11.3703
       103        2.0000           -0.4172322             -11.3535
       104        2.0000           -0.4143657             -11.2755
       105        2.0000           -0.4081161             -11.1054
       106        2.0000           -0.3992823             -10.8650
       107        2.0000           -0.3978395             -10.8258
       108        2.0000           -0.3911719             -10.6443
       109        2.0000           -0.3729763             -10.1492
       110        2.0000           -0.3721274             -10.1261
       111        2.0000           -0.3570355              -9.7154
       112        2.0000           -0.3448960              -9.3851 (HOMO)
       113                         -0.3104937              -8.4490 (LUMO)
       114                         -0.2802648              -7.6264
       115                         -0.2642601              -7.1909
       116                         -0.2606498              -7.0926
       117                         -0.2544036              -6.9227
       118                         -0.2449161              -6.6645
       119                         -0.2398119              -6.5256
       120                         -0.2397203              -6.5231
       121                         -0.2312423              -6.2924
       122                         -0.2305440              -6.2734
       123                         -0.2187520              -5.9525
       ...                                ...                  ...
       217                          0.7076555              19.2563
      -------------------------------------------------------------
                  HL-Gap            0.0344023 Eh            0.9361 eV

     #   Z          covCN         q      C6AA      α(0)
     1   6 C        2.919    -0.040    28.993     8.830
     2   6 C        2.919    -0.039    28.963     8.825
     3   6 C        2.924    -0.060    29.497     8.906
     4   6 C        2.921     0.042    27.053     8.530
     5   6 C        2.884     0.125    25.259     8.239
     6   6 C        2.920    -0.056    29.393     8.891
     7   8 O        1.709    -0.254    18.215     5.762
     8   6 C        2.884     0.125    25.261     8.240
     9   6 C        2.920    -0.056    29.392     8.890
    10   6 C        2.919    -0.040    28.988     8.829
    11   6 C        2.919    -0.038    28.956     8.824
    12   6 C        2.924    -0.060    29.480     8.904
    13   6 C        2.922     0.042    27.049     8.529
    14   7 N        2.752    -0.070    22.597     7.060
    15   6 C        2.919     0.068    26.486     8.440
    16   6 C        2.918    -0.041    29.021     8.834
    17   6 C        2.923    -0.028    28.689     8.784
    18   6 C        2.988    -0.005    28.146     8.703
    19   6 C        2.976     0.008    27.843     8.655
    20   6 C        2.926    -0.047    29.176     8.858
    21   6 C        2.976     0.007    27.852     8.657
    22   6 C        2.922    -0.033    28.818     8.803
    23   6 C        2.918    -0.026    28.647     8.777
    24   6 C        2.917    -0.027    28.678     8.782
    25   6 C        2.924    -0.026    28.654     8.778
    26   6 C        2.988    -0.000    28.030     8.685
    27   6 C        2.962     0.085    26.115     8.382
    28   7 N        1.848    -0.239    27.107     7.716
    29   6 C        2.966     0.080    26.204     8.396
    30   6 C        2.924    -0.045    29.107     8.847
    31   6 C        2.975     0.007    27.857     8.658
    32   6 C        2.988     0.030    27.325     8.575
    33   6 C        2.918    -0.041    29.016     8.833
    34   6 C        2.914     0.060    26.651     8.465
    35   7 N        1.836    -0.219    26.605     7.644
    36   6 C        2.914     0.060    26.658     8.466
    37   6 C        2.919    -0.044    29.098     8.846
    38   6 C        2.975     0.007    27.851     8.657
    39   6 C        2.988     0.030    27.325     8.575
    40   6 C        2.919    -0.044    29.098     8.846
    41   6 C        2.914     0.060    26.658     8.466
    42   7 N        1.836    -0.218    26.603     7.643
    43   6 C        2.914     0.060    26.651     8.465
    44   6 C        2.918    -0.041    29.016     8.833
    45   6 C        2.924    -0.045    29.114     8.849
    46   6 C        2.966     0.081    26.192     8.395
    47   7 N        1.849    -0.241    27.157     7.724
    48   6 C        2.963     0.084    26.122     8.383
    49   1 H        0.926     0.038     2.470     2.458
    50   1 H        0.926     0.036     2.505     2.475
    51   1 H        0.926     0.035     2.522     2.483
    52   1 H        0.926     0.051     2.310     2.377
    53   1 H        0.926     0.051     2.310     2.377
    54   1 H        0.926     0.039     2.468     2.456
    55   1 H        0.926     0.036     2.496     2.471
    56   1 H        0.926     0.035     2.512     2.479
    57   1 H        0.926     0.045     2.379     2.412
    58   1 H        0.926     0.065     2.143     2.289
    59   1 H        0.926     0.045     2.379     2.412
    60   1 H        0.926     0.038     2.476     2.461
    61   1 H        0.926     0.037     2.486     2.466
    62   1 H        0.926     0.039     2.468     2.457
    63   1 H        0.926     0.061     2.191     2.315
    64   1 H        0.926     0.054     2.267     2.355
    65   1 H        0.926     0.032     2.561     2.502
    66   1 H        0.925     0.041     2.431     2.438
    67   1 H        0.925     0.041     2.430     2.438
    68   1 H        0.926     0.037     2.487     2.466
    69   1 H        0.926     0.037     2.486     2.466
    70   1 H        0.925     0.041     2.429     2.437
    71   1 H        0.925     0.041     2.430     2.438
    72   1 H        0.926     0.032     2.560     2.502
    73   1 H        0.926     0.054     2.269     2.355

molecular dipole:
                 x           y           z       tot (Debye)
 q only:       -0.670      -0.540       0.116
   full:       -1.243      -0.766       0.157       3.734

 projected vibrational frequencies (cm⁻¹)
eigval :       -0.00    -0.00     0.00     0.00     0.00     0.00
eigval :        9.60    12.73    20.99    25.16    33.66    40.84
eigval :       43.99    54.71    57.70    59.90    72.39    83.74
eigval :       93.55    99.64   107.63   122.17   138.36   149.12
eigval :      157.14   196.30   199.53   212.38   234.77   239.04
eigval :      246.29   250.67   262.92   276.27   284.48   298.99
eigval :      315.87   334.67   338.09   343.45   366.33   370.95
eigval :      383.71   392.03   405.14   413.52   423.98   427.76
eigval :      431.42   441.48   444.64   451.53   469.09   503.41
eigval :      509.06   510.05   518.93   524.70   528.55   542.15
eigval :      563.02   577.39   580.45   581.80   593.46   605.93
eigval :      621.36   622.07   624.23   630.48   647.85   657.67
eigval :      661.57   662.04   682.36   684.15   690.57   705.80
eigval :      710.77   711.75   732.33   737.50   746.31   765.38
eigval :      768.68   778.86   779.14   781.33   799.62   800.13
eigval :      816.57   834.57   855.40   856.09   860.48   862.54
eigval :      867.44   872.53   879.45   883.72   887.97   890.25
eigval :      897.86   899.62   914.91   915.17   915.89   916.20
eigval :      917.45   920.42   923.40   924.77   924.84   930.10
eigval :      930.55   945.61   982.80   997.07  1023.93  1044.05
eigval :     1063.55  1075.62  1090.53  1090.67  1093.57  1099.42
eigval :     1100.64  1108.73  1117.34  1118.65  1123.01  1143.73
eigval :     1148.52  1170.45  1175.69  1180.82  1185.81  1197.17
eigval :     1202.15  1206.00  1207.04  1210.97  1225.10  1232.69
eigval :     1240.85  1244.43  1251.62  1262.15  1262.33  1262.59
eigval :     1270.86  1278.48  1281.35  1282.53  1282.87  1289.41
eigval :     1310.64  1315.10  1322.11  1335.30  1341.45  1351.24
eigval :     1358.63  1372.92  1373.61  1377.61  1409.97  1417.31
eigval :     1423.90  1428.59  1432.35  1443.91  1454.69  1469.56
eigval :     1473.22  1481.60  1482.26  1487.85  1499.69  1504.12
eigval :     1526.50  1545.13  1549.19  1551.16  1565.06  1567.53
eigval :     1577.47  1578.83  1580.28  1580.98  1590.20  1593.51
eigval :     1595.91  1603.13  3056.79  3056.93  3059.96  3060.36
eigval :     3079.80  3086.84  3087.03  3088.84  3089.44  3090.73
eigval :     3090.87  3091.12  3091.81  3093.51  3093.87  3098.82
eigval :     3099.25  3101.23  3105.47  3106.34  3110.56  3111.84
eigval :     3112.03  3113.23  3113.77

   temp. (K)  partition function   enthalpy   heat capacity  entropy
                                   cal/mol     cal/K/mol   cal/K/mol   J/K/mol
 298.15  VIB  0.145E+17            20999.651    134.442    130.054
         ROT  0.997E+08              888.752      2.981     39.581
         INT  0.145E+25            21888.404    137.423    169.635
         TR   0.148E+29             1481.254      4.968     45.115
         TOT                       23369.6577   142.3909   214.7502   898.5149

       T/K    H(0)-H(T)+PV         H(T)/Eh          T*S/Eh         G(T)/Eh
   ------------------------------------------------------------------------
    298.15    0.372419E-01    0.579927E+00    0.102035E+00    0.477892E+00
   ------------------------------------------------------------------------

         :::::::::::::::::::::::::::::::::::::::::::::::::::::
         ::                  THERMODYNAMIC                  ::
         :::::::::::::::::::::::::::::::::::::::::::::::::::::
         :: total free energy        -120.941767767223 Eh   ::
         ::.................................................::
         :: total energy             -121.419659583197 Eh   ::
         :: zero point energy           0.542684655030 Eh   ::
         :: G(RRHO) w/o ZPVE           -0.064792839055 Eh   ::
         :: G(RRHO) contrib.            0.477891815975 Eh   ::
         :::::::::::::::::::::::::::::::::::::::::::::::::::::

           -------------------------------------------------
          | TOTAL ENERGY             -121.419659583197 Eh   |
          | TOTAL ENTHALPY           -120.839733008030 Eh   |
          | TOTAL FREE ENERGY        -120.941767767223 Eh   |
          | GRADIENT NORM               0.000053633939 Eh/α |
          | HOMO-LUMO GAP               0.936133963574 eV   |
           -------------------------------------------------

 * finished run on 2025/08/22 at 12:54:15.397
