   * xtb version 6.7.1 (edcfbbe) compiled by 'albert@albert-system' on 2024-07-22

   ID    Z sym.   atoms
    1    6 C      1-6, 8-13, 15-27, 29-34, 36-41, 43-46, 48
    2    8 O      7
    3    7 N      14, 28, 35, 42, 47
    4    1 H      49-73

          program call               : xtb data2507/gas/pDPBPZ-PXZ/pDPBPZ-PXZ.xyz --gfn 2 --ohess vtight --parallel 40 --molden --ceasefiles --namespace data2507/gas/pDPBPZ-PXZ/pDPBPZ-PXZ_gas_S0_preOpt
          :  Hamiltonian                  GFN2-xTB          :
 * total energy  :  -121.3926617 Eh     change       -0.1533365E-08 Eh
 * total energy  :  -121.4100621 Eh     change       -0.1740032E-01 Eh
 * total energy  :  -121.4147526 Eh     change       -0.4690551E-02 Eh
 * total energy  :  -121.4159189 Eh     change       -0.1166345E-02 Eh
 * total energy  :  -121.4168668 Eh     change       -0.9478914E-03 Eh
 * total energy  :  -121.4172434 Eh     change       -0.3765283E-03 Eh
 * total energy  :  -121.4174872 Eh     change       -0.2437914E-03 Eh
 * total energy  :  -121.4176893 Eh     change       -0.2021919E-03 Eh
 * total energy  :  -121.4178613 Eh     change       -0.1719579E-03 Eh
 * total energy  :  -121.4179855 Eh     change       -0.1242144E-03 Eh
 * total energy  :  -121.4196592 Eh     change       -0.1860518E-06 Eh
 * total energy  :  -121.4196594 Eh     change       -0.1756075E-06 Eh
 * total energy  :  -121.4196596 Eh     change       -0.1958927E-06 Eh
 * total energy  :  -121.4196598 Eh     change       -0.2259189E-06 Eh
 * total energy  :  -121.4196601 Eh     change       -0.2383300E-06 Eh
 * total energy  :  -121.4196603 Eh     change       -0.2300709E-06 Eh
 * total energy  :  -121.4196605 Eh     change       -0.2161292E-06 Eh
 * total energy  :  -121.4196607 Eh     change       -0.2119776E-06 Eh
 * total energy  :  -121.4196607 Eh     change       -0.7646008E-09 Eh
   *** GEOMETRY OPTIMIZATION CONVERGED AFTER 122 ITERATIONS ***

 final structure:
================
73
 xtb: 6.7.1 (edcfbbe)
C           -7.71732608792408       -0.13328934104035       -3.18277978746099
C           -6.36968523369665       -0.41956598413772       -3.26039315071244
C           -5.53023094328689       -0.13978120799246       -2.19276445200903
C           -6.02755871932541        0.42162071913138       -1.02314260892691
C           -7.39112505117844        0.74127565710033       -0.96880127282369
C           -8.22418166286538        0.45793287225893       -2.03509448284517
O           -7.96158516245953        1.35787137740949        0.11639255379558
C           -7.14595276768764        1.64766811913211        1.18152667505776
C           -7.73561274093509        2.25596760010449        2.27391267948696
C           -6.98445199380644        2.54882888295228        3.40251544241617
C           -5.64708159174051        2.21017439646078        3.43529732436520
C           -5.05039671434099        1.60173298943535        2.34146600444134
C           -5.78047980223847        1.33336319373597        1.19038049742951
N           -5.21114730289201        0.71865516814196        0.07179818612923
C           -3.83434355368870        0.41889083265484        0.04433392632744
C           -2.89069316089942        1.44589324557250        0.13838659221983
C           -1.55415970873670        1.13551467424941        0.10805333808256
C           -1.12392972189941       -0.18908128976881       -0.02328710650350
C           -2.06412751034742       -1.23420458156845       -0.12675817118109
C           -3.41838343476417       -0.89632313504815       -0.08069445250898
C           -1.60998805307735       -2.61087128878688       -0.26966865041720
C           -2.49600010749464       -3.68665895100981       -0.39729898785714
C           -2.04057262584753       -4.98048131556154       -0.52995551372328
C           -0.67689475185836       -5.25024742405882       -0.54120691980114
C            0.21780640957885       -4.21236783281766       -0.42321767227033
C           -0.23033926194880       -2.89538685463066       -0.28932927630274
C            0.73804852114969       -1.82663782225915       -0.17738450463079
N            2.02307215856345       -2.12346324870976       -0.19848412394264
C            2.90160612288281       -1.11564413759445       -0.09934741104606
C            4.28407902747905       -1.38142136574918       -0.12532348555167
C            5.19824570891454       -0.36278483755041       -0.03124019638767
C            6.63416411634625       -0.67406053117840       -0.12661630230534
C            7.46873792177616        0.00463989216115       -1.01270062164519
C            8.80719080881459       -0.34567703366085       -1.06480583964196
N            9.34464522760118       -1.29338613368731       -0.31601883015015
C            8.55261792178264       -1.94582936893482        0.51731061550227
C            7.19929032111663       -1.68411917565538        0.64912842880206
C            4.75263304655754        0.98317136016719        0.11418587751710
C            5.71843421979551        2.08032918628707        0.29191953457994
C            5.62509847653653        3.24465485415132       -0.46764233406916
C            6.55148267061117        4.25212752061851       -0.25730084907795
N            7.52223268825055        4.17632441200887        0.63672824964754
C            7.60271961361151        3.07914275085033        1.36979367672798
C            6.73563125117009        2.00737950995047        1.24176504995009
C            3.40992383877536        1.26331047857678        0.13120911020393
C            2.45568959093804        0.23291393908876        0.02443330929272
N            1.14807034073934        0.52480555283163        0.04869522186496
C            0.29095273495233       -0.47480545791771       -0.05005309669197
H           -8.37542730777080       -0.35318533765687       -4.00840257657114
H           -5.95496570425654       -0.86016843496619       -4.15397933563195
H           -4.47584853007924       -0.35172977255996       -2.27688004998554
H           -9.26781546131282        0.71478937410881       -1.94871131666410
H           -8.78744887621290        2.48755119671080        2.22268723041503
H           -7.45218146594854        3.02669228207626        4.24867928006938
H           -5.05371662779945        2.41185284409847        4.31378934957989
H           -4.00839146040998        1.32666379204681        2.38825388787409
H           -3.22247865620782        2.46945375992209        0.22651428537332
H           -0.80111737930679        1.90456230679212        0.17538101594481
H           -4.17883059243531       -1.65890414433587       -0.13526181615390
H           -3.56079744050762       -3.51723608699538       -0.39630814981778
H           -2.75057507149776       -5.78871437823929       -0.62633020479109
H           -0.32575353397283       -6.26591589114498       -0.64419025666580
H            1.28273410275593       -4.38317571229237       -0.43219261048212
H            4.60369931386425       -2.40516243174333       -0.24895190336326
H            7.07824130379824        0.77918421547714       -1.65500613064471
H            9.48652890972674        0.15883613737231       -1.73924118019271
H            9.03038597313467       -2.71605439232134        1.10888287850449
H            6.59456440686482       -2.23654315788090        1.35250039204276
H            4.85604162390320        3.34768990081244       -1.21832579627047
H            6.51798146845496        5.16771704885839       -0.83352934716452
H            8.40537552627283        3.05937837688840        2.09521675419849
H            6.83872870580331        1.13879197495128        1.87412979886015
H            3.05494570014998        2.27552266429946        0.25335160813217

          :  Hamiltonian                  GFN2-xTB          :
         :: gradient norm              0.000020994918 Eh/a0 ::
         :: HOMO-LUMO gap              0.935936350500 eV    ::
         :: SCC energy              -123.570330394266 Eh    ::
         :: -> dispersion             -0.105915730237 Eh    ::
         :: repulsion energy           2.150669661083 Eh    ::

    * Orbital Energies and Occupations

         #    Occupation            Energy/Eh            Energy/eV
      -------------------------------------------------------------
         1        2.0000           -0.7292811             -19.8448
       ...           ...                  ...                  ...
       100        2.0000           -0.4239736             -11.5369
       101        2.0000           -0.4202760             -11.4363
       102        2.0000           -0.4178465             -11.3702
       103        2.0000           -0.4172213             -11.3532
       104        2.0000           -0.4143579             -11.2753
       105        2.0000           -0.4081215             -11.1056
       106        2.0000           -0.3992879             -10.8652
       107        2.0000           -0.3978452             -10.8259
       108        2.0000           -0.3911671             -10.6442
       109        2.0000           -0.3729784             -10.1493
       110        2.0000           -0.3721297             -10.1262
       111        2.0000           -0.3570372              -9.7155
       112        2.0000           -0.3448862              -9.3848 (HOMO)
       113                         -0.3104912              -8.4489 (LUMO)
       114                         -0.2802581              -7.6262
       115                         -0.2642624              -7.1909
       116                         -0.2606517              -7.0927
       117                         -0.2544129              -6.9229
       118                         -0.2448864              -6.6637
       119                         -0.2398043              -6.5254
       120                         -0.2397518              -6.5240
       121                         -0.2312342              -6.2922
       122                         -0.2305467              -6.2735
       123                         -0.2187650              -5.9529
       ...                                ...                  ...
       217                          0.7076483              19.2561
      -------------------------------------------------------------
                  HL-Gap            0.0343950 Eh            0.9359 eV

     #   Z          covCN         q      C6AA      α(0)
     1   6 C        2.919    -0.040    28.993     8.830
     2   6 C        2.919    -0.039    28.963     8.825
     3   6 C        2.924    -0.060    29.496     8.906
     4   6 C        2.922     0.042    27.053     8.530
     5   6 C        2.884     0.125    25.259     8.239
     6   6 C        2.920    -0.056    29.393     8.891
     7   8 O        1.709    -0.254    18.215     5.762
     8   6 C        2.884     0.125    25.261     8.240
     9   6 C        2.920    -0.056    29.392     8.890
    10   6 C        2.919    -0.040    28.988     8.829
    11   6 C        2.919    -0.038    28.956     8.824
    12   6 C        2.924    -0.060    29.480     8.904
    13   6 C        2.922     0.042    27.049     8.529
    14   7 N        2.752    -0.070    22.597     7.060
    15   6 C        2.919     0.068    26.486     8.439
    16   6 C        2.918    -0.041    29.021     8.834
    17   6 C        2.923    -0.028    28.689     8.784
    18   6 C        2.988    -0.005    28.145     8.703
    19   6 C        2.976     0.008    27.843     8.655
    20   6 C        2.926    -0.047    29.176     8.858
    21   6 C        2.976     0.007    27.852     8.657
    22   6 C        2.922    -0.033    28.818     8.803
    23   6 C        2.918    -0.026    28.647     8.777
    24   6 C        2.917    -0.027    28.678     8.782
    25   6 C        2.924    -0.026    28.654     8.778
    26   6 C        2.988    -0.000    28.030     8.685
    27   6 C        2.962     0.085    26.115     8.382
    28   7 N        1.848    -0.239    27.107     7.716
    29   6 C        2.966     0.080    26.204     8.396
    30   6 C        2.924    -0.045    29.107     8.847
    31   6 C        2.975     0.007    27.857     8.658
    32   6 C        2.988     0.030    27.325     8.575
    33   6 C        2.918    -0.041    29.017     8.833
    34   6 C        2.914     0.060    26.651     8.465
    35   7 N        1.836    -0.219    26.604     7.644
    36   6 C        2.914     0.060    26.658     8.466
    37   6 C        2.919    -0.044    29.098     8.846
    38   6 C        2.975     0.007    27.851     8.657
    39   6 C        2.988     0.030    27.325     8.575
    40   6 C        2.919    -0.044    29.097     8.846
    41   6 C        2.914     0.060    26.658     8.466
    42   7 N        1.836    -0.218    26.603     7.643
    43   6 C        2.914     0.060    26.651     8.465
    44   6 C        2.918    -0.041    29.016     8.833
    45   6 C        2.924    -0.045    29.114     8.849
    46   6 C        2.966     0.081    26.192     8.395
    47   7 N        1.848    -0.241    27.157     7.723
    48   6 C        2.963     0.084    26.122     8.383
    49   1 H        0.926     0.038     2.470     2.458
    50   1 H        0.926     0.036     2.505     2.475
    51   1 H        0.926     0.035     2.522     2.483
    52   1 H        0.926     0.051     2.310     2.377
    53   1 H        0.926     0.051     2.310     2.377
    54   1 H        0.926     0.039     2.468     2.457
    55   1 H        0.926     0.036     2.497     2.471
    56   1 H        0.926     0.035     2.512     2.479
    57   1 H        0.926     0.045     2.379     2.412
    58   1 H        0.926     0.065     2.143     2.289
    59   1 H        0.926     0.045     2.379     2.412
    60   1 H        0.926     0.038     2.476     2.461
    61   1 H        0.926     0.037     2.486     2.466
    62   1 H        0.926     0.039     2.468     2.457
    63   1 H        0.926     0.061     2.191     2.315
    64   1 H        0.926     0.054     2.267     2.355
    65   1 H        0.926     0.032     2.561     2.502
    66   1 H        0.925     0.041     2.431     2.438
    67   1 H        0.925     0.041     2.430     2.438
    68   1 H        0.926     0.037     2.487     2.466
    69   1 H        0.926     0.037     2.487     2.466
    70   1 H        0.925     0.041     2.429     2.437
    71   1 H        0.925     0.041     2.430     2.438
    72   1 H        0.926     0.032     2.560     2.502
    73   1 H        0.926     0.054     2.269     2.355

molecular dipole:
                 x           y           z       tot (Debye)
 q only:       -0.669      -0.550      -0.044
   full:       -1.242      -0.778      -0.073       3.729

 projected vibrational frequencies (cm⁻¹)
eigval :       -0.00    -0.00    -0.00     0.00     0.00     0.00
eigval :        9.72    12.73    21.09    25.09    33.63    40.87
eigval :       43.91    54.75    57.55    59.84    72.19    83.62
eigval :       93.55    99.52   107.58   122.14   138.38   149.37
eigval :      156.78   196.30   199.47   212.40   234.62   239.14
eigval :      246.18   250.71   262.99   276.21   284.41   299.04
eigval :      315.68   334.63   337.92   343.40   366.33   370.91
eigval :      383.69   391.93   405.10   413.46   423.87   427.79
eigval :      431.31   441.55   444.69   451.59   469.13   503.34
eigval :      509.11   510.05   518.92   524.68   528.55   542.12
eigval :      563.01   577.39   580.45   581.79   593.45   605.99
eigval :      621.35   622.04   624.22   630.49   647.84   657.69
eigval :      661.60   662.03   682.39   684.14   690.60   705.83
eigval :      710.74   711.71   732.39   737.54   746.29   765.35
eigval :      768.70   778.88   779.16   781.32   799.56   800.06
eigval :      816.55   834.54   855.41   856.09   860.45   862.53
eigval :      867.44   872.44   879.47   883.61   887.90   890.21
eigval :      897.86   899.58   914.92   915.15   915.88   916.15
eigval :      917.42   920.41   923.40   924.77   924.83   930.11
eigval :      930.56   945.60   982.78   997.03  1023.94  1044.05
eigval :     1063.53  1075.61  1090.53  1090.65  1093.56  1099.41
eigval :     1100.63  1108.73  1117.31  1118.64  1122.97  1143.68
eigval :     1148.51  1170.47  1175.68  1180.82  1185.83  1197.13
eigval :     1202.18  1205.99  1207.02  1211.03  1225.07  1232.71
eigval :     1240.88  1244.44  1251.58  1262.17  1262.34  1262.58
eigval :     1270.96  1278.48  1281.30  1282.48  1282.87  1289.34
eigval :     1310.57  1315.09  1322.09  1335.27  1341.45  1351.24
eigval :     1358.56  1372.92  1373.59  1377.54  1409.95  1417.31
eigval :     1423.87  1428.56  1432.31  1443.92  1454.65  1469.55
eigval :     1473.21  1481.64  1482.24  1487.85  1499.65  1504.09
eigval :     1526.50  1545.07  1549.21  1551.18  1565.08  1567.50
eigval :     1577.48  1578.81  1580.29  1580.97  1590.19  1593.52
eigval :     1595.92  1603.13  3056.83  3056.97  3059.92  3060.33
eigval :     3079.82  3086.83  3087.04  3088.92  3089.47  3090.73
eigval :     3090.78  3091.02  3091.81  3093.52  3093.88  3098.82
eigval :     3099.29  3101.29  3105.50  3106.37  3110.57  3111.91
eigval :     3112.00  3113.22  3113.78

   temp. (K)  partition function   enthalpy   heat capacity  entropy
                                   cal/mol     cal/K/mol   cal/K/mol   J/K/mol
 298.15  VIB  0.145E+17            21001.255    134.438    130.057
         ROT  0.997E+08              888.752      2.981     39.581
         INT  0.144E+25            21890.008    137.419    169.639
         TR   0.148E+29             1481.254      4.968     45.115
         TOT                       23371.2616   142.3874   214.7539   898.5304

       T/K    H(0)-H(T)+PV         H(T)/Eh          T*S/Eh         G(T)/Eh
   ------------------------------------------------------------------------
    298.15    0.372445E-01    0.579923E+00    0.102037E+00    0.477886E+00
   ------------------------------------------------------------------------

         :::::::::::::::::::::::::::::::::::::::::::::::::::::
         ::                  THERMODYNAMIC                  ::
         :::::::::::::::::::::::::::::::::::::::::::::::::::::
         :: total free energy        -120.941774441974 Eh   ::
         ::.................................................::
         :: total energy             -121.419660733183 Eh   ::
         :: zero point energy           0.542678335528 Eh   ::
         :: G(RRHO) w/o ZPVE           -0.064792044319 Eh   ::
         :: G(RRHO) contrib.            0.477886291209 Eh   ::
         :::::::::::::::::::::::::::::::::::::::::::::::::::::

           -------------------------------------------------
          | TOTAL ENERGY             -121.419660733183 Eh   |
          | TOTAL ENTHALPY           -120.839737921533 Eh   |
          | TOTAL FREE ENERGY        -120.941774441974 Eh   |
          | GRADIENT NORM               0.000020994866 Eh/α |
          | HOMO-LUMO GAP               0.935936434607 eV   |
           -------------------------------------------------

 * finished run on 2025/08/22 at 12:51:04.708
