   * xtb version 6.7.1 (edcfbbe) compiled by 'albert@albert-system' on 2024-07-22

   ID    Z sym.   atoms
    1    6 C      1-6, 8-13, 15-27, 29-34, 36-41, 43-46, 48
    2    8 O      7
    3    7 N      14, 28, 35, 42, 47
    4    1 H      49-73

          program call               : xtb data2507/gas/pDPBPZ-PXZ/pDPBPZ-PXZ_gas_T1_crest.xyz --gfn 2 --spinpol --tblite --uhf 2 --ohess vtight --parallel 40 --molden --ceasefiles --namespace data2507/gas/pDPBPZ-PXZ/pDPBPZ-PXZ_gas_T1_finalOpt
 * total energy  :  -121.3793409 Eh     change       -0.1077724E-07 Eh
 * total energy  :  -121.3793636 Eh     change       -0.2265875E-04 Eh
 * total energy  :  -121.3793685 Eh     change       -0.4878690E-05 Eh
 * total energy  :  -121.3793696 Eh     change       -0.1112090E-05 Eh
 * total energy  :  -121.3793705 Eh     change       -0.9014628E-06 Eh
 * total energy  :  -121.3793712 Eh     change       -0.7626935E-06 Eh
 * total energy  :  -121.3793720 Eh     change       -0.7720316E-06 Eh
 * total energy  :  -121.3793726 Eh     change       -0.6054208E-06 Eh
 * total energy  :  -121.3793730 Eh     change       -0.4207968E-06 Eh
 * total energy  :  -121.3793735 Eh     change       -0.4308907E-06 Eh
 * total energy  :  -121.3793744 Eh     change       -0.1854010E-06 Eh
 * total energy  :  -121.3793747 Eh     change       -0.2272636E-06 Eh
 * total energy  :  -121.3793749 Eh     change       -0.2204881E-06 Eh
 * total energy  :  -121.3793751 Eh     change       -0.2431627E-06 Eh
 * total energy  :  -121.3793753 Eh     change       -0.1635956E-06 Eh
 * total energy  :  -121.3793754 Eh     change       -0.1043009E-06 Eh
 * total energy  :  -121.3793756 Eh     change       -0.2151007E-06 Eh
 * total energy  :  -121.3793758 Eh     change       -0.1648481E-06 Eh
 * total energy  :  -121.3793758 Eh     change       -0.1917651E-07 Eh
   *** GEOMETRY OPTIMIZATION CONVERGED AFTER 22 ITERATIONS ***

 final structure:
================
73
 xtb: 6.7.1 (edcfbbe)
C           -7.67542705817514       -0.66343977199792       -3.19573754631359
C           -6.33097048811503       -0.98452419366118       -3.18832393564482
C           -5.50969895244633       -0.54364690121052       -2.16409970379399
C           -6.02339083932468        0.22244879415849       -1.12283886634265
C           -7.38517454211256        0.56228288180364       -1.15149583133245
C           -8.19969106427859        0.11693696937284       -2.17716915869845
O           -7.96419815332611        1.34794623983449       -0.19005229149939
C           -7.16711962344001        1.79617339706620        0.83002411119851
C           -7.76283939263642        2.58242130278522        1.79977859380941
C           -7.01880184154313        3.05114638861568        2.87137991920177
C           -5.68116869795146        2.71792802490720        2.97388138756464
C           -5.07767166235768        1.93205941444198        2.00633755462559
C           -5.80375096619144        1.47292274445214        0.91231798198959
N           -5.22964138335681        0.68278027180839       -0.07748318527981
C           -3.84733228544733        0.37248847761490       -0.03126373315109
C           -2.90086734419462        1.39058983273751       -0.21327102458803
C           -1.56930088176182        1.08042096739955       -0.17033001909206
C           -1.13775931971281       -0.24030925643010        0.04383706506345
C           -2.08723201022459       -1.27493893673252        0.22572441870036
C           -3.44349523995822       -0.92721969036356        0.18785329385235
C           -1.63254130686356       -2.62696780015327        0.44608090459095
C           -2.50853450540934       -3.70922803306061        0.62000250907536
C           -2.04187308203733       -4.98404975880966        0.83106287628614
C           -0.67013447578965       -5.23510656322649        0.87770477693026
C            0.21382123119794       -4.20162691647544        0.70783232144727
C           -0.24418438345465       -2.89218404099791        0.48956531075008
C            0.71215303145990       -1.84419994340226        0.30827938678635
N            2.01357567209334       -2.09025528741297        0.34880842173253
C            2.92104652942496       -1.12975991554403        0.17935331637767
C            4.28937707734341       -1.37304056194843        0.21012430557100
C            5.22057164245191       -0.35733461057429        0.02691004656714
C            6.64866187419761       -0.70244949727121        0.00993927321503
C            7.49494925145990       -0.26186228424087       -1.00747697793410
C            8.82764870585921       -0.63251374209911       -0.97280970185718
N            9.35331880817147       -1.38964132162142       -0.02410259152666
C            8.55084051058067       -1.81865143284450        0.93547749140147
C            7.20252284616169       -1.51324623826923        1.00001585388441
C            4.77642981221282        0.95887205561186       -0.18342229024453
C            5.71789120032278        2.08026427301407       -0.30855795384941
C            5.57797362818367        3.02452435930574       -1.32492744051048
C            6.48394739020139        4.06845619135054       -1.39512465326428
N            7.48088009122752        4.23092038453055       -0.54162722154690
C            7.60740268832759        3.34485634819358        0.43228753446545
C            6.76298095701740        2.26111672373543        0.59716790114559
C            3.41295929034761        1.22336954601001       -0.22814919060900
C            2.46345743038174        0.22135112768405       -0.05628421587097
N            1.15368780826122        0.45409830629464       -0.09761606196135
C            0.26184465130480       -0.51467102758614        0.07785888389628
H           -8.31720040647062       -1.00789727093643       -3.99089784782468
H           -5.90881904339052       -1.57976210605062       -3.98302199764841
H           -4.45952839095070       -0.78922141738314       -2.17377193458499
H           -9.24076650914596        0.39673185735727       -2.16112811016494
H           -8.81121720854709        2.81273039748611        1.69861149461491
H           -7.48990522077363        3.66526413107879        3.62220506536915
H           -5.09623999429633        3.06524566010198        3.81128587421691
H           -4.03646659687352        1.66692049891035        2.10039020223817
H           -3.23426211198678        2.40240482465653       -0.38787155976742
H           -0.81543752779601        1.84018315785569       -0.30751598559862
H           -4.20584844390223       -1.67665465574813        0.33125245902115
H           -3.57485639635415       -3.55085468679682        0.58776017930863
H           -2.74092504855029       -5.79690657488786        0.96138690422888
H           -0.31051317377424       -6.23921794314290        1.04521115453444
H            1.28025668676673       -4.36519989458419        0.73554637093188
H            4.61992715721364       -2.39054451655021        0.35293278842577
H            7.11541782104709        0.34684340588347       -1.81393651049165
H            9.51355968070058       -0.30788043840481       -1.74449044506733
H            9.01724936878111       -2.43795088937808        1.69109181815069
H            6.59251317036035       -1.87759976218278        1.81298774999835
H            4.78861057179606        2.92873141482816       -2.05537025965990
H            6.41201947373461        4.81534102410473       -2.17553453319931
H            8.42975750504005        3.51576762468733        1.11482367728033
H            6.90385862060545        1.57548636704792        1.41874806296813
H            3.06252186528484        2.23453748405276       -0.36890286009805

 projected vibrational frequencies (cm⁻¹)
eigval :       -0.00    -0.00    -0.00    -0.00     0.00     0.00
eigval :       10.56    12.39    21.60    24.02    34.13    42.35
eigval :       45.60    55.71    59.08    62.99    76.58    84.56
eigval :       90.76    98.48   111.42   122.27   137.34   148.28
eigval :      154.74   189.09   197.57   211.23   234.10   239.76
eigval :      244.39   247.92   257.11   274.30   284.96   298.23
eigval :      313.76   328.13   336.31   341.33   363.86   372.51
eigval :      379.31   393.06   405.62   412.66   419.21   427.19
eigval :      429.80   435.51   446.95   457.55   470.09   505.65
eigval :      506.75   507.96   515.42   523.05   527.57   537.38
eigval :      560.69   574.98   575.84   581.54   588.89   603.82
eigval :      612.62   618.27   619.97   625.11   630.32   652.55
eigval :      655.60   663.57   665.53   679.98   681.35   682.20
eigval :      702.84   708.54   709.46   723.23   724.53   730.83
eigval :      765.04   772.62   778.15   778.74   797.95   798.37
eigval :      814.89   821.53   825.03   832.24   855.77   857.74
eigval :      861.25   865.85   867.36   876.39   887.59   888.29
eigval :      898.95   900.31   909.71   912.41   914.67   915.12
eigval :      916.05   916.67   917.61   918.35   923.33   924.17
eigval :      924.33   940.85   966.81   997.82  1022.23  1034.28
eigval :     1062.32  1081.64  1087.60  1087.97  1090.06  1099.44
eigval :     1100.18  1111.30  1118.25  1119.20  1122.54  1144.13
eigval :     1147.46  1167.97  1175.14  1179.56  1184.62  1198.50
eigval :     1204.96  1206.15  1207.01  1209.19  1225.61  1237.42
eigval :     1239.07  1241.71  1244.99  1250.52  1257.91  1259.19
eigval :     1263.79  1265.15  1279.55  1282.23  1285.30  1287.51
eigval :     1301.09  1311.19  1313.81  1328.58  1332.24  1343.08
eigval :     1349.12  1360.19  1371.30  1374.34  1382.61  1395.16
eigval :     1408.49  1414.32  1419.62  1423.31  1443.08  1461.60
eigval :     1466.55  1467.26  1471.67  1478.23  1483.94  1492.47
eigval :     1510.74  1520.80  1527.04  1546.82  1547.65  1548.00
eigval :     1563.03  1571.75  1574.45  1577.67  1577.93  1583.84
eigval :     1590.74  1594.92  3053.18  3053.35  3057.00  3057.52
eigval :     3079.08  3085.22  3085.42  3087.89  3088.84  3090.57
eigval :     3090.72  3091.78  3092.53  3093.53  3093.80  3096.85
eigval :     3100.49  3102.02  3102.66  3102.88  3107.61  3109.41
eigval :     3109.87  3115.27  3115.70

   temp. (K)  partition function   enthalpy   heat capacity  entropy
                                   cal/mol     cal/K/mol   cal/K/mol   J/K/mol
 298.15  VIB  0.133E+17            21123.461    135.603    130.645
         ROT  0.100E+09              888.752      2.981     39.593
         INT  0.133E+25            22012.214    138.584    170.238
         TR   0.148E+29             1481.254      4.968     45.115
         TOT                       23493.4676   143.5519   215.3535   901.0391

       T/K    H(0)-H(T)+PV         H(T)/Eh          T*S/Eh         G(T)/Eh
   ------------------------------------------------------------------------
    298.15    0.374392E-01    0.577856E+00    0.102321E+00    0.475535E+00
   ------------------------------------------------------------------------

         :::::::::::::::::::::::::::::::::::::::::::::::::::::
         ::                  THERMODYNAMIC                  ::
         :::::::::::::::::::::::::::::::::::::::::::::::::::::
         :: total free energy        -120.903840770081 Eh   ::
         ::.................................................::
         :: total energy             -121.379375787513 Eh   ::
         :: zero point energy           0.540417201063 Eh   ::
         :: G(RRHO) w/o ZPVE           -0.064882183631 Eh   ::
         :: G(RRHO) contrib.            0.475535017432 Eh   ::
         :::::::::::::::::::::::::::::::::::::::::::::::::::::

           -------------------------------------------------
          | TOTAL ENERGY             -121.379375787513 Eh   |
          | TOTAL ENTHALPY           -120.801519362798 Eh   |
          | TOTAL FREE ENERGY        -120.903840770081 Eh   |
          | GRADIENT NORM               0.000040140285 Eh/α |
           -------------------------------------------------

 * finished run on 2025/08/22 at 12:59:49.071
