   * xtb version 6.7.1 (edcfbbe) compiled by 'albert@albert-system' on 2024-07-22

   ID    Z sym.   atoms
    1    6 C      1, 3-6, 8-11, 13-24, 26-29, 31-37, 39-44, 46-57
    2    8 O      2, 12, 30, 38
    3    7 N      7, 25, 45
    4    1 H      58-98

          program call               : xtb data2507/gas/DPNC/DPNC.xyz --gfn 2 --ohess vtight --parallel 40 --molden --ceasefiles --namespace data2507/gas/DPNC/DPNC_gas_S0_preOpt
          :  Hamiltonian                  GFN2-xTB          :
 * total energy  :  -153.0487452 Eh     change       -0.2432785E-08 Eh
 * total energy  :  -153.0670501 Eh     change       -0.1830493E-01 Eh
 * total energy  :  -153.0744125 Eh     change       -0.7362337E-02 Eh
 * total energy  :  -153.0768721 Eh     change       -0.2459581E-02 Eh
 * total energy  :  -153.0781819 Eh     change       -0.1309828E-02 Eh
 * total energy  :  -153.0786015 Eh     change       -0.4195944E-03 Eh
 * total energy  :  -153.0787625 Eh     change       -0.1609713E-03 Eh
 * total energy  :  -153.0788804 Eh     change       -0.1178923E-03 Eh
 * total energy  :  -153.0789728 Eh     change       -0.9248066E-04 Eh
 * total energy  :  -153.0790557 Eh     change       -0.8289902E-04 Eh
 * total energy  :  -153.0793000 Eh     change       -0.3582676E-05 Eh
 * total energy  :  -153.0793026 Eh     change       -0.2581116E-05 Eh
 * total energy  :  -153.0793046 Eh     change       -0.2016721E-05 Eh
 * total energy  :  -153.0793063 Eh     change       -0.1711008E-05 Eh
 * total energy  :  -153.0793078 Eh     change       -0.1545722E-05 Eh
 * total energy  :  -153.0793091 Eh     change       -0.1251975E-05 Eh
 * total energy  :  -153.0793103 Eh     change       -0.1212631E-05 Eh
 * total energy  :  -153.0793112 Eh     change       -0.8637690E-06 Eh
 * total energy  :  -153.0793112 Eh     change       -0.7576432E-08 Eh
   *** GEOMETRY OPTIMIZATION CONVERGED AFTER 44 ITERATIONS ***

 final structure:
================
98
 xtb: 6.7.1 (edcfbbe)
C          -10.21431252440687        0.93996600682552        1.07314675621798
O           -9.00185926811455        1.15394143496352        1.74998127242739
C           -7.83708794935467        0.82418215881905        1.11502634530237
C           -6.66345853425435        1.06007728642321        1.83232978613981
C           -5.43476953667386        0.75770950531976        1.29142396127967
C           -5.33687430215238        0.21829973410441        0.00654185546427
N           -4.08829177373271       -0.08169519370025       -0.54669269539970
C           -3.92820641928374       -1.20768988546994       -1.36051890565362
C           -3.06333675981695       -1.17767031391058       -2.45706987192475
C           -2.90649431758364       -2.28712261730910       -3.25593313430502
C           -3.61527827773750       -3.46080193347051       -2.99569344358525
O           -3.39133638521372       -4.49781464013080       -3.85796786457402
C           -4.07630331797098       -5.70515251691113       -3.64108115075534
C           -4.47935814506748       -3.49625397326081       -1.90807216760874
C           -4.62546195685718       -2.38348450728731       -1.09916447636926
C           -2.99066333378887        0.74955618910004       -0.28002457866873
C           -3.17062442261025        2.14084952330138       -0.23772811064462
C           -2.12453420494837        2.99965512355233        0.02351415225144
C           -0.86823646880359        2.45218734133036        0.24159443051316
C           -0.66627364537953        1.05452346295681        0.17984702577488
C           -1.73041461955255        0.20243681498653       -0.07138518415790
C            0.73219618932132        0.83525093257988        0.42226022670309
C            1.51375081346442       -0.30754944027341        0.49721828275136
C            2.86677834052639       -0.17499901123447        0.78412742133734
N            3.68761842769862       -1.30872742847639        0.87435818910436
C            4.98536365057090       -1.26703026982138        0.35573342517521
C            6.03439174679175       -1.93408435331989        0.99273671743759
C            7.30855689410855       -1.89102324134298        0.47473150534262
C            7.58287355912280       -1.17090229212880       -0.68898520163688
O            8.88251082906729       -1.19230584145772       -1.11244468929928
C            9.21492191967145       -0.48498249334341       -2.28001154942578
C            6.54566508451463       -0.49710243389048       -1.32202654323356
C            5.26337854282527       -0.55252418348554       -0.80605780874447
C            3.20250933169986       -2.47569885146677        1.47304084402334
C            2.33836426115886       -2.40860516177634        2.56849694923319
C            1.86236241656496       -3.55817109472227        3.15632454551994
C            2.24119909953254       -4.81396188609658        2.67971264638405
O            1.71850291004735       -5.88820289952905        3.34431916450808
C            2.07207574161067       -7.17690438514630        2.91054784177979
C            3.10213420218148       -4.88743910026235        1.59157101532578
C            3.56851756809415       -3.73012272629604        0.99408209624628
C            3.41992637992912        1.09703203177129        0.99893475586781
C            2.65940068545043        2.24304783951853        0.91265314485645
C            1.31124948169980        2.11113096315566        0.60867890304645
N            0.33611951735467        3.08098933699889        0.48359729657831
C            0.51107259144539        4.46062619087973        0.67312077163085
C           -0.22344634588563        5.10845801414718        1.63794164880072
C           -0.05392762949319        6.47915051799761        1.86499860935240
C            0.85842411925140        7.19148196740773        1.13825381195265
C            1.61730151988261        6.56680170699011        0.12689697320312
C            2.54766442756299        7.28835966894910       -0.65071559447997
C            3.24520743317353        6.67923864651775       -1.65505418260237
C            3.03115345162184        5.32206597459486       -1.93801100669417
C            2.14689033678135        4.58992536313957       -1.19603237522838
C            1.43372277332359        5.18244749282686       -0.13258369933016
C           -6.50959692299639       -0.00776049684046       -0.70811175244598
C           -7.74674107617854        0.28361060295019       -0.16201537861918
H          -10.36330207234528       -0.11913241551298        0.83682082332205
H          -10.27138985079243        1.52832988184941        0.15106591614563
H          -10.99612403460866        1.26805949348843        1.75660653893133
H           -6.74428141209276        1.47585959333378        2.82416844344113
H           -4.53558253013036        0.93603416125896        1.86184287073797
H           -2.51539994220145       -0.27379151433275       -2.67721403806430
H           -2.24032378544906       -2.26819441912658       -4.10387073206691
H           -3.75009174465476       -6.37656055619378       -4.43409808138544
H           -5.16144985574997       -5.57101943042769       -3.70623114978720
H           -3.82323258737254       -6.14415269211222       -2.67008461515991
H           -5.04066117046667       -4.38616469916710       -1.67016847015071
H           -5.29210882263021       -2.42805545268370       -0.25063588071484
H           -4.15710905203355        2.54041445704300       -0.41967234361593
H           -2.27908778111605        4.06795951250451        0.04098939886869
H           -1.58438584741670       -0.86615543001511       -0.10995503967187
H            1.07978601701876       -1.28356769356608        0.34310108803195
H            5.83964332843818       -2.48561518215646        1.90027196932401
H            8.12170074099303       -2.40462606472453        0.96273714933207
H           10.28335296204186       -0.63848622194802       -2.42440057538174
H            8.67453134184317       -0.86855817492699       -3.15210655614986
H            9.01579478252527        0.58675800592520       -2.17304670617999
H            6.71670112893252        0.06910037876183       -2.22411359436248
H            4.46412760378103       -0.03219218211722       -1.31287779720930
H            2.04458694243204       -1.44457722170716        2.95582161128082
H            1.19567671817110       -3.51098624302600        4.00273315628444
H            1.55394023084794       -7.86540817987645        3.57656329504834
H            3.15158688688733       -7.34612958972227        2.98602864559739
H            1.74800688807121       -7.35932660818267        1.88031120439302
H            3.41416027535709       -5.83868187612869        1.18995707612694
H            4.22908455564941       -3.80211675707171        0.14273687368002
H            4.46938340648117        1.16975555911791        1.24226991759804
H            3.10131986096920        3.21229260407189        1.08731733146279
H           -0.92560360671277        4.54628590329792        2.23592862008706
H           -0.64076144510126        6.96168900507246        2.63238439182259
H            1.00666242387798        8.24565448786688        1.32154187948224
H            2.69322083255912        8.33776121597339       -0.43757064188997
H            3.95575212697514        7.23959561115912       -2.24482997916201
H            3.56937663190754        4.85805892984245       -2.75134561824010
H            1.98047618249155        3.54872883621884       -1.42743098404792
H           -6.45250512457065       -0.41734662314055       -1.70585451986491
H           -8.63038731097708        0.09128393139554       -0.75005288405111

          :  Hamiltonian                  GFN2-xTB          :
         :: gradient norm              0.000063212009 Eh/a0 ::
         :: HOMO-LUMO gap              1.685960144779 eV    ::
         :: SCC energy              -155.623173924497 Eh    ::
         :: -> dispersion             -0.130871408263 Eh    ::
         :: repulsion energy           2.543862743986 Eh    ::

    * Orbital Energies and Occupations

         #    Occupation            Energy/Eh            Energy/eV
      -------------------------------------------------------------
         1        2.0000           -0.7094284             -19.3045
       ...           ...                  ...                  ...
       128        2.0000           -0.4027404             -10.9591
       129        2.0000           -0.4015024             -10.9254
       130        2.0000           -0.4010777             -10.9139
       131        2.0000           -0.3995946             -10.8735
       132        2.0000           -0.3986781             -10.8486
       133        2.0000           -0.3916228             -10.6566
       134        2.0000           -0.3846296             -10.4663
       135        2.0000           -0.3772351             -10.2651
       136        2.0000           -0.3762695             -10.2388
       137        2.0000           -0.3745492             -10.1920
       138        2.0000           -0.3645508              -9.9199
       139        2.0000           -0.3339251              -9.0866
       140        2.0000           -0.3273698              -8.9082 (HOMO)
       141                         -0.2654119              -7.2222 (LUMO)
       142                         -0.2412426              -6.5645
       143                         -0.2339472              -6.3660
       144                         -0.2214876              -6.0270
       145                         -0.2197934              -5.9809
       146                         -0.2191176              -5.9625
       147                         -0.2162282              -5.8839
       148                         -0.2157639              -5.8712
       149                         -0.2145026              -5.8369
       150                         -0.2135673              -5.8115
       151                         -0.2064590              -5.6180
       ...                                ...                  ...
       269                          0.7496623              20.3993
      -------------------------------------------------------------
                  HL-Gap            0.0619579 Eh            1.6860 eV

     #   Z          covCN         q      C6AA      α(0)
     1   6 C        3.644     0.040    20.233     6.466
     2   8 O        1.705    -0.275    18.564     5.817
     3   6 C        2.865     0.134    25.073     8.208
     4   6 C        2.920    -0.055    29.362     8.886
     5   6 C        2.922    -0.048    29.202     8.862
     6   6 C        2.922     0.055    26.777     8.486
     7   7 N        2.752    -0.075    22.695     7.075
     8   6 C        2.921     0.055    26.776     8.486
     9   6 C        2.922    -0.048    29.201     8.862
    10   6 C        2.920    -0.055    29.358     8.885
    11   6 C        2.865     0.134    25.073     8.208
    12   8 O        1.705    -0.275    18.568     5.818
    13   6 C        3.644     0.040    20.232     6.465
    14   6 C        2.917    -0.067    29.663     8.931
    15   6 C        2.924    -0.051    29.277     8.873
    16   6 C        2.924     0.054    26.792     8.488
    17   6 C        2.927    -0.051    29.255     8.870
    18   6 C        2.909    -0.051    29.261     8.870
    19   6 C        3.079     0.039    27.034     8.524
    20   6 C        3.067    -0.017    28.368     8.734
    21   6 C        2.915    -0.053    29.307     8.877
    22   6 C        3.067    -0.018    28.378     8.735
    23   6 C        2.915    -0.053    29.313     8.878
    24   6 C        2.924     0.054    26.792     8.488
    25   7 N        2.752    -0.075    22.695     7.075
    26   6 C        2.922     0.055    26.776     8.486
    27   6 C        2.922    -0.049    29.213     8.864
    28   6 C        2.920    -0.055    29.364     8.886
    29   6 C        2.865     0.134    25.075     8.208
    30   8 O        1.705    -0.275    18.567     5.818
    31   6 C        3.644     0.040    20.233     6.465
    32   6 C        2.917    -0.067    29.664     8.931
    33   6 C        2.924    -0.051    29.269     8.872
    34   6 C        2.921     0.054    26.779     8.486
    35   6 C        2.922    -0.048    29.202     8.862
    36   6 C        2.920    -0.055    29.357     8.885
    37   6 C        2.865     0.134    25.071     8.208
    38   8 O        1.705    -0.275    18.566     5.818
    39   6 C        3.644     0.040    20.233     6.465
    40   6 C        2.917    -0.067    29.661     8.931
    41   6 C        2.924    -0.052    29.280     8.874
    42   6 C        2.927    -0.051    29.256     8.870
    43   6 C        2.909    -0.050    29.234     8.866
    44   6 C        3.078     0.040    27.010     8.520
    45   7 N        2.802    -0.043    22.072     6.978
    46   6 C        2.909     0.057    26.721     8.476
    47   6 C        2.921    -0.044    29.104     8.847
    48   6 C        2.915    -0.031    28.761     8.794
    49   6 C        2.919    -0.040    28.993     8.830
    50   6 C        2.987     0.013    27.709     8.635
    51   6 C        2.920    -0.035    28.860     8.810
    52   6 C        2.915    -0.029    28.719     8.788
    53   6 C        2.917    -0.030    28.739     8.791
    54   6 C        2.917    -0.031    28.784     8.798
    55   6 C        2.987     0.003    27.961     8.674
    56   6 C        2.924    -0.052    29.281     8.874
    57   6 C        2.917    -0.067    29.666     8.932
    58   1 H        0.924     0.037     2.485     2.465
    59   1 H        0.924     0.037     2.484     2.465
    60   1 H        0.925     0.059     2.211     2.325
    61   1 H        0.926     0.047     2.352     2.398
    62   1 H        0.926     0.038     2.474     2.460
    63   1 H        0.926     0.038     2.477     2.461
    64   1 H        0.926     0.047     2.354     2.399
    65   1 H        0.925     0.059     2.214     2.327
    66   1 H        0.924     0.037     2.488     2.467
    67   1 H        0.924     0.038     2.482     2.464
    68   1 H        0.926     0.034     2.534     2.489
    69   1 H        0.926     0.035     2.520     2.482
    70   1 H        0.926     0.033     2.541     2.493
    71   1 H        0.926     0.029     2.596     2.519
    72   1 H        0.926     0.035     2.515     2.480
    73   1 H        0.926     0.035     2.514     2.479
    74   1 H        0.926     0.038     2.473     2.459
    75   1 H        0.926     0.047     2.355     2.400
    76   1 H        0.925     0.059     2.212     2.326
    77   1 H        0.924     0.037     2.484     2.465
    78   1 H        0.924     0.037     2.485     2.465
    79   1 H        0.926     0.034     2.536     2.490
    80   1 H        0.926     0.034     2.529     2.487
    81   1 H        0.926     0.038     2.476     2.461
    82   1 H        0.926     0.048     2.351     2.398
    83   1 H        0.925     0.059     2.214     2.327
    84   1 H        0.924     0.038     2.482     2.464
    85   1 H        0.924     0.037     2.486     2.465
    86   1 H        0.926     0.034     2.531     2.488
    87   1 H        0.926     0.035     2.518     2.482
    88   1 H        0.926     0.033     2.544     2.494
    89   1 H        0.926     0.029     2.605     2.524
    90   1 H        0.926     0.039     2.458     2.451
    91   1 H        0.926     0.035     2.512     2.478
    92   1 H        0.926     0.035     2.518     2.481
    93   1 H        0.926     0.033     2.541     2.493
    94   1 H        0.926     0.032     2.560     2.502
    95   1 H        0.926     0.032     2.565     2.504
    96   1 H        0.926     0.037     2.488     2.467
    97   1 H        0.926     0.034     2.525     2.485
    98   1 H        0.926     0.034     2.536     2.490

molecular dipole:
                 x           y           z       tot (Debye)
 q only:       -0.215       0.193      -0.583
   full:       -0.370       0.098      -0.839       2.344

 projected vibrational frequencies (cm⁻¹)
eigval :       -0.00    -0.00    -0.00    -0.00     0.00     0.00
eigval :        7.97     8.45    14.01    15.61    20.30    24.72
eigval :       29.32    31.89    36.22    40.81    42.09    47.70
eigval :       53.63    60.04    62.16    72.83    86.63    89.79
eigval :      100.21   103.25   114.66   121.16   127.19   144.11
eigval :      150.26   155.60   156.22   161.53   168.27   171.65
eigval :      199.15   205.17   209.49   217.03   225.50   231.11
eigval :      236.50   237.57   243.37   248.24   252.54   262.01
eigval :      282.53   290.26   320.24   323.50   328.32   335.58
eigval :      348.73   355.09   360.67   366.96   379.68   384.67
eigval :      386.59   390.06   391.50   394.81   400.27   417.04
eigval :      422.41   428.50   436.07   439.35   450.78   456.73
eigval :      462.03   469.60   482.30   491.58   497.94   501.14
eigval :      501.53   514.55   515.77   525.50   541.38   541.56
eigval :      551.56   569.29   577.03   584.82   605.15   606.48
eigval :      608.53   612.47   612.95   620.18   626.45   635.82
eigval :      660.18   663.39   664.61   667.03   673.00   674.70
eigval :      699.80   707.36   721.62   761.52   765.44   776.85
eigval :      777.80   780.28   801.57   801.94   802.57   806.97
eigval :      810.97   815.15   819.58   821.48   824.93   838.43
eigval :      859.69   859.97   860.59   861.36   871.08   873.97
eigval :      877.15   884.26   891.37   895.86   897.99   898.31
eigval :      900.48   902.82   908.89   909.81   917.42   917.47
eigval :      918.11   918.93   920.31   924.54   929.86   930.16
eigval :      930.37   954.86   987.27  1007.38  1017.40  1019.86
eigval :     1020.98  1035.75  1049.84  1067.38  1067.52  1067.57
eigval :     1067.68  1084.26  1115.56  1123.69  1123.71  1123.74
eigval :     1123.82  1129.90  1130.25  1130.82  1131.45  1142.22
eigval :     1154.29  1159.58  1159.63  1159.89  1159.99  1167.75
eigval :     1171.54  1180.76  1182.33  1189.99  1190.21  1190.86
eigval :     1194.04  1194.18  1203.44  1217.65  1224.17  1227.60
eigval :     1229.11  1230.62  1242.68  1250.48  1251.99  1268.60
eigval :     1269.68  1271.62  1273.06  1274.12  1290.44  1313.27
eigval :     1318.91  1323.58  1326.74  1334.59  1336.86  1341.82
eigval :     1346.94  1350.86  1351.69  1356.96  1367.75  1392.74
eigval :     1397.24  1402.96  1403.05  1403.50  1403.58  1413.97
eigval :     1416.89  1419.69  1423.39  1424.69  1427.93  1437.11
eigval :     1458.99  1467.51  1473.32  1473.39  1473.47  1473.52
eigval :     1477.68  1478.81  1481.62  1482.51  1487.46  1488.43
eigval :     1488.72  1488.81  1490.14  1508.53  1558.32  1563.34
eigval :     1564.56  1567.10  1570.23  1570.48  1575.93  1595.43
eigval :     1601.76  1610.08  1611.13  1611.16  1612.04  1612.31
eigval :     1617.13  2923.63  2923.73  2923.75  2923.93  2939.36
eigval :     2939.40  2939.52  2939.59  3024.38  3024.41  3024.83
eigval :     3024.90  3071.76  3076.95  3079.43  3082.63  3083.72
eigval :     3083.94  3085.12  3085.39  3085.53  3085.84  3088.71
eigval :     3089.18  3089.33  3089.52  3089.89  3094.09  3094.68
eigval :     3095.56  3096.16  3097.67  3098.19  3101.94  3102.27
eigval :     3102.41  3102.74  3107.76  3107.78  3107.95  3108.11

   temp. (K)  partition function   enthalpy   heat capacity  entropy
                                   cal/mol     cal/K/mol   cal/K/mol   J/K/mol
 298.15  VIB  0.161E+25            29608.590    179.630    186.435
         ROT  0.172E+09              888.752      2.981     40.666
         INT  0.277E+33            30497.342    182.611    227.101
         TR   0.198E+29             1481.254      4.968     45.695
         TOT                       31978.5963   187.5792   272.7958  1141.3777

       T/K    H(0)-H(T)+PV         H(T)/Eh          T*S/Eh         G(T)/Eh
   ------------------------------------------------------------------------
    298.15    0.509611E-01    0.814693E+00    0.129614E+00    0.685079E+00
   ------------------------------------------------------------------------

         :::::::::::::::::::::::::::::::::::::::::::::::::::::
         ::                  THERMODYNAMIC                  ::
         :::::::::::::::::::::::::::::::::::::::::::::::::::::
         :: total free energy        -152.394232642816 Eh   ::
         ::.................................................::
         :: total energy             -153.079311180509 Eh   ::
         :: zero point energy           0.763731494239 Eh   ::
         :: G(RRHO) w/o ZPVE           -0.078652956546 Eh   ::
         :: G(RRHO) contrib.            0.685078537693 Eh   ::
         :::::::::::::::::::::::::::::::::::::::::::::::::::::

           -------------------------------------------------
          | TOTAL ENERGY             -153.079311180509 Eh   |
          | TOTAL ENTHALPY           -152.264618549181 Eh   |
          | TOTAL FREE ENERGY        -152.394232642816 Eh   |
          | GRADIENT NORM               0.000063211769 Eh/α |
          | HOMO-LUMO GAP               1.685959334885 eV   |
           -------------------------------------------------

 * finished run on 2025/09/12 at 20:25:19.508
