   * xtb version 6.7.1 (edcfbbe) compiled by 'albert@albert-system' on 2024-07-22

   ID    Z sym.   atoms
    1    6 C      1, 3-6, 8-11, 13-24, 26-29, 31-37, 39-44, 46-57
    2    8 O      2, 12, 30, 38
    3    7 N      7, 25, 45
    4    1 H      58-98

          program call               : xtb data2507/gas/DPNC/DPNC_gas_S0_finalOpt.xtbopt.xyz --gfn 2 --spinpol --tblite --uhf 2 --ohess vtight --parallel 40 --molden --ceasefiles --namespace data2507/gas/DPNC/DPNC_gas_T1_preOpt
 * total energy  :  -152.9959237 Eh     change        0.2237135E-07 Eh
 * total energy  :  -152.9979935 Eh     change       -0.2069763E-02 Eh
 * total energy  :  -152.9985216 Eh     change       -0.5281332E-03 Eh
 * total energy  :  -152.9986064 Eh     change       -0.8476245E-04 Eh
 * total energy  :  -152.9986594 Eh     change       -0.5308157E-04 Eh
 * total energy  :  -152.9986766 Eh     change       -0.1714394E-04 Eh
 * total energy  :  -152.9986893 Eh     change       -0.1271439E-04 Eh
 * total energy  :  -152.9986989 Eh     change       -0.9573247E-05 Eh
 * total energy  :  -152.9987070 Eh     change       -0.8082672E-05 Eh
 * total energy  :  -152.9987201 Eh     change       -0.1308827E-04 Eh
 * total energy  :  -152.9987804 Eh     change       -0.2578555E-06 Eh
 * total energy  :  -152.9987803 Eh     change        0.9635735E-07 Eh
 * total energy  :  -152.9987806 Eh     change       -0.2924467E-06 Eh
 * total energy  :  -152.9987807 Eh     change       -0.1468983E-06 Eh
 * total energy  :  -152.9987809 Eh     change       -0.2140474E-06 Eh
 * total energy  :  -152.9987812 Eh     change       -0.2834043E-06 Eh
 * total energy  :  -152.9987815 Eh     change       -0.2861660E-06 Eh
 * total energy  :  -152.9987814 Eh     change        0.1352676E-06 Eh
 * total energy  :  -152.9987814 Eh     change       -0.6057303E-07 Eh
   *** GEOMETRY OPTIMIZATION CONVERGED AFTER 57 ITERATIONS ***

 final structure:
================
98
 xtb: 6.7.1 (edcfbbe)
C           -1.99737368905249       -6.35458963355550        1.70793147811861
O           -2.88646854093858       -5.92905791103543        0.70087658036365
C           -3.17292432598766       -4.60327275612837        0.60120952487393
C           -4.02318245134894       -4.23680978278478       -0.44546236046301
C           -4.35037400825439       -2.91699476861637       -0.66038170224928
C           -3.84500624934265       -1.91780079298907        0.17434065557937
N           -4.11886585525556       -0.56628609598076       -0.07372942503715
C           -5.37881431304739       -0.19207735643406       -0.54723334938840
C           -5.51391919115893        0.80822262081935       -1.50709333343759
C           -6.76040788326572        1.18146882057496       -1.97427250964353
C           -7.90458320613703        0.55144237563471       -1.49567203211332
O           -9.17776793834353        0.83522789263057       -1.88653434418979
C           -9.37792086752130        1.84897411868149       -2.84088288933414
C           -7.77096172793063       -0.45870254929731       -0.53925587116343
C           -6.53047976501498       -0.82315283609101       -0.07005532286919
C           -3.10456526454555        0.37308668621076        0.10146583212467
C           -3.40412950513060        1.69228656422141        0.48879915087050
C           -2.40005630990394        2.62185760086582        0.72389721059347
C           -1.08060643837066        2.22256090136105        0.59132525937559
C           -0.76892682860528        0.89975368650756        0.16093310648807
C           -1.77959677812743       -0.01494335788619       -0.09477860030958
C            0.64737653260548        0.80258182705087        0.13250404711302
C            1.51136480427032       -0.25476077771494       -0.11489613429667
C            2.87533597133900       -0.07084532193151        0.10168438787085
N            3.73247310179126       -1.16292679705770       -0.05296751126899
C            3.24605434278720       -2.43516329096891        0.27318157956994
C            2.42945097771860       -2.60514113980793        1.39536730002683
C            1.88341904184544       -3.83406075157670        1.68316994697884
C            2.14272241778846       -4.93774498483783        0.86722428321066
O            1.52385893137228       -6.10009119928330        1.22807270236115
C            1.75067064911753       -7.25078571765288        0.45044594695381
C            2.98469167626509       -4.78323310658006       -0.22805185045935
C            3.52640596535122       -3.54314804099709       -0.52050914168239
C            5.02221311399256       -1.00704180347974       -0.55938499151489
C            5.30087235392592       -0.03037412447442       -1.51304451623155
C            6.57890711414714        0.13102598117124       -2.01431657242437
C            7.61123422464582       -0.69283408969842       -1.57800211929222
O            8.90288385887867       -0.62653316640556       -2.00656854616006
C            9.24605038763267        0.35465502681602       -2.95407491222924
C            7.33365561851236       -1.67763551766834       -0.62664312976979
C            6.06322923729592       -1.83074647597052       -0.12210885834364
C            3.36700880667831        1.17966542200085        0.51412924310443
C            2.51407265059391        2.25317954182729        0.73133727450977
C            1.15536798864332        2.06850634952986        0.54243942611611
N            0.09373444745951        2.92022039317508        0.78563693328789
C            0.17892031284037        4.22873127994134        1.25509860259141
C           -0.54139587194187        4.56864498071601        2.41592806916058
C           -0.43668798589263        5.82690134765824        2.96123435059808
C            0.36488125150448        6.79105438109655        2.35742002603629
C            1.07079091014302        6.50416844960679        1.17234314894096
C            1.84874492690706        7.48217605237169        0.52820754581889
C            2.49067921675155        7.21153146544018       -0.66862037030469
C            2.35755009586521        5.96579484904732       -1.25687275839851
C            1.60890727997355        4.97343062538002       -0.63865440956566
C            0.97758887396097        5.20555619017995        0.59076397851123
C           -3.03177943189351       -2.29104911743547        1.24290347511297
C           -2.68892747894765       -3.61342259465505        1.45146596717986
H           -1.92555761435684       -7.43528938707346        1.59520064295091
H           -2.38145880044493       -6.12390713953808        2.70662583066842
H           -1.00394099257835       -5.91189375867550        1.58596665237064
H           -4.40104337535372       -5.01165446724644       -1.09329705749061
H           -4.98734070076002       -2.64710527052318       -1.48929867901622
H           -4.63138479282385        1.29332681298785       -1.89610226062002
H           -6.82281289912349        1.95916653205453       -2.71875523276329
H          -10.45510742502501        1.90515652732158       -2.98943015783945
H           -8.89451327306961        1.60675292394939       -3.79299630386500
H           -9.01165417787584        2.81668106461528       -2.48306749219179
H           -8.66466248640854       -0.93820857170602       -0.17326422371651
H           -6.44084087756033       -1.59749808387197        0.67694693952131
H           -4.43478527872971        1.97733181350686        0.62968696854513
H           -2.65445924014386        3.62699835351635        1.02158778464437
H           -1.54045615596808       -1.00811738527637       -0.44060417016440
H            1.12843033083203       -1.20620693887648       -0.44910855912777
H            2.22204164495238       -1.75945132109084        2.03293524755786
H            1.24915840115913       -3.96865220850090        2.54498548058941
H            1.17661084403332       -8.04499351138399        0.92513251125727
H            1.39955974174981       -7.11572482644756       -0.57761169831194
H            2.80971807789622       -7.52682185064278        0.44096676886519
H            3.21566923416825       -5.61475609660232       -0.87468406351713
H            4.16095026241152       -3.43054074141960       -1.38699639557585
H            4.50483963602245        0.60573279761432       -1.86938520485635
H            6.75251637411952        0.89855696686268       -2.75164045755875
H            9.06076938696170        1.36423511251048       -2.57326607957640
H            8.70140682465148        0.21498287287867       -3.89369293939407
H           10.31233685961969        0.22908891064135       -3.13536348595118
H            8.14217382508387       -2.30738204701534       -0.29124010259956
H            5.86590880577817       -2.58617104432321        0.62364181182151
H            4.42387737866633        1.29296938490516        0.69784036752821
H            2.90649554561990        3.19920971758240        1.07020159150405
H           -1.12411190812011        3.80265806131807        2.90638694990306
H           -0.96791416412491        6.06372100743633        3.87166457345948
H            0.44456296185485        7.77814858852811        2.78753803712062
H            1.92842415814601        8.46096920042963        0.97905793648494
H            3.08622442665579        7.97668572186669       -1.14584306161724
H            2.84029224596592        5.75615986200733       -2.20076309796258
H            1.50842092060023        4.01180571866058       -1.12032433535689
H           -2.65476608019291       -1.53266546890532        1.91242915228462
H           -2.04414718411734       -3.85873979055534        2.27996792037762

 projected vibrational frequencies (cm⁻¹)
eigval :       -0.00    -0.00     0.00     0.00     0.00     0.00
eigval :       10.07    14.33    17.03    21.05    22.86    28.51
eigval :       30.33    34.79    40.43    42.06    46.21    49.42
eigval :       56.09    62.87    74.93    76.84    88.52    89.98
eigval :       97.91   109.38   118.70   124.44   129.71   148.98
eigval :      153.37   157.65   162.83   171.40   173.50   181.34
eigval :      192.51   199.15   204.83   217.98   223.14   229.43
eigval :      233.21   237.50   241.76   246.58   258.04   268.56
eigval :      281.65   286.14   313.38   322.40   331.71   334.11
eigval :      343.84   349.80   355.46   363.44   369.79   382.26
eigval :      385.43   387.06   389.14   391.64   393.84   412.30
eigval :      426.57   433.45   442.81   444.94   447.75   454.39
eigval :      462.21   468.80   475.23   484.14   495.32   498.26
eigval :      502.77   506.98   509.32   518.43   531.43   540.71
eigval :      548.51   559.29   577.48   583.20   586.59   603.79
eigval :      607.93   609.13   611.03   612.67   623.07   629.00
eigval :      654.35   658.66   666.53   667.83   668.80   674.98
eigval :      679.50   695.40   701.91   730.45   755.05   763.40
eigval :      773.69   779.53   782.79   784.61   795.13   799.02
eigval :      800.08   805.64   807.00   809.44   812.06   824.96
eigval :      830.20   832.78   833.88   838.30   854.65   856.54
eigval :      858.27   858.82   869.73   876.07   878.56   881.33
eigval :      884.36   896.04   898.01   900.65   901.18   902.22
eigval :      902.82   914.57   915.46   917.79   918.51   927.56
eigval :      928.39   945.41   973.35   993.14  1004.75  1014.51
eigval :     1018.20  1021.96  1034.89  1056.26  1061.87  1064.22
eigval :     1064.80  1065.16  1090.95  1119.62  1121.89  1122.08
eigval :     1122.37  1124.15  1127.49  1128.01  1128.73  1130.40
eigval :     1133.93  1135.97  1146.61  1156.79  1157.61  1158.15
eigval :     1158.71  1169.21  1177.14  1183.31  1186.37  1187.65
eigval :     1188.01  1189.32  1191.35  1194.45  1215.79  1219.02
eigval :     1226.81  1231.02  1235.96  1240.45  1242.18  1257.11
eigval :     1263.43  1267.21  1268.58  1269.22  1270.15  1274.80
eigval :     1301.75  1307.55  1316.91  1322.36  1324.97  1331.22
eigval :     1336.23  1337.89  1343.56  1346.99  1350.32  1365.57
eigval :     1381.26  1387.82  1393.45  1401.54  1402.04  1402.19
eigval :     1403.51  1407.23  1414.47  1415.55  1422.96  1423.81
eigval :     1428.11  1435.52  1438.78  1464.44  1468.38  1470.41
eigval :     1471.51  1471.58  1471.67  1472.87  1475.41  1476.25
eigval :     1478.58  1484.08  1484.55  1484.74  1485.13  1491.97
eigval :     1508.35  1516.30  1527.75  1536.56  1553.64  1554.10
eigval :     1556.33  1559.20  1564.76  1581.71  1588.74  1593.96
eigval :     1598.31  2929.83  2930.40  2934.00  2937.43  2944.55
eigval :     2944.83  2948.03  2952.45  3025.87  3027.51  3027.57
eigval :     3027.95  3062.37  3068.08  3069.16  3077.61  3079.86
eigval :     3085.07  3087.52  3088.25  3089.06  3089.76  3090.41
eigval :     3091.23  3091.93  3092.14  3093.50  3093.93  3094.48
eigval :     3096.34  3099.26  3104.19  3104.45  3106.63  3107.24
eigval :     3107.72  3107.99  3109.74  3110.23  3110.70  3111.51

   temp. (K)  partition function   enthalpy   heat capacity  entropy
                                   cal/mol     cal/K/mol   cal/K/mol   J/K/mol
 298.15  VIB  0.187E+24            29704.276    182.210    185.219
         ROT  0.163E+09              888.752      2.981     40.562
         INT  0.306E+32            30593.028    185.191    225.781
         TR   0.198E+29             1481.254      4.968     45.695
         TOT                       32074.2824   190.1595   271.4758  1135.8545

       T/K    H(0)-H(T)+PV         H(T)/Eh          T*S/Eh         G(T)/Eh
   ------------------------------------------------------------------------
    298.15    0.511136E-01    0.809881E+00    0.128987E+00    0.680894E+00
   ------------------------------------------------------------------------

         :::::::::::::::::::::::::::::::::::::::::::::::::::::
         ::                  THERMODYNAMIC                  ::
         :::::::::::::::::::::::::::::::::::::::::::::::::::::
         :: total free energy        -152.317887259694 Eh   ::
         ::.................................................::
         :: total energy             -152.998781498609 Eh   ::
         :: zero point energy           0.758767505889 Eh   ::
         :: G(RRHO) w/o ZPVE           -0.077873266974 Eh   ::
         :: G(RRHO) contrib.            0.680894238915 Eh   ::
         :::::::::::::::::::::::::::::::::::::::::::::::::::::

           -------------------------------------------------
          | TOTAL ENERGY             -152.998781498609 Eh   |
          | TOTAL ENTHALPY           -152.188900370242 Eh   |
          | TOTAL FREE ENERGY        -152.317887259694 Eh   |
          | GRADIENT NORM               0.000100145413 Eh/α |
           -------------------------------------------------

 * finished run on 2025/09/12 at 20:42:33.767
