   * xtb version 6.7.1 (edcfbbe) compiled by 'albert@albert-system' on 2024-07-22

   ID    Z sym.   atoms
    1    6 C      1, 3-6, 8-11, 13-24, 26-29, 31-37, 39-44, 46-57
    2    8 O      2, 12, 30, 38
    3    7 N      7, 25, 45
    4    1 H      58-98

          program call               : xtb data2507/gas/DPNC/DPNC_gas_S0_crest.xyz --gfn 2 --ohess vtight --parallel 40 --molden --ceasefiles --namespace data2507/gas/DPNC/DPNC_gas_S0_finalOpt
          :  Hamiltonian                  GFN2-xTB          :
 * total energy  :  -153.0810879 Eh     change       -0.1221849E-08 Eh
 * total energy  :  -153.0810890 Eh     change       -0.1136880E-05 Eh
 * total energy  :  -153.0810897 Eh     change       -0.6224043E-06 Eh
 * total energy  :  -153.0810903 Eh     change       -0.6700291E-06 Eh
 * total energy  :  -153.0810911 Eh     change       -0.7858292E-06 Eh
 * total energy  :  -153.0810917 Eh     change       -0.5583258E-06 Eh
 * total energy  :  -153.0810921 Eh     change       -0.4251231E-06 Eh
 * total energy  :  -153.0810926 Eh     change       -0.5024354E-06 Eh
 * total energy  :  -153.0810931 Eh     change       -0.5302206E-06 Eh
 * total energy  :  -153.0810935 Eh     change       -0.3987379E-06 Eh
 * total energy  :  -153.0810938 Eh     change       -0.2592907E-06 Eh
 * total energy  :  -153.0810940 Eh     change       -0.2496249E-06 Eh
 * total energy  :  -153.0810943 Eh     change       -0.2869657E-06 Eh
 * total energy  :  -153.0810946 Eh     change       -0.2639669E-06 Eh
 * total energy  :  -153.0810947 Eh     change       -0.1310564E-06 Eh
 * total energy  :  -153.0810948 Eh     change       -0.2643924E-07 Eh
   *** GEOMETRY OPTIMIZATION CONVERGED AFTER 16 ITERATIONS ***

 final structure:
================
98
 xtb: 6.7.1 (edcfbbe)
C           -1.99983848419638       -6.36067058498592        1.68315878678039
O           -2.86488613326576       -5.93597206044963        0.65657192368774
C           -3.15741330970160       -4.60655643685850        0.56171488892972
C           -3.98222064671215       -4.23446507491437       -0.50111060256649
C           -4.30882826608836       -2.91345508885855       -0.71302655402191
C           -3.83369524998409       -1.91946142208669        0.14365046366134
N           -4.11204896384812       -0.56471929873647       -0.09668878009903
C           -5.35815835142130       -0.18969176352785       -0.60652793926186
C           -5.47342480913254        0.82119200234048       -1.55606812010837
C           -6.70871870819758        1.19627842701411       -2.05349453309297
C           -7.86145751596390        0.55369326019144       -1.61887651925978
O           -9.12914842268191        0.83767766003056       -2.04418837437959
C           -9.30015586703079        1.85232954129868       -3.00083221316597
C           -7.74965507326834       -0.46716993329102       -0.67358502790654
C           -6.52103579896411       -0.82988008414331       -0.17137376360384
C           -3.09484835382984        0.37771311143387        0.09275493668571
C           -3.39388330342548        1.68314608138933        0.51491672176049
C           -2.40572241676611        2.61621010991316        0.75991279458450
C           -1.08128620302391        2.22495454949521        0.62096277248861
C           -0.77118787457982        0.91989116119140        0.18100391837017
C           -1.77009698904208        0.00861322159963       -0.10824732900671
C            0.65735510816642        0.81680721131473        0.17955385302898
C            1.51321126313948       -0.24022924563873       -0.07173933053523
C            2.87333688526919       -0.06896800095987        0.15186653158222
N            3.73653143744484       -1.16388701984427        0.00008242124278
C            3.25309218634560       -2.43590369200900        0.33714118107645
C            2.45446816664403       -2.60519828786870        1.47132187906577
C            1.91431765167679       -3.83375057339328        1.77197826289855
C            2.16523766878215       -4.94032007567786        0.95929286235888
O            1.55645753017692       -6.10607910594405        1.33712490708512
C            1.76512630280427       -7.25346652949456        0.55139729087238
C            2.98859194321787       -4.78745222067423       -0.14909411084219
C            3.52020774278387       -3.54664230031018       -0.45624398658886
C            5.01163297637469       -1.00830149124509       -0.54499426312016
C            5.26627081047092       -0.03827816533654       -1.51028196255843
C            6.53272955550969        0.12515771351305       -2.04251304403807
C            7.57617485583840       -0.69313153430790       -1.62788984489932
O            8.86179697768518       -0.62482374210385       -2.08818835686910
C            9.17219555176162        0.34380859211985       -3.05734568097069
C            7.32399059057157       -1.67224990434534       -0.66576950647633
C            6.06641669515244       -1.82445799339639       -0.12851278962647
C            3.35881760679985        1.17714259293891        0.57698447133905
C            2.51800120500907        2.25026003422142        0.79560462396309
C            1.15460612770036        2.06858391218328        0.60272435563664
N            0.09277003574588        2.92440732970807        0.83629062454212
C            0.18242662284865        4.22849958566051        1.34520040623575
C           -0.45905396890662        4.54418737961154        2.51981500132533
C           -0.36930420515164        5.83240710944955        3.05948566754548
C            0.37222750393350        6.79395407355657        2.43217292962150
C            1.03106493907394        6.51419638623087        1.21698936436397
C            1.78300835800567        7.49827497611491        0.54101408206801
C            2.38144038991924        7.22516685377957       -0.65635395803683
C            2.24178744938506        5.95726531573861       -1.23990611599444
C            1.53130485589448        4.97647407824959       -0.60589423943040
C            0.92545664947549        5.21842645648916        0.64499248132597
C           -3.04661337452437       -2.30023761499235        1.22714545016415
C           -2.69930872947126       -3.62288136651600        1.43083579084941
H           -1.91179304657761       -7.43952209132547        1.56294893525229
H           -2.41368187240974       -6.14394356385914        2.67345794220325
H           -1.00833560007153       -5.90561301092340        1.59415810760261
H           -4.34148846034925       -5.00470174464016       -1.16517200743353
H           -4.92867115463922       -2.64001656960729       -1.55388302874758
H           -4.58415695625939        1.31967266637661       -1.91277080761937
H           -6.75291205670062        1.98557760834854       -2.78748546213993
H          -10.37184465149307        1.90534173796147       -3.18695055113705
H           -8.78298360199836        1.61595149411989       -3.93696475522281
H           -8.95050072978628        2.82133414602676       -2.62861723233571
H           -8.65037483244376       -0.95829860745692       -0.34115305561109
H           -6.44920084065124       -1.61634415982472        0.56488027909267
H           -4.42816236047050        1.95746019801993        0.65946849021491
H           -2.66442068687338        3.61693958964974        1.07207854793327
H           -1.52065839848732       -0.98003356946555       -0.46040818254309
H            1.12429144594135       -1.19142157261545       -0.40041251230565
H            2.24999930501660       -1.75722128638682        2.10741610219699
H            1.29066709085815       -3.96511564104283        2.64225320540472
H            1.20037376593867       -8.04895372387450        1.03529056151053
H            1.39240428892357       -7.11487760769575       -0.46878538884702
H            2.82355134980165       -7.53130256649377        0.51780693151182
H            3.21350547596715       -5.62118672204166       -0.79535918861560
H            4.14272909167578       -3.43740518595275       -1.33200300713024
H            4.46174005633352        0.59634757338008       -1.85128727429925
H            6.68600967876939        0.89035026061983       -2.78724403735949
H            8.99379159451123        1.35851777696820       -2.68549933808445
H            8.60096481830373        0.19022088366632       -3.97923863970949
H           10.23341246990842        0.22089242492237       -3.26866590177401
H            8.14120512512037       -2.29980164690688       -0.34726204153381
H            5.88877898943936       -2.57859194326808        0.62351474625866
H            4.41827478339170        1.28790076003955        0.75370453353223
H            2.91421258903773        3.19535541303901        1.13535625403804
H           -1.02209651890160        3.78184050030610        3.03781541070947
H           -0.87946639185534        6.05108515493016        3.98585218801716
H            0.45909130005151        7.78492413937551        2.85321938518736
H            1.87124496108220        8.47751681669476        0.98957405195795
H            2.95500400972859        7.98501263736161       -1.16664918020283
H            2.69828101519988        5.76100180463654       -2.19889938464890
H            1.42025847132434        4.00672382518071       -1.06707233924050
H           -2.68410066458136       -1.54676093938924        1.91069603745081
H           -2.07011287940183       -3.87120713512032        2.27067125128583

          :  Hamiltonian                  GFN2-xTB          :
         :: gradient norm              0.000050526022 Eh/a0 ::
         :: HOMO-LUMO gap              1.684772507179 eV    ::
         :: SCC energy              -155.625364564167 Eh    ::
         :: -> dispersion             -0.133669201627 Eh    ::
         :: repulsion energy           2.544269812945 Eh    ::

    * Orbital Energies and Occupations

         #    Occupation            Energy/Eh            Energy/eV
      -------------------------------------------------------------
         1        2.0000           -0.7139888             -19.4286
       ...           ...                  ...                  ...
       128        2.0000           -0.4044243             -11.0049
       129        2.0000           -0.4013097             -10.9202
       130        2.0000           -0.4009951             -10.9116
       131        2.0000           -0.4008443             -10.9075
       132        2.0000           -0.3980325             -10.8310
       133        2.0000           -0.3922788             -10.6745
       134        2.0000           -0.3849671             -10.4755
       135        2.0000           -0.3788371             -10.3087
       136        2.0000           -0.3760426             -10.2326
       137        2.0000           -0.3741297             -10.1806
       138        2.0000           -0.3649333              -9.9303
       139        2.0000           -0.3354595              -9.1283
       140        2.0000           -0.3272760              -8.9056 (HOMO)
       141                         -0.2653617              -7.2209 (LUMO)
       142                         -0.2414284              -6.5696
       143                         -0.2340062              -6.3676
       144                         -0.2225877              -6.0569
       145                         -0.2216641              -6.0318
       146                         -0.2187287              -5.9519
       147                         -0.2182756              -5.9396
       148                         -0.2164303              -5.8894
       149                         -0.2151198              -5.8537
       150                         -0.2133784              -5.8063
       151                         -0.2074594              -5.6453
       ...                                ...                  ...
       269                          0.7537558              20.5107
      -------------------------------------------------------------
                  HL-Gap            0.0619143 Eh            1.6848 eV

     #   Z          covCN         q      C6AA      α(0)
     1   6 C        3.644     0.037    20.296     6.476
     2   8 O        1.705    -0.275    18.563     5.817
     3   6 C        2.865     0.136    25.029     8.201
     4   6 C        2.920    -0.056    29.381     8.889
     5   6 C        2.922    -0.048    29.199     8.861
     6   6 C        2.923     0.053    26.804     8.490
     7   7 N        2.752    -0.074    22.684     7.074
     8   6 C        2.920     0.054    26.780     8.486
     9   6 C        2.923    -0.052    29.280     8.874
    10   6 C        2.917    -0.067    29.669     8.932
    11   6 C        2.865     0.134    25.072     8.208
    12   8 O        1.705    -0.275    18.564     5.817
    13   6 C        3.644     0.040    20.232     6.465
    14   6 C        2.920    -0.055    29.358     8.885
    15   6 C        2.923    -0.049    29.207     8.863
    16   6 C        2.923     0.055    26.777     8.486
    17   6 C        2.925    -0.053    29.304     8.877
    18   6 C        2.909    -0.051    29.263     8.870
    19   6 C        3.074     0.038    27.070     8.531
    20   6 C        3.071    -0.017    28.368     8.733
    21   6 C        2.917    -0.055    29.361     8.886
    22   6 C        3.071    -0.018    28.374     8.734
    23   6 C        2.917    -0.054    29.342     8.883
    24   6 C        2.926     0.053    26.801     8.490
    25   7 N        2.752    -0.075    22.691     7.075
    26   6 C        2.924     0.055    26.758     8.483
    27   6 C        2.923    -0.046    29.152     8.854
    28   6 C        2.920    -0.055    29.354     8.885
    29   6 C        2.865     0.134    25.069     8.207
    30   8 O        1.705    -0.280    18.647     5.830
    31   6 C        3.644     0.039    20.251     6.469
    32   6 C        2.917    -0.066    29.646     8.929
    33   6 C        2.923    -0.050    29.240     8.868
    34   6 C        2.919     0.054    26.781     8.486
    35   6 C        2.924    -0.052    29.298     8.876
    36   6 C        2.917    -0.067    29.664     8.931
    37   6 C        2.865     0.133    25.084     8.210
    38   8 O        1.705    -0.276    18.573     5.819
    39   6 C        3.644     0.040    20.231     6.465
    40   6 C        2.920    -0.055    29.361     8.886
    41   6 C        2.923    -0.050    29.237     8.867
    42   6 C        2.925    -0.051    29.277     8.873
    43   6 C        2.909    -0.050    29.233     8.866
    44   6 C        3.072     0.040    27.022     8.523
    45   7 N        2.803    -0.044    22.096     6.981
    46   6 C        2.909     0.057    26.720     8.476
    47   6 C        2.921    -0.045    29.124     8.850
    48   6 C        2.915    -0.031    28.764     8.795
    49   6 C        2.919    -0.040    29.004     8.832
    50   6 C        2.987     0.013    27.712     8.635
    51   6 C        2.920    -0.035    28.864     8.810
    52   6 C        2.915    -0.029    28.723     8.788
    53   6 C        2.917    -0.030    28.746     8.792
    54   6 C        2.917    -0.032    28.790     8.799
    55   6 C        2.987     0.002    27.968     8.675
    56   6 C        2.924    -0.049    29.219     8.864
    57   6 C        2.917    -0.066    29.651     8.929
    58   1 H        0.925     0.056     2.241     2.341
    59   1 H        0.924     0.036     2.499     2.472
    60   1 H        0.924     0.052     2.301     2.372
    61   1 H        0.926     0.047     2.358     2.401
    62   1 H        0.926     0.037     2.484     2.465
    63   1 H        0.926     0.035     2.519     2.482
    64   1 H        0.926     0.033     2.538     2.491
    65   1 H        0.925     0.059     2.211     2.325
    66   1 H        0.924     0.037     2.484     2.465
    67   1 H        0.924     0.037     2.487     2.466
    68   1 H        0.926     0.048     2.349     2.397
    69   1 H        0.926     0.039     2.469     2.457
    70   1 H        0.926     0.033     2.540     2.492
    71   1 H        0.926     0.029     2.605     2.524
    72   1 H        0.926     0.034     2.528     2.486
    73   1 H        0.926     0.034     2.536     2.490
    74   1 H        0.926     0.039     2.456     2.450
    75   1 H        0.926     0.045     2.385     2.415
    76   1 H        0.925     0.059     2.215     2.328
    77   1 H        0.924     0.040     2.445     2.445
    78   1 H        0.924     0.039     2.461     2.453
    79   1 H        0.926     0.036     2.506     2.475
    80   1 H        0.926     0.036     2.497     2.471
    81   1 H        0.926     0.034     2.525     2.485
    82   1 H        0.926     0.033     2.539     2.492
    83   1 H        0.924     0.037     2.486     2.466
    84   1 H        0.924     0.037     2.487     2.466
    85   1 H        0.925     0.059     2.212     2.326
    86   1 H        0.926     0.047     2.357     2.401
    87   1 H        0.926     0.037     2.488     2.467
    88   1 H        0.926     0.033     2.537     2.491
    89   1 H        0.926     0.029     2.607     2.525
    90   1 H        0.926     0.039     2.464     2.455
    91   1 H        0.926     0.035     2.521     2.483
    92   1 H        0.926     0.034     2.525     2.485
    93   1 H        0.926     0.033     2.545     2.495
    94   1 H        0.926     0.032     2.565     2.504
    95   1 H        0.926     0.031     2.570     2.507
    96   1 H        0.926     0.037     2.488     2.467
    97   1 H        0.926     0.035     2.509     2.477
    98   1 H        0.926     0.037     2.490     2.468

molecular dipole:
                 x           y           z       tot (Debye)
 q only:        0.432       0.705      -0.308
   full:        0.600       0.937      -0.485       3.085

 projected vibrational frequencies (cm⁻¹)
eigval :       -0.00    -0.00    -0.00    -0.00     0.00     0.00
eigval :        9.92    14.60    16.26    20.64    22.34    27.23
eigval :       30.84    34.14    38.59    41.65    45.35    49.50
eigval :       54.51    60.87    74.96    76.18    86.32    87.49
eigval :       95.06   106.57   118.85   123.69   125.92   147.74
eigval :      150.17   155.77   160.16   167.65   172.35   180.56
eigval :      192.33   199.31   206.96   219.13   224.15   232.06
eigval :      235.07   238.62   244.88   250.27   259.11   267.45
eigval :      283.70   288.62   316.28   324.26   332.73   336.33
eigval :      348.81   352.79   362.82   368.51   380.00   386.05
eigval :      389.27   389.52   390.65   395.07   403.72   419.91
eigval :      426.26   429.66   436.30   443.01   446.23   453.70
eigval :      460.86   470.54   484.18   491.83   497.26   502.85
eigval :      504.04   511.33   515.37   527.79   535.36   542.18
eigval :      557.31   568.42   573.24   584.23   604.03   609.12
eigval :      610.00   612.98   616.11   617.03   627.16   638.68
eigval :      657.54   663.47   665.16   667.47   671.40   675.53
eigval :      698.87   705.67   721.53   761.54   764.74   776.83
eigval :      779.38   782.44   800.35   801.89   803.07   807.60
eigval :      810.73   815.10   819.60   822.36   826.56   839.22
eigval :      858.55   860.02   860.92   861.44   872.07   875.11
eigval :      877.47   884.02   891.81   894.89   898.01   900.57
eigval :      900.79   902.97   909.91   911.93   917.19   917.85
eigval :      918.27   919.85   920.25   924.83   929.52   929.98
eigval :      930.46   954.44   988.59  1006.65  1016.66  1020.18
eigval :     1022.51  1038.61  1051.58  1063.86  1066.28  1067.55
eigval :     1067.70  1084.44  1115.74  1120.86  1123.68  1123.73
eigval :     1123.83  1128.74  1129.91  1130.76  1131.26  1142.78
eigval :     1153.58  1158.19  1159.50  1159.63  1160.03  1170.39
eigval :     1171.96  1180.95  1183.27  1189.57  1190.66  1191.27
eigval :     1193.23  1193.99  1205.64  1217.17  1224.83  1227.69
eigval :     1229.26  1233.33  1244.88  1250.69  1252.06  1268.56
eigval :     1269.26  1271.76  1272.04  1275.22  1286.63  1313.70
eigval :     1317.83  1320.53  1326.27  1333.58  1335.80  1338.03
eigval :     1347.43  1350.91  1355.08  1357.14  1369.91  1392.35
eigval :     1396.66  1402.47  1403.26  1403.41  1404.58  1413.35
eigval :     1416.33  1419.55  1423.28  1424.38  1427.13  1437.95
eigval :     1458.34  1467.07  1470.18  1473.36  1473.39  1476.88
eigval :     1477.47  1478.44  1481.01  1482.80  1486.77  1487.78
eigval :     1488.18  1488.84  1491.79  1508.53  1558.66  1563.31
eigval :     1563.98  1567.12  1570.52  1570.61  1575.43  1595.32
eigval :     1605.58  1609.37  1610.01  1610.38  1611.99  1612.97
eigval :     1623.23  2923.31  2923.52  2930.07  2932.51  2939.10
eigval :     2939.31  2944.64  2950.13  3023.32  3024.77  3024.84
eigval :     3025.72  3071.45  3076.52  3079.01  3081.11  3082.80
eigval :     3084.45  3085.15  3085.42  3085.60  3085.81  3087.76
eigval :     3088.41  3088.96  3089.96  3090.21  3094.33  3094.99
eigval :     3095.16  3097.37  3097.91  3101.60  3101.84  3102.14
eigval :     3103.53  3105.19  3106.22  3107.40  3107.91  3108.48

   temp. (K)  partition function   enthalpy   heat capacity  entropy
                                   cal/mol     cal/K/mol   cal/K/mol   J/K/mol
 298.15  VIB  0.230E+24            29501.385    179.991    184.507
         ROT  0.163E+09              888.752      2.981     40.563
         INT  0.375E+32            30390.138    182.971    225.070
         TR   0.198E+29             1481.254      4.968     45.695
         TOT                       31871.3915   187.9395   270.7646  1132.8789

       T/K    H(0)-H(T)+PV         H(T)/Eh          T*S/Eh         G(T)/Eh
   ------------------------------------------------------------------------
    298.15    0.507903E-01    0.814846E+00    0.128649E+00    0.686197E+00
   ------------------------------------------------------------------------

         :::::::::::::::::::::::::::::::::::::::::::::::::::::
         ::                  THERMODYNAMIC                  ::
         :::::::::::::::::::::::::::::::::::::::::::::::::::::
         :: total free energy        -152.394897653435 Eh   ::
         ::.................................................::
         :: total energy             -153.081094751222 Eh   ::
         :: zero point energy           0.764055779670 Eh   ::
         :: G(RRHO) w/o ZPVE           -0.077858681883 Eh   ::
         :: G(RRHO) contrib.            0.686197097787 Eh   ::
         :::::::::::::::::::::::::::::::::::::::::::::::::::::

           -------------------------------------------------
          | TOTAL ENERGY             -153.081094751222 Eh   |
          | TOTAL ENTHALPY           -152.266248676331 Eh   |
          | TOTAL FREE ENERGY        -152.394897653435 Eh   |
          | GRADIENT NORM               0.000050540918 Eh/α |
          | HOMO-LUMO GAP               1.684774120136 eV   |
           -------------------------------------------------

 * finished run on 2025/09/12 at 20:42:12.597
