   * xtb version 6.7.1 (edcfbbe) compiled by 'albert@albert-system' on 2024-07-22

   ID    Z sym.   atoms
    1    6 C      1, 3-6, 8-11, 13-24, 26-29, 31-37, 39-44, 46-57
    2    8 O      2, 12, 30, 38
    3    7 N      7, 25, 45
    4    1 H      58-98

          program call               : xtb data2507/gas/DPNC/DPNC_gas_T1_crest.xyz --gfn 2 --spinpol --tblite --uhf 2 --ohess vtight --parallel 40 --molden --ceasefiles --namespace data2507/gas/DPNC/DPNC_gas_T1_finalOpt
 * total energy  :  -152.9987078 Eh     change        0.4499216E-07 Eh
 * total energy  :  -152.9987268 Eh     change       -0.1896893E-04 Eh
 * total energy  :  -152.9987481 Eh     change       -0.2130617E-04 Eh
 * total energy  :  -152.9987541 Eh     change       -0.6068729E-05 Eh
 * total energy  :  -152.9987572 Eh     change       -0.3027931E-05 Eh
 * total energy  :  -152.9987594 Eh     change       -0.2287782E-05 Eh
 * total energy  :  -152.9987627 Eh     change       -0.3239270E-05 Eh
 * total energy  :  -152.9987667 Eh     change       -0.4027592E-05 Eh
 * total energy  :  -152.9987698 Eh     change       -0.3085690E-05 Eh
 * total energy  :  -152.9987714 Eh     change       -0.1604522E-05 Eh
 * total energy  :  -152.9987815 Eh     change       -0.5019812E-06 Eh
 * total energy  :  -152.9987818 Eh     change       -0.3638289E-06 Eh
 * total energy  :  -152.9987818 Eh     change        0.1140378E-07 Eh
 * total energy  :  -152.9987820 Eh     change       -0.1831339E-06 Eh
 * total energy  :  -152.9987824 Eh     change       -0.4395355E-06 Eh
 * total energy  :  -152.9987823 Eh     change        0.1342289E-06 Eh
 * total energy  :  -152.9987826 Eh     change       -0.3015459E-06 Eh
 * total energy  :  -152.9987826 Eh     change        0.4045717E-07 Eh
 * total energy  :  -152.9987827 Eh     change       -0.9548114E-07 Eh
   *** GEOMETRY OPTIMIZATION CONVERGED AFTER 28 ITERATIONS ***

 final structure:
================
98
 xtb: 6.7.1 (edcfbbe)
C           -2.00637373139892       -6.37366926598166        1.60624644565075
O           -2.89234978630373       -5.93168787964414        0.60351885929092
C           -3.17708076339038       -4.60428732001627        0.52321713359195
C           -4.02763561558309       -4.22189148071513       -0.51752415348520
C           -4.35341189277903       -2.89874786351915       -0.71306340131097
C           -3.84603030025611       -1.91230563730514        0.13542656446050
N           -4.12010096273736       -0.55722516416791       -0.09388648446734
C           -5.38475374593109       -0.17885721449614       -0.55198979167667
C           -5.53042376484693        0.83042809322504       -1.50076850772549
C           -6.78212396037126        1.20804031163264       -1.95037163623238
C           -7.92090544504313        0.57328759935177       -1.46521165214757
O           -9.19846430836903        0.86142839837609       -1.83812508206420
C           -9.40984536282854        1.88778342424303       -2.77643895883654
C           -7.77660323004229       -0.44696946013290       -0.52115064540733
C           -6.53096917907065       -0.81563208622170       -0.06927996009890
C           -3.10561700340117        0.38020689523395        0.08761990032848
C           -3.40463679603027        1.69781829703938        0.48095401941312
C           -2.40032724539849        2.62607042310765        0.72053955935562
C           -1.08093483263654        2.22643951384458        0.58910623404356
C           -0.76923510320562        0.90455384651334        0.15557281356357
C           -1.78025948394727       -0.00767576913108       -0.10789560213535
C            0.64710630024279        0.80482742690004        0.13445628184586
C            1.51118655114410       -0.25327047149015       -0.11012716528164
C            2.87381044611334       -0.07305118472762        0.11905129148740
N            3.73014372417003       -1.16594691550610       -0.03103209698627
C            3.23835847187968       -2.44017324349284        0.27927898338580
C            2.40584181448100       -2.61889882750458        1.38826822995634
C            1.85799468084683       -3.85076753231050        1.65987936243184
C            2.13138386734590       -4.94854185137966        0.84060496019858
O            1.51038503713128       -6.11471431916399        1.18522495940855
C            1.75352670160115       -7.26056631224297        0.40535976766678
C            2.98833162270795       -4.78519696289666       -0.24168209232676
C            3.53178499732642       -3.54219857373305       -0.51795306510559
C            5.03023897317470       -1.00958507129375       -0.51084363136073
C            5.32971904047347       -0.03029163339300       -1.45537670738972
C            6.61837284668129        0.13171731849666       -1.92866101419525
C            7.64058222650661       -0.69422237767067       -1.47287757356395
O            8.94131860611931       -0.62718766957804       -1.87274854265919
C            9.30677759664419        0.35978786140363       -2.80579896603125
C            7.34195929823214       -1.68228915994915       -0.53132043478574
C            6.06094273202119       -1.83593024230183       -0.05457433460637
C            3.36451701744630        1.17511570815032        0.53989357803938
C            2.51216767074872        2.25004125711646        0.75208689914707
C            1.15479894050003        2.06860165012617        0.55132070471544
N            0.09355246467037        2.92190075009995        0.78963743009518
C            0.18075267086195        4.23182761611731        1.25484086726533
C           -0.54209289099240        4.57894613348678        2.41158747906554
C           -0.43502917943562        5.83941599462610        2.95179447332216
C            0.37188881882551        6.79806753832329        2.34679744066345
C            1.08092925909498        6.50375266229164        1.16538556095052
C            1.86477098675862        7.47623138398562        0.51993316894821
C            2.50989552306180        7.19826048191788       -0.67333103645246
C            2.37423047514448        5.95045313963523       -1.25687925563657
C            1.61992490129716        4.96353963749648       -0.63724367438773
C            0.98508639005868        5.20308224668762        0.58902009833450
C           -3.03244371757381       -2.30160056023379        1.19786472944332
C           -2.69122671975440       -3.62736702188787        1.38724814609314
H           -2.39276668273095       -6.15751698972066        2.60729084824380
H           -1.01198900904532       -5.93069911980272        1.49375781859311
H           -1.93585053109141       -7.45264294141915        1.47730180638216
H           -4.40694324028687       -4.98693410517293       -1.17606145737553
H           -4.99112968358205       -2.61604237983461       -1.53712395423559
H           -4.65231104369418        1.31948450146623       -1.89478824552737
H           -6.85288405283162        1.99303516788874       -2.68640619569870
H          -10.48880709859667        1.94685264120390       -2.91027682050786
H           -8.93906280738618        1.65771426422707       -3.73783975164575
H           -9.03796663537381        2.85035147248545       -2.41064792178481
H           -8.66612146779424       -0.93063742038936       -0.15048304134005
H           -6.43292874207441       -1.59768978795357        0.66858308213132
H           -4.43504890557033        1.98302148127055        0.62302946161874
H           -2.65479765668364        3.63025680194552        1.02132272006781
H           -1.54075150901178       -0.99902508585607       -0.45854970549233
H            1.12906601414370       -1.20263207010244       -0.45108242030237
H            2.18800950294950       -1.77797712213182        2.02865835457596
H            1.21184133121927       -3.99232600110437        2.51168596218104
H            1.17586780477074       -8.05949703974873        0.86758667067771
H            1.41714092275119       -7.12186054440143       -0.62712615838287
H            2.81375990684781       -7.53209051905614        0.41025979149301
H            3.23009762296124       -5.61194150216472       -0.89047509636511
H            4.17874234246296       -3.42255994401552       -1.37425673492540
H            4.54194154576847        0.60765946323654       -1.82646897830333
H            6.80835297786265        0.90147932199094       -2.65960079931178
H            9.11240243783612        1.36697369615906       -2.42321060808046
H            8.78466405692206        0.22598198873319       -3.75895405071065
H           10.37708606602014        0.23524628147208       -2.96244512688340
H            8.14264268594284       -2.31385298218930       -0.18089181496216
H            5.84709306394944       -2.59367180507370        0.68424106775575
H            4.41972562794550        1.28543547048291        0.73446943175326
H            2.90352192176418        3.19439441104538        1.09681154564006
H           -1.12902239884484        3.81711341855635        2.90347289014043
H           -0.96873426889247        6.08197056365336        3.85926486403288
H            0.45364224333410        7.78668625063498        2.77303170322345
H            1.94646281015599        8.45659569525871        0.96700634872409
H            3.10995827823826        7.95915878915318       -1.15171097278456
H            2.85951590314918        5.73514600574495       -2.19819577587142
H            1.51789148626479        4.00024332588094       -1.11522786513236
H           -2.65397802775778       -1.55328546187192        1.87783001061003
H           -2.04618119169605       -3.88547840372986        2.21164618806348

 projected vibrational frequencies (cm⁻¹)
eigval :       -0.00    -0.00     0.00     0.00     0.00     0.00
eigval :       10.21    15.03    16.94    20.97    23.30    28.61
eigval :       31.01    35.05    40.14    42.14    46.61    50.14
eigval :       56.13    62.95    74.98    76.84    88.75    90.09
eigval :       98.74   109.41   118.60   124.26   129.84   149.14
eigval :      153.39   158.04   162.88   171.38   173.63   181.38
eigval :      191.76   197.42   204.99   218.11   222.86   229.79
eigval :      233.28   237.47   242.02   246.57   256.76   268.66
eigval :      281.37   286.21   313.67   322.24   332.21   333.79
eigval :      343.70   349.83   355.49   363.29   369.87   382.33
eigval :      385.55   387.13   389.71   392.01   393.81   412.46
eigval :      426.73   433.79   443.21   445.23   447.80   454.44
eigval :      462.57   469.22   475.61   484.20   495.25   497.96
eigval :      503.02   507.17   509.48   518.61   531.48   540.92
eigval :      548.63   559.32   577.58   583.25   586.46   603.52
eigval :      607.87   609.27   610.88   612.63   623.07   628.82
eigval :      653.79   658.27   666.65   667.94   668.88   675.30
eigval :      679.34   695.55   702.02   730.88   755.01   763.49
eigval :      773.93   779.94   782.77   785.39   795.11   800.28
eigval :      800.43   805.74   807.26   809.60   811.13   825.21
eigval :      829.57   832.86   833.73   838.44   854.67   856.69
eigval :      858.25   858.33   870.31   876.30   878.81   881.23
eigval :      883.97   896.06   897.96   901.06   901.39   902.42
eigval :      903.14   914.52   915.59   917.63   917.78   927.54
eigval :      928.30   945.71   974.96   992.72  1004.97  1014.59
eigval :     1018.40  1022.15  1035.15  1056.99  1062.08  1064.36
eigval :     1064.97  1065.26  1091.41  1119.40  1121.94  1122.12
eigval :     1122.46  1124.16  1127.58  1128.78  1128.90  1130.51
eigval :     1133.17  1136.16  1147.08  1156.89  1158.02  1158.36
eigval :     1158.70  1169.30  1179.02  1183.52  1186.41  1187.82
eigval :     1188.15  1189.58  1191.40  1194.89  1216.34  1219.50
eigval :     1226.70  1231.24  1236.37  1240.53  1241.32  1257.32
eigval :     1263.31  1267.31  1268.67  1269.16  1270.12  1274.67
eigval :     1301.85  1307.59  1316.72  1322.13  1324.86  1331.29
eigval :     1336.37  1337.82  1343.37  1346.80  1350.49  1365.33
eigval :     1381.35  1387.79  1393.53  1401.68  1402.25  1402.45
eigval :     1403.75  1407.43  1414.56  1415.67  1423.24  1424.09
eigval :     1428.28  1435.16  1438.42  1464.48  1468.48  1470.45
eigval :     1471.41  1471.72  1471.83  1473.18  1475.48  1476.04
eigval :     1478.60  1484.21  1484.71  1484.89  1485.22  1491.53
eigval :     1508.42  1516.92  1527.57  1535.83  1553.58  1553.84
eigval :     1556.68  1559.06  1562.99  1581.30  1588.56  1593.13
eigval :     1597.93  2929.91  2930.46  2934.06  2937.60  2944.58
eigval :     2944.84  2948.08  2953.01  3025.86  3027.52  3027.58
eigval :     3027.95  3062.17  3067.96  3069.04  3077.39  3079.68
eigval :     3084.54  3087.56  3088.07  3089.03  3089.77  3090.41
eigval :     3091.24  3092.00  3092.13  3093.71  3093.99  3094.56
eigval :     3096.40  3099.57  3104.33  3104.60  3106.75  3107.28
eigval :     3107.70  3108.08  3109.80  3110.37  3110.77  3111.55

   temp. (K)  partition function   enthalpy   heat capacity  entropy
                                   cal/mol     cal/K/mol   cal/K/mol   J/K/mol
 298.15  VIB  0.166E+24            29697.263    182.233    185.119
         ROT  0.163E+09              888.752      2.981     40.562
         INT  0.270E+32            30586.016    185.214    225.681
         TR   0.198E+29             1481.254      4.968     45.695
         TOT                       32067.2695   190.1823   271.3759  1135.4368

       T/K    H(0)-H(T)+PV         H(T)/Eh          T*S/Eh         G(T)/Eh
   ------------------------------------------------------------------------
    298.15    0.511024E-01    0.809910E+00    0.128939E+00    0.680971E+00
   ------------------------------------------------------------------------

         :::::::::::::::::::::::::::::::::::::::::::::::::::::
         ::                  THERMODYNAMIC                  ::
         :::::::::::::::::::::::::::::::::::::::::::::::::::::
         :: total free energy        -152.317811711854 Eh   ::
         ::.................................................::
         :: total energy             -152.998782703764 Eh   ::
         :: zero point energy           0.758807991827 Eh   ::
         :: G(RRHO) w/o ZPVE           -0.077836999917 Eh   ::
         :: G(RRHO) contrib.            0.680970991910 Eh   ::
         :::::::::::::::::::::::::::::::::::::::::::::::::::::

           -------------------------------------------------
          | TOTAL ENERGY             -152.998782703764 Eh   |
          | TOTAL ENTHALPY           -152.188872265219 Eh   |
          | TOTAL FREE ENERGY        -152.317811711854 Eh   |
          | GRADIENT NORM               0.000101730457 Eh/α |
           -------------------------------------------------

 * finished run on 2025/09/12 at 21:06:01.772
