   * xtb version 6.7.1 (edcfbbe) compiled by 'albert@albert-system' on 2024-07-22

   ID    Z sym.   atoms
    1    6 C      1-14, 16-20, 22-26, 28-44, 46-50, 52-68, 70-72
    2    7 N      15, 21, 27, 45, 51, 69
    3    1 H      73-126

          program call               : xtb data2507/gas/2MeCZ-TRZ/2MeCZ-TRZ.xyz --gfn 2 --ohess vtight --parallel 40 --molden --ceasefiles --namespace data2507/gas/2MeCZ-TRZ/2MeCZ-TRZ_gas_S0_preOpt
          :  Hamiltonian                  GFN2-xTB          :
 * total energy  :  -186.5901696 Eh     change       -0.2227011E-08 Eh
 * total energy  :  -186.6110521 Eh     change       -0.2088247E-01 Eh
 * total energy  :  -186.6160711 Eh     change       -0.5019071E-02 Eh
 * total energy  :  -186.6172441 Eh     change       -0.1172939E-02 Eh
 * total energy  :  -186.6181337 Eh     change       -0.8896200E-03 Eh
 * total energy  :  -186.6185360 Eh     change       -0.4023101E-03 Eh
 * total energy  :  -186.6187659 Eh     change       -0.2298699E-03 Eh
 * total energy  :  -186.6189235 Eh     change       -0.1575704E-03 Eh
 * total energy  :  -186.6190405 Eh     change       -0.1170294E-03 Eh
 * total energy  :  -186.6191502 Eh     change       -0.1096986E-03 Eh
 * total energy  :  -186.6198550 Eh     change       -0.5803146E-06 Eh
 * total energy  :  -186.6198553 Eh     change       -0.3778682E-06 Eh
 * total energy  :  -186.6198556 Eh     change       -0.2068809E-06 Eh
 * total energy  :  -186.6198557 Eh     change       -0.1639776E-06 Eh
 * total energy  :  -186.6198559 Eh     change       -0.2245791E-06 Eh
 * total energy  :  -186.6198562 Eh     change       -0.3100759E-06 Eh
 * total energy  :  -186.6198566 Eh     change       -0.3288809E-06 Eh
 * total energy  :  -186.6198569 Eh     change       -0.3492413E-06 Eh
 * total energy  :  -186.6198569 Eh     change       -0.9002463E-08 Eh
   *** GEOMETRY OPTIMIZATION CONVERGED AFTER 68 ITERATIONS ***

 final structure:
================
126
 xtb: 6.7.1 (edcfbbe)
C           11.03713164050896        0.57865275323769        3.04038312036994
C            9.84910239926732        0.83180083556742        2.15977839994089
C            8.59025745597427        0.36832490688105        2.55786158568571
C            7.45887477163600        0.56237140089931        1.79178395089856
C            7.60203709848381        1.23076261275678        0.58449393260547
C            8.85671867173083        1.73736996942709        0.17904483925025
C            9.97831533888128        1.52748505370458        0.97097505539743
C            8.63464308659504        2.42913967824338       -1.05989672909824
C            9.46468594006460        3.11697678740716       -1.93600920719813
C            8.92616444715638        3.68123247848189       -3.07850062836173
C            9.78786582950753        4.43535637703134       -4.04794100386743
C            7.55821500115015        3.54482891586706       -3.34080962957175
C            6.71031543212056        2.86503076659280       -2.49038573262294
C            7.25513062688395        2.31430974035755       -1.33995070198624
N            6.64633550231160        1.57293773408933       -0.34833785222098
C            5.28312079258999        1.24128139573986       -0.30004832033009
C            4.34131754092287        2.26569582949759       -0.23446584114824
C            2.99574679047381        1.97589766797026       -0.17679594057856
C            2.57474448796801        0.64743452803790       -0.18391121580166
C            1.15159310853807        0.32336559470423       -0.11007838736190
N            0.80240356792237       -0.96013907884404       -0.11101008654109
C           -0.50231961254001       -1.20857563690521       -0.03593335426483
C           -0.93610056886455       -2.60391208441921       -0.03222453392723
C           -2.28744348795108       -2.92057229150781        0.09369222173752
C           -2.68024913572560       -4.24084712131958        0.10831281195489
C           -1.73773712805832       -5.26062274446377       -0.00471479598782
N           -2.17339972403680       -6.59457203114229        0.02203313462676
C           -1.82199944432631       -7.54880267795113        0.95297898896330
C           -1.04068189175959       -7.42534459266063        2.09273412333542
C           -0.86383952582340       -8.54754345521160        2.87622546143714
C           -1.45282449753339       -9.77716442248209        2.56152002015022
C           -1.21184047887941      -10.95696109445473        3.45651387136526
C           -2.25941266526053       -9.88389110606615        1.44257905312183
C           -2.45504509794226       -8.77087047503271        0.63499925175933
C           -3.23652617897457       -8.52867783282005       -0.54558610756074
C           -4.06067452768298       -9.32549626392443       -1.33021709066925
C           -4.68343186842611       -8.77487586696740       -2.43599215034179
C           -5.58590426561874       -9.59963328915612       -3.30567066727556
C           -4.46871672306187       -7.42911930941382       -2.75453851669548
C           -3.65333793129864       -6.61466235970425       -1.99561469738067
C           -3.04428489280196       -7.17010964651381       -0.88021554856884
C           -0.37956004751197       -4.95826986278171       -0.16826551142371
C            0.63565842253586       -6.03910368190432       -0.38128848292264
C           -0.00107556343252       -3.62662462736383       -0.16797751896534
N           -1.43669448025392       -0.26505491638180        0.03833693758716
C           -0.99845372247883        0.99071271560623        0.03078613580275
C           -1.98832016728678        2.06246047758510        0.11043906486249
C           -3.34495672011038        1.76169507832765        0.21737517605323
C           -4.26531913828665        2.78304149977844        0.30409033010205
C           -3.85023398292210        4.11280376275470        0.28399021842867
N           -4.81491031126601        5.12762092899517        0.38326450975321
C           -5.84632873163702        5.34132370659633       -0.50784090268446
C           -6.15728449540675        4.66244759636363       -1.67661466411662
C           -7.24082969472758        5.10504490242588       -2.40752876761633
C           -8.01073465710303        6.20381118797589       -2.00926172601185
C           -9.17697448284408        6.62704253035064       -2.85296345176518
C           -7.68549023265056        6.88469036142892       -0.84980530154287
C           -6.60155604237414        6.45994765793704       -0.09189744057204
C           -6.00099277856607        6.92514898590149        1.12709068190265
C           -6.30171099647247        7.95303407251717        2.01155682532820
C           -5.52901427825478        8.11904413157114        3.14705235945469
C           -5.81687861271272        9.22072364566652        4.12400092124524
C           -4.47095153048190        7.23893858776818        3.39978253168984
C           -4.14935312056167        6.20903675816764        2.53934348176901
C           -4.90674116187520        6.07002306245994        1.38530665928999
C           -2.49355145260403        4.43198157655296        0.14134467307229
C           -2.03922333424107        5.85498846069659        0.02908957175107
C           -1.58132777681510        3.39333712964111        0.06688756268856
N            0.28563692480951        1.33048190463153       -0.04297263898341
C            3.51938246250381       -0.37154341366256       -0.27294949507694
C            4.87476758077417       -0.09816695560349       -0.34178536348142
C            5.86959190459618       -1.20712274951622       -0.49837900468602
H           11.93551486666374        1.02108189867654        2.61762097492203
H           11.20138805392526       -0.49206503338664        3.15930420590563
H           10.87488587719401        1.00170793712965        4.03121336761787
H            8.50511197741469       -0.15220114200254        3.50122978938046
H            6.49124192973388        0.22358745730100        2.13148316245936
H           10.93929021606054        1.91178709580140        0.66173572498410
H           10.52017906608806        3.20655575860260       -1.72451757043445
H            9.43625498509641        5.46143278798875       -4.15178456943241
H           10.82210173405983        4.45614296241523       -3.71397724141607
H            9.75056327871179        3.97036437506755       -5.03266604023214
H            7.15765649312897        3.98651791493740       -4.24211871501631
H            5.65867678795824        2.76250590708357       -2.71392637781622
H            4.68572988175443        3.28949781328313       -0.21841909124501
H            2.25797220881865        2.75954350002018       -0.11707064629888
H           -3.00655063958252       -2.12301758090353        0.18732875105315
H           -3.72206816700856       -4.50443089400328        0.21842364203797
H           -0.60277238118531       -6.47778904347710        2.36984851719565
H           -0.25692062479167       -8.47765309831644        3.76780698592572
H           -1.74250476902681      -11.83400165678597        3.09491793110460
H           -0.14821962159139      -11.18955610926434        3.50181718591692
H           -1.54801205074528      -10.74148399931860        4.47030360935093
H           -2.74015698217071      -10.82031254685650        1.20012053458775
H           -4.20992661925099      -10.36493435069126       -1.07701829385820
H           -6.59287627569688       -9.18320847332528       -3.31181949862858
H           -5.63826522406940      -10.62529899557195       -2.94950606575324
H           -5.22337239168475       -9.60676324331168       -4.33310710153432
H           -4.95840992762780       -7.01924518996686       -3.62636438616145
H           -3.49234207024615       -5.58055273544544       -2.26219822496458
H            1.50996106973897       -5.63826458281658       -0.88805259359020
H            0.21728753806604       -6.84619094972699       -0.98029124312127
H            0.95821291294575       -6.46744352491158        0.56738084438752
H            1.03701170077410       -3.35861671293343       -0.29072526969709
H           -3.65331721649048        0.72900372893411        0.23901164334534
H           -5.31962806775548        2.56790026605259        0.39983768221964
H           -5.56925805871939        3.81798074268750       -2.00446485333026
H           -7.50644602616596        4.59065047862972       -3.32007289522125
H           -9.66551860372904        7.50134583447102       -2.43045353535938
H           -9.90781240081545        5.82184504546466       -2.92325703700532
H           -8.84915808851914        6.86701022799505       -3.86394879674680
H           -8.26517047134145        7.73986735889671       -0.53441367841327
H           -7.13636486608773        8.60993694798526        1.81499731685311
H           -6.68154695373588        9.80086097547277        3.81198552329821
H           -4.96120354492587        9.89068599002085        4.20490687498430
H           -6.01253570055089        8.81105042994281        5.11442183564692
H           -3.89379328773879        7.36986248285742        4.30415309963675
H           -3.34827726112253        5.52169393647290        2.76799541662344
H           -1.93603779524952        6.31271875441104        1.01262595345273
H           -1.07519433659695        5.90292457142525       -0.47104175723415
H           -2.76080454319342        6.44516671203452       -0.53331953129597
H           -0.52862920915692        3.60371921205429       -0.04298112950681
H            3.17040840516905       -1.39226639330517       -0.30152386549699
H            5.38645128316009       -2.09010496264288       -0.90911194878656
H            6.31201031242661       -1.47548566542515        0.46066780102140
H            6.67966393125578       -0.90541937975030       -1.16024787046396

          :  Hamiltonian                  GFN2-xTB          :
         :: gradient norm              0.000057738333 Eh/a0 ::
         :: HOMO-LUMO gap              1.877083182879 eV    ::
         :: SCC energy              -189.987967204815 Eh    ::
         :: -> dispersion             -0.169504417807 Eh    ::
         :: repulsion energy           3.368110268072 Eh    ::

    * Orbital Energies and Occupations

         #    Occupation            Energy/Eh            Energy/eV
      -------------------------------------------------------------
         1        2.0000           -0.6811637             -18.5354
       ...           ...                  ...                  ...
       162        2.0000           -0.4012533             -10.9187
       163        2.0000           -0.4008661             -10.9081
       164        2.0000           -0.3936607             -10.7121
       165        2.0000           -0.3933915             -10.7047
       166        2.0000           -0.3930266             -10.6948
       167        2.0000           -0.3711084             -10.0984
       168        2.0000           -0.3708460             -10.0912
       169        2.0000           -0.3704720             -10.0811
       170        2.0000           -0.3691598             -10.0453
       171        2.0000           -0.3688004             -10.0356
       172        2.0000           -0.3548206              -9.6552
       173        2.0000           -0.3545206              -9.6470
       174        2.0000           -0.3540861              -9.6352 (HOMO)
       175                         -0.2851046              -7.7581 (LUMO)
       176                         -0.2850283              -7.7560
       177                         -0.2475925              -6.7373
       178                         -0.2390574              -6.5051
       179                         -0.2387263              -6.4961
       180                         -0.2376198              -6.4660
       181                         -0.2299052              -6.2560
       182                         -0.2294960              -6.2449
       183                         -0.2291086              -6.2344
       184                         -0.2141505              -5.8273
       185                         -0.2138828              -5.8200
       ...                                ...                  ...
       342                          0.7481443              20.3580
      -------------------------------------------------------------
                  HL-Gap            0.0689815 Eh            1.8771 eV

     #   Z          covCN         q      C6AA      α(0)
     1   6 C        3.758    -0.107    22.597     6.777
     2   6 C        2.966     0.006    27.888     8.662
     3   6 C        2.930    -0.044    29.095     8.846
     4   6 C        2.908    -0.052    29.296     8.875
     5   6 C        3.081     0.043    26.943     8.509
     6   6 C        3.067    -0.020    28.424     8.742
     7   6 C        2.917    -0.043    29.077     8.843
     8   6 C        3.067    -0.020    28.427     8.743
     9   6 C        2.917    -0.044    29.081     8.843
    10   6 C        2.966     0.006    27.886     8.662
    11   6 C        3.758    -0.107    22.598     6.777
    12   6 C        2.930    -0.043    29.078     8.843
    13   6 C        2.908    -0.053    29.309     8.877
    14   6 C        3.083     0.041    26.980     8.515
    15   7 N        2.804    -0.044    22.080     6.979
    16   6 C        2.917     0.060    26.662     8.467
    17   6 C        2.921    -0.042    29.033     8.836
    18   6 C        2.923    -0.029    28.722     8.789
    19   6 C        2.982    -0.005    28.139     8.701
    20   6 C        2.982     0.202    23.714     7.988
    21   7 N        1.844    -0.297    28.544     7.918
    22   6 C        2.983     0.202    23.712     7.988
    23   6 C        2.983    -0.005    28.140     8.702
    24   6 C        2.923    -0.029    28.719     8.788
    25   6 C        2.921    -0.042    29.033     8.836
    26   6 C        2.917     0.060    26.661     8.467
    27   7 N        2.804    -0.043    22.076     6.978
    28   6 C        3.081     0.043    26.943     8.509
    29   6 C        2.908    -0.052    29.295     8.875
    30   6 C        2.930    -0.044    29.095     8.846
    31   6 C        2.966     0.006    27.888     8.662
    32   6 C        3.758    -0.107    22.597     6.777
    33   6 C        2.917    -0.043    29.077     8.843
    34   6 C        3.067    -0.019    28.424     8.742
    35   6 C        3.067    -0.020    28.427     8.743
    36   6 C        2.917    -0.044    29.081     8.843
    37   6 C        2.966     0.006    27.885     8.662
    38   6 C        3.758    -0.107    22.598     6.777
    39   6 C        2.930    -0.043    29.077     8.843
    40   6 C        2.908    -0.053    29.308     8.877
    41   6 C        3.083     0.041    26.980     8.515
    42   6 C        2.965     0.010    27.802     8.649
    43   6 C        3.757    -0.108    22.611     6.780
    44   6 C        2.930    -0.035    28.882     8.814
    45   7 N        1.844    -0.296    28.529     7.916
    46   6 C        2.983     0.202    23.710     7.987
    47   6 C        2.983    -0.005    28.141     8.702
    48   6 C        2.923    -0.029    28.720     8.788
    49   6 C        2.921    -0.042    29.033     8.836
    50   6 C        2.917     0.060    26.660     8.467
    51   7 N        2.804    -0.043    22.076     6.978
    52   6 C        3.083     0.042    26.980     8.515
    53   6 C        2.908    -0.053    29.308     8.877
    54   6 C        2.930    -0.043    29.078     8.843
    55   6 C        2.966     0.006    27.886     8.662
    56   6 C        3.758    -0.107    22.597     6.777
    57   6 C        2.917    -0.044    29.082     8.843
    58   6 C        3.067    -0.020    28.427     8.743
    59   6 C        3.067    -0.020    28.424     8.742
    60   6 C        2.917    -0.043    29.077     8.843
    61   6 C        2.966     0.006    27.888     8.662
    62   6 C        3.758    -0.107    22.597     6.777
    63   6 C        2.930    -0.044    29.094     8.846
    64   6 C        2.908    -0.052    29.294     8.875
    65   6 C        3.081     0.043    26.942     8.509
    66   6 C        2.965     0.010    27.797     8.648
    67   6 C        3.757    -0.108    22.614     6.780
    68   6 C        2.930    -0.035    28.881     8.813
    69   7 N        1.844    -0.297    28.537     7.917
    70   6 C        2.930    -0.035    28.883     8.814
    71   6 C        2.965     0.010    27.799     8.648
    72   6 C        3.757    -0.108    22.612     6.780
    73   1 H        0.925     0.039     2.468     2.457
    74   1 H        0.925     0.042     2.424     2.435
    75   1 H        0.925     0.042     2.424     2.435
    76   1 H        0.926     0.028     2.615     2.529
    77   1 H        0.926     0.024     2.677     2.558
    78   1 H        0.926     0.029     2.595     2.519
    79   1 H        0.926     0.029     2.596     2.520
    80   1 H        0.925     0.042     2.421     2.433
    81   1 H        0.925     0.039     2.468     2.457
    82   1 H        0.925     0.042     2.423     2.434
    83   1 H        0.926     0.029     2.603     2.523
    84   1 H        0.926     0.025     2.662     2.551
    85   1 H        0.926     0.045     2.385     2.415
    86   1 H        0.926     0.058     2.218     2.329
    87   1 H        0.926     0.059     2.213     2.326
    88   1 H        0.926     0.045     2.381     2.413
    89   1 H        0.926     0.024     2.675     2.558
    90   1 H        0.926     0.028     2.615     2.529
    91   1 H        0.925     0.039     2.468     2.457
    92   1 H        0.925     0.042     2.426     2.436
    93   1 H        0.925     0.042     2.423     2.434
    94   1 H        0.926     0.029     2.595     2.519
    95   1 H        0.926     0.029     2.597     2.520
    96   1 H        0.925     0.042     2.419     2.432
    97   1 H        0.925     0.039     2.468     2.457
    98   1 H        0.925     0.042     2.425     2.435
    99   1 H        0.926     0.029     2.602     2.522
   100   1 H        0.926     0.025     2.658     2.549
   101   1 H        0.925     0.047     2.359     2.402
   102   1 H        0.925     0.048     2.347     2.395
   103   1 H        0.925     0.056     2.250     2.346
   104   1 H        0.926     0.059     2.209     2.324
   105   1 H        0.926     0.059     2.214     2.327
   106   1 H        0.926     0.045     2.382     2.413
   107   1 H        0.926     0.025     2.659     2.550
   108   1 H        0.926     0.029     2.603     2.523
   109   1 H        0.925     0.039     2.469     2.457
   110   1 H        0.925     0.042     2.420     2.433
   111   1 H        0.925     0.042     2.425     2.435
   112   1 H        0.926     0.029     2.597     2.520
   113   1 H        0.926     0.029     2.596     2.520
   114   1 H        0.925     0.039     2.468     2.457
   115   1 H        0.925     0.042     2.424     2.435
   116   1 H        0.925     0.042     2.424     2.435
   117   1 H        0.926     0.028     2.615     2.529
   118   1 H        0.926     0.024     2.675     2.558
   119   1 H        0.925     0.056     2.248     2.345
   120   1 H        0.925     0.047     2.351     2.398
   121   1 H        0.925     0.048     2.346     2.395
   122   1 H        0.926     0.060     2.202     2.321
   123   1 H        0.926     0.059     2.206     2.323
   124   1 H        0.925     0.047     2.358     2.401
   125   1 H        0.925     0.056     2.249     2.345
   126   1 H        0.925     0.048     2.345     2.395

molecular dipole:
                 x           y           z       tot (Debye)
 q only:        0.392      -0.127      -0.078
   full:        0.352      -0.115      -0.048       0.949

 projected vibrational frequencies (cm⁻¹)
eigval :       -0.00    -0.00     0.00     0.00     0.00     0.00
eigval :        3.32     5.08     5.20     7.63    11.74    11.86
eigval :       19.26    19.39    29.02    40.67    40.94    41.39
eigval :       41.61    42.01    42.14    42.78    43.37    44.08
eigval :       46.34    47.47    51.14    80.83    81.19    82.56
eigval :       89.96    90.80    91.19    92.99    93.05    93.39
eigval :      111.03   112.59   113.36   117.49   121.86   126.29
eigval :      147.66   149.80   152.49   155.87   156.01   164.17
eigval :      166.32   189.09   189.43   195.89   199.39   214.43
eigval :      226.05   226.09   226.22   251.02   266.93   271.36
eigval :      281.15   292.59   293.44   296.67   300.66   315.23
eigval :      315.64   321.71   321.81   321.83   340.02   347.63
eigval :      352.06   355.51   359.92   365.13   379.65   384.85
eigval :      394.07   395.09   396.49   401.84   403.42   410.24
eigval :      415.59   416.65   425.98   426.44   427.19   429.21
eigval :      434.50   447.81   460.87   463.87   468.81   476.01
eigval :      491.78   497.30   499.84   502.22   526.32   526.72
eigval :      527.68   528.70   550.72   554.77   560.93   565.03
eigval :      573.79   573.79   573.81   574.40   579.71   583.34
eigval :      593.49   596.42   601.23   621.68   621.76   624.31
eigval :      658.48   658.76   659.51   660.43   670.77   670.82
eigval :      670.84   679.24   688.79   706.38   706.40   706.52
eigval :      709.32   709.38   733.44   733.49   735.51   768.24
eigval :      769.83   782.13   798.89   798.95   799.40   811.63
eigval :      811.68   811.78   816.62   816.68   816.75   841.75
eigval :      842.46   843.66   864.74   874.20   874.23   874.27
eigval :      877.56   877.57   877.67   885.53   888.81   891.15
eigval :      909.88   910.00   910.19   911.26   912.17   914.31
eigval :      914.50   914.63   921.24   921.32   922.28   923.64
eigval :      927.78   927.89   928.12   954.90   955.20   956.49
eigval :      972.13   975.62  1009.69  1009.71  1009.75  1013.08
eigval :     1016.64  1016.86  1017.23  1018.37  1021.30  1032.26
eigval :     1032.51  1032.60  1033.78  1033.83  1033.84  1034.05
eigval :     1034.08  1034.10  1041.08  1041.11  1041.13  1049.65
eigval :     1096.47  1099.18  1099.45  1107.21  1136.71  1138.07
eigval :     1146.21  1154.91  1154.95  1155.04  1156.43  1160.26
eigval :     1171.72  1171.75  1171.86  1188.90  1191.04  1192.53
eigval :     1204.77  1204.82  1204.88  1208.57  1217.68  1228.19
eigval :     1228.70  1236.97  1238.21  1242.94  1250.05  1254.60
eigval :     1255.49  1255.71  1256.49  1260.08  1292.76  1294.23
eigval :     1294.67  1314.99  1315.18  1315.25  1325.10  1327.13
eigval :     1328.77  1349.04  1351.74  1352.78  1356.43  1359.05
eigval :     1364.21  1364.89  1364.95  1365.00  1383.80  1385.38
eigval :     1397.53  1406.09  1406.10  1406.16  1406.22  1406.23
eigval :     1406.27  1408.56  1408.62  1409.32  1416.92  1417.26
eigval :     1417.58  1421.72  1424.87  1429.94  1439.74  1441.43
eigval :     1444.39  1474.65  1475.32  1475.96  1479.18  1479.28
eigval :     1479.38  1480.53  1480.61  1480.67  1481.21  1481.88
eigval :     1482.15  1483.86  1483.86  1484.00  1484.04  1484.04
eigval :     1484.14  1490.78  1492.32  1495.57  1497.66  1497.74
eigval :     1497.77  1505.91  1505.94  1506.33  1510.52  1512.66
eigval :     1562.02  1564.36  1567.03  1572.59  1572.75  1573.19
eigval :     1585.51  1585.65  1585.76  1591.65  1592.06  1593.34
eigval :     1609.30  1609.33  1609.36  1621.78  1621.84  1621.96
eigval :     3001.44  3001.53  3001.54  3001.77  3001.86  3001.95
eigval :     3005.22  3005.33  3005.40  3014.58  3014.79  3014.80
eigval :     3015.01  3015.04  3015.08  3028.72  3028.78  3029.18
eigval :     3044.40  3044.41  3044.43  3044.50  3044.65  3044.71
eigval :     3044.75  3044.94  3045.05  3072.04  3072.09  3072.14
eigval :     3073.75  3073.83  3073.96  3077.85  3077.94  3077.96
eigval :     3081.32  3081.45  3081.55  3084.43  3084.53  3084.61
eigval :     3085.11  3085.25  3085.51  3086.60  3086.75  3086.91
eigval :     3100.89  3102.04  3103.05  3113.54  3114.44  3115.54

   temp. (K)  partition function   enthalpy   heat capacity  entropy
                                   cal/mol     cal/K/mol   cal/K/mol   J/K/mol
 298.15  VIB  0.177E+36            39345.343    229.026    256.275
         ROT  0.545E+09              888.752      2.981     42.957
         INT  0.965E+44            40234.096    232.006    299.232
         TR   0.275E+29             1481.254      4.968     46.348
         TOT                       41715.3498   236.9746   345.5801  1445.9069

       T/K    H(0)-H(T)+PV         H(T)/Eh          T*S/Eh         G(T)/Eh
   ------------------------------------------------------------------------
    298.15    0.664776E-01    0.106328E+01    0.164196E+00    0.899081E+00
   ------------------------------------------------------------------------

         :::::::::::::::::::::::::::::::::::::::::::::::::::::
         ::                  THERMODYNAMIC                  ::
         :::::::::::::::::::::::::::::::::::::::::::::::::::::
         :: total free energy        -185.720775819015 Eh   ::
         ::.................................................::
         :: total energy             -186.619856936744 Eh   ::
         :: zero point energy           0.996799711142 Eh   ::
         :: G(RRHO) w/o ZPVE           -0.097718593413 Eh   ::
         :: G(RRHO) contrib.            0.899081117729 Eh   ::
         :::::::::::::::::::::::::::::::::::::::::::::::::::::

           -------------------------------------------------
          | TOTAL ENERGY             -186.619856936744 Eh   |
          | TOTAL ENTHALPY           -185.556579584276 Eh   |
          | TOTAL FREE ENERGY        -185.720775819015 Eh   |
          | GRADIENT NORM               0.000057734736 Eh/α |
          | HOMO-LUMO GAP               1.877083259048 eV   |
           -------------------------------------------------

 * finished run on 2025/08/25 at 16:11:51.206
