   * xtb version 6.7.1 (edcfbbe) compiled by 'albert@albert-system' on 2024-07-22

   ID    Z sym.   atoms
    1    6 C      1-14, 16-20, 22-26, 28-44, 46-50, 52-68, 70-72
    2    7 N      15, 21, 27, 45, 51, 69
    3    1 H      73-126

          program call               : xtb data2507/gas/2MeCZ-TRZ/2MeCZ-TRZ_gas_T1_crest.xyz --gfn 2 --spinpol --tblite --uhf 2 --ohess vtight --parallel 40 --molden --ceasefiles --namespace data2507/gas/2MeCZ-TRZ/2MeCZ-TRZ_gas_T1_finalOpt
 * total energy  :  -186.5456228 Eh     change       -0.8722955E-07 Eh
 * total energy  :  -186.5456484 Eh     change       -0.2565773E-04 Eh
 * total energy  :  -186.5456603 Eh     change       -0.1190151E-04 Eh
 * total energy  :  -186.5456627 Eh     change       -0.2373863E-05 Eh
 * total energy  :  -186.5456789 Eh     change       -0.1616028E-04 Eh
 * total energy  :  -186.5455843 Eh     change        0.9457256E-04 Eh
 * total energy  :  -186.5457109 Eh     change       -0.1265783E-03 Eh
 * total energy  :  -186.5457254 Eh     change       -0.1454121E-04 Eh
 * total energy  :  -186.5449467 Eh     change        0.7786830E-03 Eh
 * total energy  :  -186.5457441 Eh     change       -0.7973536E-03 Eh
 * total energy  :  -186.5459347 Eh     change        0.3469831E-06 Eh
 * total energy  :  -186.5459349 Eh     change       -0.1416016E-06 Eh
 * total energy  :  -186.5459350 Eh     change       -0.1077138E-06 Eh
 * total energy  :  -186.5459352 Eh     change       -0.1631005E-06 Eh
 * total energy  :  -186.5459355 Eh     change       -0.3763098E-06 Eh
 * total energy  :  -186.5459357 Eh     change       -0.1211523E-06 Eh
 * total energy  :  -186.5459359 Eh     change       -0.2208299E-06 Eh
 * total energy  :  -186.5459358 Eh     change        0.5525840E-07 Eh
 * total energy  :  -186.5459359 Eh     change       -0.9900580E-07 Eh
   *** GEOMETRY OPTIMIZATION CONVERGED AFTER 65 ITERATIONS ***

 final structure:
================
126
 xtb: 6.7.1 (edcfbbe)
C            1.92529892108536       10.84619281124617       -3.35213430117157
C            1.45140815890567        9.77527414226233       -2.41563503193605
C            1.56735146672338        8.43284543779574       -2.79565357700582
C            1.15171372070944        7.40019912160120       -1.98085125011908
C            0.60900329062977        7.73037479279223       -0.74629318859301
C            0.47480439356817        9.07979020259835       -0.34414461976274
C            0.89992660681841       10.09750793425272       -1.18582398584337
C           -0.12764142078690        9.05283514468657        0.96082053349055
C           -0.49149665719541       10.03474161154069        1.87092831517506
C           -1.04013482484117        9.66283356595498        3.08782902736076
C           -1.44955978338037       10.69408177925297        4.09644701724382
C           -1.20596835075536        8.30601109662358        3.38967365341776
C           -0.85375195930860        7.30823238858984        2.50452188156868
C           -0.32762598316511        7.68872647833074        1.27693407160529
N            0.10986788057288        6.90715718578354        0.23489674836692
C            0.06686184730910        5.49982756814917        0.17763433352835
C            1.26422848341443        4.78472605028073        0.15939953767567
C            1.25674044832991        3.41204959007133        0.11178944586767
C            0.03822294699729        2.71612816699478        0.08046333904515
C            0.01585712799017        1.28402855514195        0.04137589491958
N           -1.13887943822410        0.63778963681693        0.00094644432692
C           -1.14781226359803       -0.68484083536300       -0.03800656648754
C           -2.39123657509939       -1.39609069252928       -0.07792143866408
C           -2.41175138480658       -2.79905329123044       -0.11013325350036
C           -3.61017359447817       -3.46858892629061       -0.15629876829965
C           -4.81485398379785       -2.76569024321627       -0.17196849742890
N           -6.02601733461339       -3.48388233046401       -0.22489278381643
C           -6.92738911019723       -3.47812981482228       -1.26212048225494
C           -6.85665951792403       -2.83119705169586       -2.48891217064966
C           -7.90503651129763       -3.00526099482127       -3.36857164590778
C           -9.00952005607504       -3.80888010722074       -3.06222647530826
C          -10.11561261013754       -3.94894983441766       -4.06490310213163
C           -9.06166390729397       -4.47177133190731       -1.84650005798648
C           -8.02138740473365       -4.31562170696201       -0.94192023305534
C           -7.74528540942686       -4.85910621954779        0.36000119496495
C           -8.42383852147379       -5.72761972680585        1.20274240323030
C           -7.86733721331802       -6.05736716783169        2.42828178602955
C           -8.56757514985040       -6.99545039030671        3.36536248092388
C           -6.63549999208627       -5.50784825235628        2.80320906065186
C           -5.93920687124746       -4.64043750939070        1.98724805372072
C           -6.49810479944277       -4.32272162574616        0.75665279168706
C           -4.82106164077807       -1.36352879324230       -0.11121621238910
C           -6.11437609375425       -0.60697295966178       -0.05396580281538
C           -3.61149209020373       -0.70321417830235       -0.07246151852077
N            0.02225574359453       -1.39738147364182       -0.04545831794450
C            1.15122343006512       -0.71426065247698        0.00555888202959
C            2.41048192934484       -1.45939879801846        0.00968693316375
C            2.40493145098921       -2.85205493955905       -0.03632051552785
C            3.59830040198108       -3.54036874324087       -0.03960901284520
C            4.80890310680569       -2.85328857033548        0.00448165685635
N            6.00898089319506       -3.58657283732173       -0.00509979790524
C            6.40939630959142       -4.47500300430467        0.96865103271896
C            5.77480643397587       -4.83417202230620        2.14912511113945
C            6.41243203498239       -5.74161863471650        2.96996647812819
C            7.65964188821443       -6.28976604965763        2.64882154837815
C            8.29286086230448       -7.27262504789148        3.58828187445025
C            8.29207593538463       -5.91705751472932        1.47491113338899
C            7.67318445071113       -5.00763098719527        0.62793861895803
C            8.03611565907728       -4.41585095886866       -0.63027827028077
C            9.12923776919398       -4.55386814584044       -1.47474165027455
C            9.16142718786803       -3.84643530888522       -2.66447852424886
C           10.32633161318638       -3.96461956222546       -3.60178990253626
C            8.08704354395219       -3.01816923524433       -3.00830767582009
C            6.98778979993498       -2.86176346881268       -2.18903102250268
C            6.97608883760528       -3.55072005108727       -0.98428174709822
C            4.83225026962322       -1.45520810181632        0.08191975029699
C            6.12537043178990       -0.70906983607541        0.20749116015491
C            3.62400113718238       -0.77989592589011        0.07372920204309
N            1.20497484680921        0.60368462883983        0.05313295284463
C           -1.15793202750922        3.45006425195360        0.07625090002379
C           -1.16385711051918        4.82797718826117        0.11684829857961
C           -2.45085926884016        5.59541051378292        0.06246599786224
H            1.39417335422018       10.78396608869942       -4.30148195873513
H            2.98845657844983       10.72708223018117       -3.55914601469118
H            1.76352599557077       11.83402995453265       -2.92842617981977
H            1.99560577135347        8.20409886007007       -3.76099446118675
H            1.24170509455228        6.36935070764823       -2.28900219276740
H            0.79991820305490       11.12987297233910       -0.88401372861126
H           -0.34302654802339       11.07795623848987        1.63321998782338
H           -1.25121718572888       11.69796607501280        3.72988016375367
H           -2.51326581165377       10.60893011906821        4.31710577899440
H           -0.90539413475834       10.55102009041143        5.02952112991002
H           -1.61920776739538        8.03714266571808        4.35131097011182
H           -0.96734753058637        6.26546397619575        2.76100479420814
H            2.19634970415529        5.33078363489260        0.19380182487041
H            2.17683743515071        2.84965892185094        0.10336090997351
H           -1.47485277255810       -3.33303676622039       -0.10382624308202
H           -3.63795480239971       -4.54846765035968       -0.19124884804639
H           -6.00111023738888       -2.22601386507083       -2.74931849251996
H           -7.87560388544042       -2.51160176082883       -4.32941923985311
H           -9.73202502371465       -4.35453121964884       -5.00062616609959
H          -10.89568203874795       -4.60928018597602       -3.69483899286741
H          -10.55764736484211       -2.97687568545848       -4.28187884978542
H           -9.90042428953677       -5.10834145826921       -1.60547430765573
H           -9.37654541145068       -6.14055419158870        0.90492897677133
H           -8.76326091486334       -6.50559066090268        4.31874500357361
H           -7.94668459864554       -7.86879820487332        3.56316606410347
H           -9.51322810065452       -7.33048231856528        2.94702434813416
H           -6.22211824525037       -5.77420027404680        3.76537133384003
H           -4.99268751799288       -4.21950563050359        2.29154133895728
H           -6.81562592251201       -1.09631517411051        0.62090981774177
H           -6.58312121597762       -0.55805162618032       -1.03675889742081
H           -5.94191637835177        0.40843900144215        0.29336578383695
H           -3.58288077044909        0.37467313767752       -0.02304963349438
H            1.46065181891613       -3.37144869859144       -0.07585989529365
H            3.61242850011771       -4.61968529515321       -0.08550024148666
H            4.81591428318835       -4.41508048245035        2.41549412021845
H            5.93830350015526       -6.04084826507967        3.89371107523786
H            7.65442088581847       -8.14710092996336        3.71079075720834
H            8.43294163358066       -6.82410812893898        4.57130687722774
H            9.26007756640323       -7.59983614441453        3.21552333163677
H            9.25804113816139       -6.32679503733269        1.21841028150644
H            9.94229823888357       -5.21238031333819       -1.20634813632048
H           11.07223729558322       -4.65184059768366       -3.21083278419353
H           10.79491194066549       -2.99219464588631       -3.75083822127532
H            9.99690781532790       -4.32660375390755       -4.57522313226661
H            8.12163090492316       -2.49065691194189       -3.95086544368596
H            6.15595210736869       -2.23919603444116       -2.48347605508613
H            6.81865793641073       -1.24724961359350        0.85202936194811
H            6.60436085309689       -0.59045553260695       -0.76425857088406
H            5.95011800958432        0.27965757967872        0.62369784414400
H            3.60453214989170        0.29789343549975        0.13229781875417
H           -2.08800258350426        2.90449741291047        0.02707550621931
H           -2.71802182604557        5.98157972255064        1.04610092692487
H           -3.25754612196999        4.95449382792042       -0.28383282276416
H           -2.36207320729406        6.44625609557774       -0.61197236351178

 projected vibrational frequencies (cm⁻¹)
eigval :       -0.00    -0.00    -0.00    -0.00     0.00     0.00
eigval :        5.02     6.91     7.00     7.35    10.95    11.34
eigval :       19.28    19.32    29.17    37.60    37.89    38.15
eigval :       38.20    39.21    39.89    41.19    42.28    43.77
eigval :       44.40    45.49    49.48    81.46    82.80    85.53
eigval :       90.23    90.83    91.20    91.92    92.68    93.81
eigval :      106.23   108.69   109.60   113.32   119.11   121.86
eigval :      143.88   151.15   153.19   154.34   158.76   164.05
eigval :      165.31   177.98   185.73   193.78   204.55   223.97
eigval :      224.42   225.19   225.81   241.78   263.31   268.77
eigval :      278.15   288.77   293.50   296.44   297.67   316.31
eigval :      317.81   318.46   319.80   321.26   335.13   339.01
eigval :      339.46   351.86   357.63   363.68   370.80   377.82
eigval :      386.88   391.35   394.15   397.19   398.55   407.55
eigval :      408.21   411.85   420.44   422.70   423.63   424.29
eigval :      428.03   434.52   446.17   455.32   458.83   469.84
eigval :      477.99   482.61   487.47   493.90   519.38   524.48
eigval :      526.31   527.53   550.62   552.56   553.34   561.20
eigval :      564.94   568.49   573.59   573.74   573.93   574.09
eigval :      577.08   581.29   600.50   601.65   607.58   616.63
eigval :      621.56   624.52   633.28   635.85   640.61   666.61
eigval :      671.40   672.45   672.56   674.70   677.24   683.07
eigval :      698.69   706.67   707.22   707.37   724.53   727.62
eigval :      734.00   739.35   752.20   795.34   795.49   797.78
eigval :      812.01   812.34   812.38   816.33   816.48   816.64
eigval :      820.64   821.61   837.80   839.88   864.44   869.55
eigval :      871.70   871.78   873.05   874.46   874.47   876.14
eigval :      885.31   897.46   905.83   906.21   907.47   910.25
eigval :      911.13   911.69   912.12   914.02   914.13   914.23
eigval :      917.41   919.33   925.95   925.98   927.45   944.81
eigval :      952.79   954.64   956.25   961.32   985.35  1008.88
eigval :     1008.90  1009.45  1013.85  1015.69  1016.23  1016.54
eigval :     1016.95  1020.88  1031.31  1031.34  1031.45  1031.49
eigval :     1032.13  1032.27  1032.32  1032.73  1032.89  1039.34
eigval :     1039.39  1040.31  1081.93  1094.80  1100.74  1103.88
eigval :     1120.71  1137.27  1142.62  1145.48  1149.05  1149.10
eigval :     1152.59  1155.61  1168.59  1168.76  1170.52  1184.07
eigval :     1185.52  1190.46  1204.06  1204.85  1205.02  1205.21
eigval :     1213.69  1228.66  1229.01  1235.33  1238.20  1243.66
eigval :     1246.96  1253.38  1253.40  1254.35  1255.84  1273.52
eigval :     1288.93  1292.14  1293.56  1302.14  1302.49  1309.46
eigval :     1323.38  1325.52  1326.95  1341.96  1349.22  1352.39
eigval :     1354.03  1354.20  1354.84  1355.91  1360.11  1364.18
eigval :     1375.99  1379.74  1405.05  1405.10  1405.19  1405.33
eigval :     1405.56  1405.65  1405.77  1408.11  1408.39  1408.84
eigval :     1415.85  1416.45  1416.61  1419.10  1423.50  1433.41
eigval :     1439.74  1441.32  1444.38  1468.47  1468.53  1470.03
eigval :     1473.97  1475.80  1477.46  1477.52  1478.86  1480.16
eigval :     1481.65  1481.66  1481.75  1481.79  1481.85  1482.28
eigval :     1482.66  1482.85  1483.91  1484.91  1485.15  1491.59
eigval :     1491.60  1494.07  1494.33  1503.71  1503.79  1505.09
eigval :     1524.41  1525.60  1557.15  1564.63  1564.71  1568.55
eigval :     1569.00  1575.16  1580.48  1580.51  1582.85  1588.59
eigval :     1592.27  1592.36  1600.74  1606.88  1609.91  1614.57
eigval :     3000.79  3001.01  3001.62  3001.63  3001.80  3001.81
eigval :     3001.90  3002.13  3003.68  3015.16  3015.22  3015.30
eigval :     3015.32  3015.39  3015.55  3019.38  3019.52  3025.74
eigval :     3044.98  3045.12  3045.12  3045.14  3045.22  3045.33
eigval :     3045.90  3046.13  3046.57  3074.30  3075.35  3075.62
eigval :     3075.67  3076.00  3076.07  3077.17  3077.32  3078.51
eigval :     3078.56  3078.72  3081.56  3081.68  3082.07  3083.39
eigval :     3086.24  3087.86  3087.98  3088.38  3090.31  3090.49
eigval :     3092.91  3094.45  3095.26  3104.01  3104.45  3107.75

   temp. (K)  partition function   enthalpy   heat capacity  entropy
                                   cal/mol     cal/K/mol   cal/K/mol   J/K/mol
 298.15  VIB  0.226E+36            39851.388    231.872    258.113
         ROT  0.548E+09              888.752      2.981     42.968
         INT  0.124E+45            40740.140    234.853    301.081
         TR   0.275E+29             1481.254      4.968     46.348
         TOT                       42221.3938   239.8214   347.4285  1453.6407

       T/K    H(0)-H(T)+PV         H(T)/Eh          T*S/Eh         G(T)/Eh
   ------------------------------------------------------------------------
    298.15    0.672841E-01    0.105693E+01    0.165074E+00    0.891859E+00
   ------------------------------------------------------------------------

         :::::::::::::::::::::::::::::::::::::::::::::::::::::
         ::                  THERMODYNAMIC                  ::
         :::::::::::::::::::::::::::::::::::::::::::::::::::::
         :: total free energy        -185.654076684930 Eh   ::
         ::.................................................::
         :: total energy             -186.545935963280 Eh   ::
         :: zero point energy           0.989649677766 Eh   ::
         :: G(RRHO) w/o ZPVE           -0.097790399416 Eh   ::
         :: G(RRHO) contrib.            0.891859278350 Eh   ::
         :::::::::::::::::::::::::::::::::::::::::::::::::::::

           -------------------------------------------------
          | TOTAL ENERGY             -186.545935963280 Eh   |
          | TOTAL ENTHALPY           -185.489002211623 Eh   |
          | TOTAL FREE ENERGY        -185.654076684930 Eh   |
          | GRADIENT NORM               0.000185545201 Eh/α |
           -------------------------------------------------

 * finished run on 2025/08/25 at 16:45:13.014
