   * xtb version 6.7.1 (edcfbbe) compiled by 'albert@albert-system' on 2024-07-22

   ID    Z sym.   atoms
    1    6 C      1-14, 16-20, 22-26, 28-44, 46-50, 52-68, 70-72
    2    7 N      15, 21, 27, 45, 51, 69
    3    1 H      73-126

          program call               : xtb data2507/gas/2MeCZ-TRZ/2MeCZ-TRZ_gas_S0_finalOpt.xtbopt.xyz --gfn 2 --spinpol --tblite --uhf 2 --ohess vtight --parallel 40 --molden --ceasefiles --namespace data2507/gas/2MeCZ-TRZ/2MeCZ-TRZ_gas_T1_preOpt
 * total energy  :  -186.5432575 Eh     change        0.4132517E-10 Eh
 * total energy  :  -186.5449504 Eh     change       -0.1692850E-02 Eh
 * total energy  :  -186.5455390 Eh     change       -0.5886686E-03 Eh
 * total energy  :  -186.5455664 Eh     change       -0.2741837E-04 Eh
 * total energy  :  -186.5455913 Eh     change       -0.2486553E-04 Eh
 * total energy  :  -186.5455999 Eh     change       -0.8620239E-05 Eh
 * total energy  :  -186.5456183 Eh     change       -0.1832788E-04 Eh
 * total energy  :  -186.5456231 Eh     change       -0.4873639E-05 Eh
 * total energy  :  -186.5456364 Eh     change       -0.1324870E-04 Eh
 * total energy  :  -186.5456417 Eh     change       -0.5285905E-05 Eh
 * total energy  :  -186.5459187 Eh     change       -0.2876169E-06 Eh
 * total energy  :  -186.5459190 Eh     change       -0.2923562E-06 Eh
 * total energy  :  -186.5459192 Eh     change       -0.1983113E-06 Eh
 * total energy  :  -186.5459197 Eh     change       -0.5094630E-06 Eh
 * total energy  :  -186.5459207 Eh     change       -0.1050713E-05 Eh
 * total energy  :  -186.5459209 Eh     change       -0.2119649E-06 Eh
 * total energy  :  -186.5459212 Eh     change       -0.3108952E-06 Eh
 * total energy  :  -186.5459217 Eh     change       -0.4468259E-06 Eh
 * total energy  :  -186.5459218 Eh     change       -0.8248139E-07 Eh
   *** GEOMETRY OPTIMIZATION CONVERGED AFTER 68 ITERATIONS ***

 final structure:
================
126
 xtb: 6.7.1 (edcfbbe)
C            5.12702257814145        9.80302725517491        3.26141290349055
C            4.33747907946218        8.91665653072700        2.34522919972558
C            4.06897777498845        7.59813791174160        2.73116662676478
C            3.35360790938468        6.73010401003496        1.93247759974893
C            2.90391934081231        7.20108852377179        0.70587590674915
C            3.13999301890906        8.53768235453667        0.30776958323083
C            3.86281795957367        9.38818610552405        1.13179366404681
C            2.49508736939351        8.69832710822359       -0.96690698253068
C            2.36994666237063        9.75783912355450       -1.85387844225970
C            1.66315556889147        9.57679714706736       -3.03200283429144
C            1.50158543880782       10.69840687262403       -4.01401046893864
C            1.09192439673667        8.33055169394222       -3.31574307196857
C            1.20190498636577        7.25872184863201       -2.45428148812373
C            1.90233012892073        7.45062409810263       -1.27093791677579
N            2.16912768989524        6.55720554989154       -0.26059314384570
C            1.74678923818369        5.21358875213404       -0.22566044229788
C            0.38176250319379        4.93365086888864       -0.15956753994659
C           -0.06366680955802        3.63516638545914       -0.11724921093425
C            0.85624108304732        2.57513432727960       -0.13855027054753
C            0.40645669609389        1.21610397245479       -0.08027983849498
N            1.28388507863730        0.22432385858878       -0.09423622624146
C            0.85851573884866       -1.02626160937649       -0.02019252750452
C            1.79858419181722       -2.10801418403048       -0.02180775225849
C            1.35802564075538       -3.43838871857343        0.05363484619724
C            2.26999204256697       -4.46538467842752        0.06327821588382
C            3.63786101514928       -4.19985432375930       -0.00229903584458
N            4.54581358951261       -5.27687416383927        0.01656539025542
C            5.46174170959126       -5.54750691304354        1.00468322672906
C            5.68283173665549       -4.88904845498191        2.20721145858329
C            6.66837777135034       -5.38122369457452        3.03766582966723
C            7.42706168218456       -6.51003757252282        2.70656514254697
C            8.48615584068529       -6.98630180472882        3.65516929994142
C            7.18330776511135       -7.17775194872043        1.51704728680808
C            6.19799703643068       -6.70563152893232        0.66207254553994
C            5.67800352871762       -7.15478305875147       -0.60069284692217
C            5.97982315991360       -8.21627011659757       -1.44151000385498
C            5.27026901113248       -8.37004439343040       -2.62191036482879
C            5.56354729350318       -9.50660135027537       -3.55497415551734
C            4.26615280115502       -7.45287617580772       -2.95421173186062
C            3.94585156725344       -6.38688705880713       -2.13926092778355
C            4.65381466194324       -6.24526652007924       -0.95334619954395
C            4.10154688062081       -2.87945774346030       -0.10940326782014
C            5.56590367132171       -2.59230211274183       -0.25642383717785
C            3.17637286959974       -1.85732899667174       -0.10939557142791
N           -0.47870744499611       -1.31231346277524        0.05854585231631
C           -1.32102417682770       -0.29497839324337        0.04430576083263
C           -2.75426859086495       -0.58321179449469        0.10163347681313
C           -3.20548048678383       -1.89910927422524        0.18308553539435
C           -4.55767220159824       -2.15527066977245        0.24487925054666
C           -5.47569348277089       -1.10815424445336        0.22301455688638
N           -6.84867208009303       -1.40403517712223        0.29513523799316
C           -7.56051108965702       -2.12952942154179       -0.63488201897050
C           -7.13098024876911       -2.70125874705096       -1.82395774626757
C           -8.06631001165005       -3.36376051550170       -2.59214241316765
C           -9.40936158183993       -3.46326549225078       -2.21074109371640
C          -10.37043609104625       -4.20111494848024       -3.09479863749037
C           -9.83276312465962       -2.87948549307911       -1.02888424483243
C           -8.91326554523958       -2.20865760192819       -0.23388485063274
C           -9.00689209600832       -1.50623160739419        1.01622821155325
C          -10.04703646872951       -1.26017438440578        1.90210975577965
C           -9.79327577025867       -0.55977818677873        3.06912193661166
C          -10.89042158159626       -0.26960664544084        4.04974276828765
C           -8.49243288569891       -0.12608043539338        3.34896527710109
C           -7.43943113235819       -0.35636691648227        2.48750875344103
C           -7.70714583144636       -1.03272618164354        1.30551800728265
C           -5.04081550747537        0.21813554541532        0.10827228951173
C           -6.02005960291466        1.34721804686269        0.00333009747411
C           -3.67833424665879        0.45738228451741        0.05957771872094
N           -0.93892710209900        0.96690364584619       -0.01310724239085
C            2.22500924724270        2.87189046036559       -0.22731535958634
C            2.68444079077098        4.17059545029396       -0.28016810911348
C            4.14750009806973        4.46375249754915       -0.42852870845856
H            6.11978847188424        9.38675441601661        3.43066258559410
H            4.63362890887475        9.88655585942128        4.22924674225906
H            5.23664114115321       10.79930908303325        2.84081645518441
H            4.43199989502435        7.25606202944073        3.68981806656963
H            3.13496117512624        5.72304174744904        2.25494042436396
H            4.04809146584256       10.40889058695465        0.83066515997914
H            2.82047032078842       10.71296805376758       -1.62667789725536
H            1.91360025383874       10.41840725522795       -4.98303378260072
H            0.44627232686560       10.92914913320858       -4.15712472652221
H            2.00825671582218       11.59558716935372       -3.66778763779538
H            0.54957025827826        8.20952725864483       -4.24246272877986
H            0.76142444366199        6.30132348081499       -2.68887675934070
H           -0.31690779663588        5.75784693572151       -0.13171742454228
H           -1.11642412088006        3.40874597365514       -0.05927663809050
H            0.29881022367044       -3.63291860802201        0.11024901245715
H            1.94280727353406       -5.49315908586559        0.13231589020479
H            5.09048876228258       -4.03094857825422        2.48786362666723
H            6.86176698237599       -4.88625517008550        3.97862982712823
H            9.23865962423023       -6.21242326314123        3.80457426200876
H            8.05098796487266       -7.21698283354625        4.62706268563236
H            8.97754352501224       -7.87810838884320        3.27476540989382
H            7.74994370079000       -8.06031878971527        1.25853029811995
H            6.76098103485572       -8.91397655949232       -1.17720992977254
H            5.84573280779746       -9.12952188517081       -4.53749760518186
H            4.68020447741264      -10.13196986879987       -3.68154459867993
H            6.37325840093424      -10.12408553256470       -3.17471382043271
H            3.72868935424223       -7.58840531605201       -3.88176457897409
H            3.17300488594507       -5.68368335971302       -2.41106228603954
H            5.71558735006354       -1.58708793489846       -0.64198969236382
H            6.03046405923193       -3.30417160345679       -0.93756722012580
H            6.07868998607044       -2.67101355542022        0.70213772499466
H            3.50131854259668       -0.83128119806412       -0.19160422583025
H           -2.48390707027448       -2.70027776643423        0.20456916202397
H           -4.92413667234600       -3.16879310959704        0.32044250962052
H           -6.10006266513317       -2.62739288696848       -2.13670683949212
H           -7.75721229486347       -3.82110100200463       -3.52109100093371
H          -11.37519317699745       -4.17988028518377       -2.68061710724140
H          -10.06319735895097       -5.24061101826163       -3.20620713631169
H          -10.39449985724502       -3.75424207349702       -4.08818219203805
H          -10.86772129505803       -2.94237740608362       -0.72609838623227
H          -11.04220617566664       -1.61860144235459        1.68321906788814
H          -11.83618453211272       -0.68326544063664        3.70928931764158
H          -11.00918911016736        0.80567124397482        4.18048476866390
H          -10.65429284107861       -0.69788165627348        5.02334829169273
H           -8.31076372485464        0.40061237349334        4.27495417737517
H           -6.43715310603539       -0.03811949034745        2.73318633159252
H           -6.39032150832230        1.63676767428279        0.98660551075967
H           -5.54690508332821        2.21403605068224       -0.45089246463971
H           -6.87935039867103        1.05613733091823       -0.59881459945656
H           -3.30783486888546        1.46762840443165       -0.02752790501540
H            2.92131073027684        2.04812125476746       -0.26785105460928
H            4.67550052490518        3.57881397029071       -0.77441879891540
H            4.58352381750193        4.77282837241443        0.52138736575023
H            4.30711534826525        5.27112342518144       -1.14210871817281

 projected vibrational frequencies (cm⁻¹)
eigval :       -0.00    -0.00    -0.00     0.00     0.00     0.00
eigval :        5.13     6.46     7.11     7.37    11.19    11.38
eigval :       19.21    19.58    29.23    37.40    37.56    37.87
eigval :       37.97    39.25    39.71    41.36    42.44    43.41
eigval :       44.72    46.00    49.70    81.40    82.44    85.45
eigval :       89.88    90.37    90.93    91.84    92.40    93.70
eigval :      107.76   108.02   109.62   113.37   119.03   122.18
eigval :      144.47   151.68   152.55   154.66   161.19   162.24
eigval :      165.40   178.20   186.28   193.62   204.80   224.02
eigval :      224.39   225.23   225.90   240.43   263.57   269.00
eigval :      277.63   289.23   293.65   295.33   298.32   316.04
eigval :      318.20   318.45   319.75   321.19   334.73   339.27
eigval :      339.62   351.68   357.81   363.61   370.77   377.64
eigval :      387.17   391.84   394.10   396.58   400.14   404.66
eigval :      409.59   411.99   420.03   422.89   423.85   424.74
eigval :      427.89   434.64   444.42   456.44   462.34   466.41
eigval :      477.26   482.62   487.47   494.05   519.43   524.59
eigval :      526.33   527.53   550.29   550.48   555.66   558.71
eigval :      562.75   569.57   573.70   573.75   573.90   575.07
eigval :      577.09   580.51   600.76   601.25   609.81   616.38
eigval :      621.54   624.61   633.96   635.75   637.07   666.25
eigval :      671.46   672.48   672.50   675.78   675.94   682.86
eigval :      698.54   706.69   707.23   707.41   724.40   727.61
eigval :      733.97   739.30   751.84   795.40   795.55   797.76
eigval :      811.93   812.29   812.35   816.42   816.44   816.62
eigval :      820.68   821.58   837.32   838.52   864.54   869.36
eigval :      871.65   871.73   872.95   874.42   874.46   876.03
eigval :      884.74   895.40   905.73   906.16   907.33   910.12
eigval :      910.97   911.81   911.99   914.06   914.15   914.26
eigval :      917.23   919.12   925.95   926.02   927.42   945.09
eigval :      952.74   954.69   956.01   961.17   984.63  1008.79
eigval :     1008.81  1009.37  1013.84  1015.59  1016.10  1016.37
eigval :     1016.77  1020.82  1031.23  1031.23  1031.38  1031.40
eigval :     1031.91  1032.16  1032.23  1032.64  1032.80  1039.31
eigval :     1039.35  1040.26  1081.86  1094.54  1100.79  1103.70
eigval :     1120.38  1136.88  1142.35  1145.12  1148.97  1149.02
eigval :     1152.46  1155.35  1168.40  1168.57  1170.31  1184.11
eigval :     1185.41  1190.22  1203.89  1204.68  1204.88  1205.00
eigval :     1213.39  1228.50  1229.06  1235.24  1238.16  1243.58
eigval :     1246.65  1253.32  1253.34  1254.18  1255.65  1273.49
eigval :     1288.73  1292.35  1293.43  1302.11  1302.27  1309.43
eigval :     1323.24  1325.52  1326.98  1342.04  1349.47  1352.59
eigval :     1354.05  1354.15  1354.87  1356.37  1360.01  1364.33
eigval :     1375.55  1379.68  1404.90  1404.91  1405.05  1405.08
eigval :     1405.34  1405.50  1405.56  1407.97  1408.24  1408.82
eigval :     1415.66  1416.28  1416.46  1419.03  1423.21  1433.16
eigval :     1439.53  1441.25  1444.09  1468.27  1468.37  1469.71
eigval :     1473.82  1475.63  1477.23  1477.27  1478.67  1480.36
eigval :     1481.21  1481.46  1481.49  1481.60  1481.64  1481.98
eigval :     1482.39  1482.54  1483.83  1484.70  1484.81  1491.37
eigval :     1491.38  1493.92  1494.11  1503.52  1503.55  1504.93
eigval :     1524.21  1525.58  1556.95  1564.61  1564.74  1568.24
eigval :     1568.86  1574.93  1580.36  1580.56  1582.78  1588.46
eigval :     1592.33  1592.35  1600.76  1607.56  1609.75  1614.56
eigval :     3000.92  3001.08  3001.45  3001.47  3001.70  3001.72
eigval :     3001.87  3002.09  3003.75  3015.00  3015.09  3015.16
eigval :     3015.22  3015.30  3015.47  3019.96  3019.99  3025.79
eigval :     3044.86  3044.91  3044.95  3045.07  3045.10  3045.18
eigval :     3045.21  3045.58  3046.10  3074.30  3075.16  3075.48
eigval :     3075.51  3075.78  3075.90  3077.03  3077.13  3078.33
eigval :     3078.35  3078.56  3081.36  3081.47  3081.88  3083.15
eigval :     3086.29  3087.91  3088.03  3088.25  3090.31  3090.39
eigval :     3092.66  3094.33  3094.85  3103.65  3104.23  3107.46

   temp. (K)  partition function   enthalpy   heat capacity  entropy
                                   cal/mol     cal/K/mol   cal/K/mol   J/K/mol
 298.15  VIB  0.228E+36            39854.318    231.898    258.123
         ROT  0.548E+09              888.752      2.981     42.966
         INT  0.125E+45            40743.070    234.879    301.089
         TR   0.275E+29             1481.254      4.968     46.348
         TOT                       42224.3242   239.8469   347.4371  1453.6769

       T/K    H(0)-H(T)+PV         H(T)/Eh          T*S/Eh         G(T)/Eh
   ------------------------------------------------------------------------
    298.15    0.672887E-01    0.105686E+01    0.165079E+00    0.891777E+00
   ------------------------------------------------------------------------

         :::::::::::::::::::::::::::::::::::::::::::::::::::::
         ::                  THERMODYNAMIC                  ::
         :::::::::::::::::::::::::::::::::::::::::::::::::::::
         :: total free energy        -185.654144637867 Eh   ::
         ::.................................................::
         :: total energy             -186.545921842121 Eh   ::
         :: zero point energy           0.989567043400 Eh   ::
         :: G(RRHO) w/o ZPVE           -0.097789839145 Eh   ::
         :: G(RRHO) contrib.            0.891777204254 Eh   ::
         :::::::::::::::::::::::::::::::::::::::::::::::::::::

           -------------------------------------------------
          | TOTAL ENERGY             -186.545921842121 Eh   |
          | TOTAL ENTHALPY           -185.489066054954 Eh   |
          | TOTAL FREE ENERGY        -185.654144637867 Eh   |
          | GRADIENT NORM               0.000126124197 Eh/α |
           -------------------------------------------------

 * finished run on 2025/08/25 at 16:22:50.513
