   * xtb version 6.7.1 (edcfbbe) compiled by 'albert@albert-system' on 2024-07-22

   ID    Z sym.   atoms
    1    6 C      1-14, 16-20, 22-26, 28-44, 46-50, 52-68, 70-72
    2    7 N      15, 21, 27, 45, 51, 69
    3    1 H      73-126

          program call               : xtb data2507/gas/2MeCZ-TRZ/2MeCZ-TRZ_gas_S0_crest.xyz --gfn 2 --ohess vtight --parallel 40 --molden --ceasefiles --namespace data2507/gas/2MeCZ-TRZ/2MeCZ-TRZ_gas_S0_finalOpt
          :  Hamiltonian                  GFN2-xTB          :
 * total energy  :  -186.6198299 Eh     change       -0.1482135E-08 Eh
 * total energy  :  -186.6198323 Eh     change       -0.2385784E-05 Eh
 * total energy  :  -186.6198336 Eh     change       -0.1270298E-05 Eh
 * total energy  :  -186.6198364 Eh     change       -0.2865319E-05 Eh
 * total energy  :  -186.6198386 Eh     change       -0.2132467E-05 Eh
 * total energy  :  -186.6198401 Eh     change       -0.1557202E-05 Eh
 * total energy  :  -186.6198415 Eh     change       -0.1419665E-05 Eh
 * total energy  :  -186.6198429 Eh     change       -0.1364505E-05 Eh
 * total energy  :  -186.6198440 Eh     change       -0.1070860E-05 Eh
 * total energy  :  -186.6198451 Eh     change       -0.1087147E-05 Eh
 * total energy  :  -186.6198566 Eh     change       -0.3003702E-06 Eh
 * total energy  :  -186.6198568 Eh     change       -0.2145803E-06 Eh
 * total energy  :  -186.6198570 Eh     change       -0.2325702E-06 Eh
 * total energy  :  -186.6198573 Eh     change       -0.2307648E-06 Eh
 * total energy  :  -186.6198576 Eh     change       -0.2820733E-06 Eh
 * total energy  :  -186.6198579 Eh     change       -0.3209491E-06 Eh
 * total energy  :  -186.6198581 Eh     change       -0.2115878E-06 Eh
 * total energy  :  -186.6198582 Eh     change       -0.1002761E-06 Eh
 * total energy  :  -186.6198582 Eh     change       -0.2591639E-07 Eh
   *** GEOMETRY OPTIMIZATION CONVERGED AFTER 37 ITERATIONS ***

 final structure:
================
126
 xtb: 6.7.1 (edcfbbe)
C            5.30646981322339        9.70599684685921        3.19225618239353
C            4.47127134015944        8.83924789450276        2.29663874256367
C            4.20673469756362        7.51827053534030        2.67479666969259
C            3.45062450693880        6.66725084349942        1.89471895933032
C            2.95826315720103        7.15690559174459        0.69363417727097
C            3.18349834503716        8.49708832236944        0.30844865487560
C            3.94794706314373        9.33113620665502        1.11420653448543
C            2.47966240487839        8.68804587506551       -0.92894324460749
C            2.32892853132001        9.76813844685028       -1.78939761845072
C            1.56778029351857        9.62136068191596       -2.93518847436471
C            1.37674689360754       10.76453098764845       -3.88792365180018
C            0.96876355936320        8.38822557192318       -3.21665150389201
C            1.10345083351629        7.29745932922927       -2.38217691356299
C            1.85621698477019        7.45658590155976       -1.22821277719352
N            2.16806932407198        6.53530235722680       -0.24965726750292
C            1.74000711891362        5.19871046749700       -0.22234880928323
C            0.37460307186688        4.92822201381029       -0.16535097131052
C           -0.07977007396574        3.62823315507144       -0.12747469441177
C            0.83441970766572        2.57653363936833       -0.14538952873918
C            0.36872248764220        1.19223353116951       -0.09392503660501
N            1.28242205937031        0.22554595768963       -0.09229257529109
C            0.81366410489577       -1.01859245654661       -0.04670279190108
C            1.77850437667253       -2.11605476394041       -0.04355310214447
C            1.34040881988511       -3.43830930871684        0.00034228190055
C            2.26188876603302       -4.46226344256790        0.01506534896893
C            3.62697075144967       -4.18575369496933       -0.01432502851030
N            4.53779449964304       -5.25347104504969        0.01312136368317
C            5.48045142131064       -5.49508330520800        0.98966246799978
C            5.71546432203721       -4.81774706028304        2.17741718105380
C            6.71872635245955       -5.28934823472141        2.99933488749586
C            7.47904182860926       -6.41852133831749        2.67559732108646
C            8.55810283471251       -6.87085344145801        3.61474176648701
C            7.21589024148227       -7.10919448452547        1.50610539313240
C            6.21212734090044       -6.65724769403403        0.65908143754441
C            5.66789098469681       -7.14173822554416       -0.57869329863892
C            5.96477758246225       -8.22315474358386       -1.39852746913948
C            5.23559099080928       -8.41527365570897       -2.55830669179208
C            5.52085136584615       -9.57401001028011       -3.46769726392774
C            4.21765001597691       -7.51560821594152       -2.89459126061173
C            3.90257940766933       -6.43129127692657       -2.10136694243330
C            4.62835752632482       -6.25370027101252       -0.93289417220512
C            4.08284773099763       -2.86339650518252       -0.09409775721047
C            5.54335865514020       -2.55311149078651       -0.21563145633601
C            3.14350703410577       -1.84651107344484       -0.09736428862792
N           -0.47960964662957       -1.32548439837940       -0.00171612694356
C           -1.32294324193433       -0.29694920452699       -0.00250794647712
C           -2.75434419728966       -0.58466410954069        0.05393537651640
C           -3.20532865635648       -1.90110338827906        0.13089653866621
C           -4.55745307638024       -2.15625954982372        0.19784221547844
C           -5.47599993008765       -1.10891856439168        0.18796535306721
N           -6.84576645662800       -1.40467240660489        0.26983131927659
C           -7.55959536266393       -2.15531134518646       -0.64144185201060
C           -7.13408903125218       -2.75244402729480       -1.81872724245751
C           -8.07169100548953       -3.43127527121238       -2.56994337952413
C           -9.41372769504844       -3.52193557456765       -2.18343059770470
C          -10.37732277943915       -4.27878271717983       -3.04932769123748
C           -9.83340189352760       -2.91151558667325       -1.01511059448528
C           -8.91105896077734       -2.22353455300091       -0.23686434212680
C           -9.00360541457957       -1.49239151913050        0.99595833094654
C          -10.04383011187732       -1.22966829176933        1.87811388905492
C           -9.79048825058078       -0.50646257743076        3.02996283453846
C          -10.88744028806465       -0.19661209327169        4.00549675550404
C           -8.48940969417944       -0.06865357233641        3.30105073285680
C           -7.43675775088297       -0.31508827116946        2.44334869781307
C           -7.70504727792964       -1.01072330806078        1.27334498572372
C           -5.04039532441628        0.21784693580632        0.07450326150809
C           -6.01787911554813        1.34836079550556       -0.02743545166306
C           -3.67795160949431        0.45679875184424        0.01930863419476
N           -0.94293562921504        0.97707569514843       -0.04935586329059
C            2.19672011312429        2.85260347654086       -0.22605116685667
C            2.67025939677534        4.15252590468586       -0.27581422933466
C            4.13565185089030        4.42512586279516       -0.42532785851804
H            6.29912528979151        9.27539068988797        3.32124530099895
H            4.84945818526925        9.78785682218204        4.17797786415504
H            5.41407401620105       10.70459832237370        2.77659951319529
H            4.60392658973463        7.15946975069931        3.61375702771422
H            3.23194797429196        5.66058838417412        2.21920400963053
H            4.12412863415938       10.35554440569320        0.82038540005526
H            2.80441118656820       10.71132574142258       -1.56329470115759
H            1.75144103025882       10.50292813433135       -4.87707383081430
H            0.31864121888421       11.00522003180897       -3.98669300637679
H            1.90232254623814       11.65090829264568       -3.54193874940438
H            0.38384099240501        8.29141025392816       -4.12019786897755
H            0.64113674205771        6.35095303048416       -2.62050734435901
H           -0.31957639680662        5.75558418377877       -0.14025051143148
H           -1.13334507963444        3.40643190196370       -0.07487015188739
H            0.28181813326000       -3.63945838336758        0.03023133597544
H            1.93999296674752       -5.49244908443235        0.06091105013088
H            5.11932503327403       -3.96274348359611        2.46035512591617
H            6.92295442116711       -4.77716248659052        3.92890995338453
H            9.30921431988858       -6.09068089252383        3.73569718782508
H            8.14194050101515       -7.08637587430495        4.59836267673186
H            9.04743489008425       -7.76699777876614        3.24188048914387
H            7.77845046571706       -7.99629497865463        1.25437408996457
H            6.75911612491967       -8.90426925095004       -1.13031913876579
H            5.77913830161869       -9.22112551539820       -4.46564745246177
H            4.64205898515555      -10.21190813875925       -3.55824934028790
H            6.34483535437016      -10.17265694156865       -3.08786787513114
H            3.66413884327302       -7.67858711498438       -3.80834617362351
H            3.11938870834964       -5.74250154187666       -2.38167722069283
H            5.68301834177440       -1.57148407507574       -0.66140981829510
H            6.04358693342814       -3.29759666416572       -0.83276330970509
H            6.02808363197930       -2.55655333646240        0.76034373487829
H            3.46029436520157       -0.81663407537319       -0.15656157176163
H           -2.48457598754128       -2.70253222036336        0.14602223476971
H           -4.92390758938269       -3.16988861496589        0.27051847600076
H           -6.10436489797594       -2.68568688791544       -2.13748730334940
H           -7.76468563871317       -3.90893042202135       -3.48945107140144
H          -11.37954033593229       -4.25411270044550       -2.62914869503884
H          -10.06706891034094       -5.31892739138320       -3.14504655034418
H          -10.40972645607563       -3.84857617921371       -4.04986014246587
H          -10.86773476546062       -2.96554985586724       -0.70840754819129
H          -11.03834070049066       -1.59460664402682        1.66699254865274
H          -11.83308755466692       -0.61759427999779        3.67371217172677
H          -11.00700908966094        0.88107432441522        4.11406873924852
H          -10.65115286464146       -0.60500265779695        4.98759323761275
H           -8.30647903781992        0.47389766520832        4.21773558984783
H           -6.43401548592764        0.00461156085517        2.68581178863403
H           -6.37344101437780        1.65001350836493        0.95749655715800
H           -5.54917518061340        2.20882422870159       -0.49824753183861
H           -6.88668329541523        1.05245928338788       -0.61313693377182
H           -3.30811122328992        1.46684257422495       -0.06756276497135
H            2.88598473623737        2.02320479218229       -0.26457676734563
H            4.63770996804256        3.55851751715515       -0.84809765973109
H            4.59365571556836        4.64830564532866        0.53797337714921
H            4.30212498188872        5.28332940580537       -1.07423650329561

          :  Hamiltonian                  GFN2-xTB          :
         :: gradient norm              0.000094270486 Eh/a0 ::
         :: HOMO-LUMO gap              1.876573019347 eV    ::
         :: SCC energy              -189.987931061750 Eh    ::
         :: -> dispersion             -0.169502483417 Eh    ::
         :: repulsion energy           3.368072852140 Eh    ::

    * Orbital Energies and Occupations

         #    Occupation            Energy/Eh            Energy/eV
      -------------------------------------------------------------
         1        2.0000           -0.6811777             -18.5358
       ...           ...                  ...                  ...
       162        2.0000           -0.4012523             -10.9186
       163        2.0000           -0.4008657             -10.9081
       164        2.0000           -0.3936837             -10.7127
       165        2.0000           -0.3933611             -10.7039
       166        2.0000           -0.3930243             -10.6947
       167        2.0000           -0.3711394             -10.0992
       168        2.0000           -0.3708122             -10.0903
       169        2.0000           -0.3704745             -10.0811
       170        2.0000           -0.3691770             -10.0458
       171        2.0000           -0.3688119             -10.0359
       172        2.0000           -0.3548448              -9.6558
       173        2.0000           -0.3544959              -9.6463
       174        2.0000           -0.3540879              -9.6352 (HOMO)
       175                         -0.2851252              -7.7587 (LUMO)
       176                         -0.2850649              -7.7570
       177                         -0.2476154              -6.7380
       178                         -0.2390715              -6.5055
       179                         -0.2387203              -6.4959
       180                         -0.2376272              -6.4662
       181                         -0.2299137              -6.2563
       182                         -0.2294972              -6.2449
       183                         -0.2291071              -6.2343
       184                         -0.2141798              -5.8281
       185                         -0.2138541              -5.8193
       ...                                ...                  ...
       342                          0.7481505              20.3582
      -------------------------------------------------------------
                  HL-Gap            0.0689627 Eh            1.8766 eV

     #   Z          covCN         q      C6AA      α(0)
     1   6 C        3.758    -0.107    22.597     6.777
     2   6 C        2.966     0.006    27.888     8.662
     3   6 C        2.930    -0.044    29.095     8.846
     4   6 C        2.908    -0.052    29.296     8.875
     5   6 C        3.081     0.043    26.943     8.509
     6   6 C        3.067    -0.020    28.424     8.742
     7   6 C        2.917    -0.043    29.077     8.843
     8   6 C        3.067    -0.020    28.427     8.743
     9   6 C        2.917    -0.044    29.081     8.843
    10   6 C        2.966     0.006    27.885     8.662
    11   6 C        3.758    -0.107    22.598     6.777
    12   6 C        2.930    -0.043    29.078     8.843
    13   6 C        2.908    -0.053    29.309     8.877
    14   6 C        3.083     0.041    26.980     8.515
    15   7 N        2.804    -0.043    22.079     6.979
    16   6 C        2.917     0.060    26.662     8.467
    17   6 C        2.921    -0.042    29.034     8.836
    18   6 C        2.923    -0.029    28.722     8.789
    19   6 C        2.982    -0.005    28.139     8.701
    20   6 C        2.982     0.202    23.713     7.988
    21   7 N        1.844    -0.297    28.544     7.918
    22   6 C        2.982     0.202    23.712     7.988
    23   6 C        2.982    -0.005    28.140     8.702
    24   6 C        2.923    -0.029    28.719     8.788
    25   6 C        2.921    -0.042    29.031     8.836
    26   6 C        2.917     0.060    26.661     8.467
    27   7 N        2.804    -0.043    22.077     6.978
    28   6 C        3.081     0.043    26.942     8.509
    29   6 C        2.908    -0.052    29.296     8.875
    30   6 C        2.930    -0.044    29.096     8.846
    31   6 C        2.966     0.006    27.889     8.662
    32   6 C        3.758    -0.107    22.597     6.777
    33   6 C        2.917    -0.043    29.077     8.843
    34   6 C        3.067    -0.019    28.424     8.742
    35   6 C        3.067    -0.020    28.427     8.743
    36   6 C        2.917    -0.044    29.081     8.843
    37   6 C        2.966     0.006    27.885     8.662
    38   6 C        3.758    -0.107    22.598     6.777
    39   6 C        2.930    -0.043    29.077     8.843
    40   6 C        2.908    -0.053    29.308     8.877
    41   6 C        3.083     0.042    26.980     8.515
    42   6 C        2.965     0.010    27.801     8.649
    43   6 C        3.757    -0.108    22.612     6.780
    44   6 C        2.930    -0.035    28.883     8.814
    45   7 N        1.844    -0.296    28.529     7.916
    46   6 C        2.983     0.202    23.710     7.987
    47   6 C        2.983    -0.005    28.141     8.702
    48   6 C        2.923    -0.029    28.720     8.788
    49   6 C        2.921    -0.042    29.032     8.836
    50   6 C        2.917     0.060    26.660     8.467
    51   7 N        2.804    -0.043    22.076     6.978
    52   6 C        3.083     0.042    26.979     8.515
    53   6 C        2.908    -0.053    29.308     8.877
    54   6 C        2.930    -0.043    29.078     8.843
    55   6 C        2.966     0.006    27.886     8.662
    56   6 C        3.758    -0.107    22.597     6.777
    57   6 C        2.917    -0.044    29.081     8.843
    58   6 C        3.067    -0.020    28.427     8.743
    59   6 C        3.067    -0.019    28.424     8.742
    60   6 C        2.917    -0.043    29.077     8.843
    61   6 C        2.966     0.006    27.888     8.662
    62   6 C        3.758    -0.107    22.597     6.777
    63   6 C        2.930    -0.044    29.095     8.846
    64   6 C        2.908    -0.052    29.295     8.875
    65   6 C        3.082     0.043    26.942     8.509
    66   6 C        2.965     0.010    27.796     8.648
    67   6 C        3.757    -0.108    22.615     6.780
    68   6 C        2.930    -0.035    28.881     8.813
    69   7 N        1.844    -0.297    28.536     7.917
    70   6 C        2.930    -0.035    28.882     8.814
    71   6 C        2.965     0.010    27.799     8.648
    72   6 C        3.757    -0.108    22.612     6.780
    73   1 H        0.925     0.042     2.425     2.435
    74   1 H        0.925     0.042     2.423     2.434
    75   1 H        0.925     0.039     2.468     2.457
    76   1 H        0.926     0.028     2.615     2.529
    77   1 H        0.926     0.024     2.676     2.558
    78   1 H        0.926     0.029     2.595     2.519
    79   1 H        0.926     0.029     2.596     2.520
    80   1 H        0.925     0.042     2.423     2.434
    81   1 H        0.925     0.042     2.421     2.433
    82   1 H        0.925     0.039     2.468     2.457
    83   1 H        0.926     0.029     2.603     2.523
    84   1 H        0.926     0.025     2.661     2.551
    85   1 H        0.926     0.045     2.385     2.415
    86   1 H        0.926     0.058     2.218     2.329
    87   1 H        0.926     0.059     2.212     2.326
    88   1 H        0.926     0.045     2.381     2.413
    89   1 H        0.926     0.024     2.676     2.558
    90   1 H        0.926     0.028     2.616     2.529
    91   1 H        0.925     0.042     2.426     2.436
    92   1 H        0.925     0.042     2.423     2.434
    93   1 H        0.925     0.039     2.468     2.457
    94   1 H        0.926     0.029     2.595     2.519
    95   1 H        0.926     0.029     2.597     2.520
    96   1 H        0.925     0.042     2.425     2.435
    97   1 H        0.925     0.042     2.420     2.433
    98   1 H        0.925     0.039     2.468     2.457
    99   1 H        0.926     0.029     2.602     2.523
   100   1 H        0.926     0.025     2.659     2.550
   101   1 H        0.925     0.047     2.359     2.402
   102   1 H        0.925     0.048     2.346     2.395
   103   1 H        0.925     0.056     2.249     2.345
   104   1 H        0.926     0.059     2.208     2.324
   105   1 H        0.926     0.059     2.214     2.327
   106   1 H        0.926     0.045     2.382     2.413
   107   1 H        0.926     0.025     2.659     2.550
   108   1 H        0.926     0.029     2.603     2.523
   109   1 H        0.925     0.039     2.469     2.457
   110   1 H        0.925     0.042     2.421     2.433
   111   1 H        0.925     0.042     2.424     2.435
   112   1 H        0.926     0.029     2.597     2.520
   113   1 H        0.926     0.029     2.596     2.519
   114   1 H        0.925     0.039     2.468     2.457
   115   1 H        0.925     0.042     2.425     2.435
   116   1 H        0.925     0.042     2.424     2.435
   117   1 H        0.926     0.028     2.615     2.529
   118   1 H        0.926     0.024     2.676     2.558
   119   1 H        0.925     0.056     2.248     2.344
   120   1 H        0.925     0.047     2.352     2.398
   121   1 H        0.925     0.048     2.345     2.395
   122   1 H        0.926     0.060     2.202     2.321
   123   1 H        0.926     0.059     2.207     2.323
   124   1 H        0.925     0.047     2.358     2.401
   125   1 H        0.925     0.056     2.249     2.345
   126   1 H        0.925     0.048     2.346     2.395

molecular dipole:
                 x           y           z       tot (Debye)
 q only:        0.312       0.276      -0.061
   full:        0.280       0.247      -0.034       0.952

 projected vibrational frequencies (cm⁻¹)
eigval :       -0.00    -0.00    -0.00     0.00     0.00     0.00
eigval :        3.33     5.14     5.16     7.64    11.73    11.88
eigval :       19.20    19.38    29.05    40.70    41.08    41.39
eigval :       41.43    41.46    41.60    42.77    43.54    44.00
eigval :       46.07    47.46    51.22    80.86    81.11    82.62
eigval :       90.22    91.01    91.72    92.94    93.05    93.34
eigval :      110.94   112.69   113.04   117.37   121.89   126.20
eigval :      147.54   149.83   152.21   155.86   155.93   164.18
eigval :      166.35   189.12   189.49   195.87   199.45   214.50
eigval :      226.06   226.08   226.21   250.89   266.91   271.27
eigval :      281.34   292.08   293.56   296.80   300.70   315.21
eigval :      315.61   321.71   321.73   321.87   340.03   347.61
eigval :      352.05   355.51   359.91   365.13   379.65   384.80
eigval :      394.04   395.04   396.48   401.89   403.12   410.22
eigval :      415.60   416.51   425.95   426.33   427.19   429.14
eigval :      434.49   447.98   460.69   463.86   469.01   476.09
eigval :      491.82   497.70   499.51   502.31   526.25   526.71
eigval :      527.71   528.66   550.87   554.80   560.15   565.26
eigval :      573.79   573.80   573.80   574.35   580.19   583.14
eigval :      593.51   596.46   601.23   621.68   621.79   624.29
eigval :      658.47   658.68   659.47   660.45   670.79   670.81
eigval :      670.82   679.24   688.82   706.38   706.39   706.51
eigval :      709.34   709.37   733.44   733.49   735.50   768.24
eigval :      769.82   782.05   798.89   798.93   799.39   811.63
eigval :      811.69   811.73   816.68   816.70   816.76   841.72
eigval :      842.46   843.61   864.75   874.20   874.22   874.26
eigval :      877.56   877.61   877.68   885.47   888.76   891.13
eigval :      909.88   910.02   910.16   911.20   912.20   914.35
eigval :      914.54   914.66   921.24   921.27   922.30   923.60
eigval :      927.76   927.89   928.06   954.85   955.25   956.48
eigval :      972.14   975.69  1009.67  1009.70  1009.76  1013.13
eigval :     1016.68  1016.83  1017.16  1018.45  1021.28  1032.31
eigval :     1032.57  1032.64  1033.80  1033.81  1033.83  1034.06
eigval :     1034.07  1034.09  1041.06  1041.12  1041.14  1049.66
eigval :     1096.53  1099.16  1099.40  1107.01  1136.73  1138.14
eigval :     1146.26  1154.87  1154.98  1155.01  1156.20  1160.18
eigval :     1171.72  1171.74  1171.87  1189.14  1190.95  1192.59
eigval :     1204.78  1204.80  1204.88  1208.54  1217.52  1228.12
eigval :     1228.71  1236.88  1238.16  1242.97  1249.99  1254.65
eigval :     1255.50  1255.68  1256.46  1259.96  1292.75  1294.23
eigval :     1294.68  1315.04  1315.17  1315.29  1325.07  1327.15
eigval :     1328.70  1349.01  1351.76  1352.77  1356.43  1359.04
eigval :     1364.22  1364.93  1364.96  1365.01  1383.80  1385.36
eigval :     1397.52  1406.08  1406.13  1406.15  1406.22  1406.23
eigval :     1406.26  1408.56  1408.68  1409.35  1416.91  1417.29
eigval :     1417.60  1421.71  1424.86  1429.92  1439.74  1441.44
eigval :     1444.39  1474.59  1475.24  1475.89  1479.20  1479.22
eigval :     1479.39  1480.55  1480.59  1480.66  1481.21  1481.94
eigval :     1482.17  1483.88  1483.88  1483.98  1484.01  1484.03
eigval :     1484.12  1490.77  1492.21  1495.51  1497.65  1497.71
eigval :     1497.77  1505.91  1505.94  1506.33  1510.50  1512.64
eigval :     1561.98  1564.35  1567.02  1572.60  1572.70  1573.18
eigval :     1585.52  1585.65  1585.76  1591.70  1592.07  1593.37
eigval :     1609.30  1609.32  1609.34  1621.81  1621.84  1621.94
eigval :     3001.53  3001.58  3001.61  3001.86  3001.96  3001.97
eigval :     3005.13  3005.26  3005.32  3014.67  3014.71  3014.73
eigval :     3014.95  3015.01  3015.09  3028.21  3028.53  3028.77
eigval :     3044.40  3044.42  3044.44  3044.62  3044.68  3044.76
eigval :     3044.83  3044.91  3045.37  3071.97  3072.04  3072.09
eigval :     3073.77  3073.79  3073.84  3077.87  3077.90  3077.98
eigval :     3081.35  3081.40  3081.56  3084.40  3084.44  3084.51
eigval :     3085.07  3085.23  3085.43  3086.62  3086.69  3086.86
eigval :     3100.89  3101.97  3103.02  3113.58  3114.49  3115.60

   temp. (K)  partition function   enthalpy   heat capacity  entropy
                                   cal/mol     cal/K/mol   cal/K/mol   J/K/mol
 298.15  VIB  0.180E+36            39347.348    229.005    256.266
         ROT  0.545E+09              888.752      2.981     42.958
         INT  0.979E+44            40236.101    231.986    299.224
         TR   0.275E+29             1481.254      4.968     46.348
         TOT                       41717.3546   236.9541   345.5715  1445.8711

       T/K    H(0)-H(T)+PV         H(T)/Eh          T*S/Eh         G(T)/Eh
   ------------------------------------------------------------------------
    298.15    0.664808E-01    0.106327E+01    0.164192E+00    0.899079E+00
   ------------------------------------------------------------------------

         :::::::::::::::::::::::::::::::::::::::::::::::::::::
         ::                  THERMODYNAMIC                  ::
         :::::::::::::::::::::::::::::::::::::::::::::::::::::
         :: total free energy        -185.720779613581 Eh   ::
         ::.................................................::
         :: total energy             -186.619858209613 Eh   ::
         :: zero point energy           0.996789925032 Eh   ::
         :: G(RRHO) w/o ZPVE           -0.097711328999 Eh   ::
         :: G(RRHO) contrib.            0.899078596032 Eh   ::
         :::::::::::::::::::::::::::::::::::::::::::::::::::::

           -------------------------------------------------
          | TOTAL ENERGY             -186.619858209613 Eh   |
          | TOTAL ENTHALPY           -185.556587448330 Eh   |
          | TOTAL FREE ENERGY        -185.720779613581 Eh   |
          | GRADIENT NORM               0.000094280671 Eh/α |
          | HOMO-LUMO GAP               1.876570182152 eV   |
           -------------------------------------------------

 * finished run on 2025/08/25 at 16:21:58.520
