   * xtb version 6.7.1 (edcfbbe) compiled by 'albert@albert-system' on 2024-07-22

   ID    Z sym.   atoms
    1    6 C      1-4, 6-17, 19-32
    2    7 N      5, 18
    3    1 H      33-54

          program call               : xtb data2507/gas/CzTPA/CzTPA_gas_T1_crest.xyz --gfn 2 --spinpol --tblite --uhf 2 --ohess vtight --parallel 40 --molden --ceasefiles --namespace data2507/gas/CzTPA/CzTPA_gas_T1_finalOpt
 * total energy  :   -81.2329199 Eh     change        0.3946226E-08 Eh
 * total energy  :   -81.2329799 Eh     change       -0.5999691E-04 Eh
 * total energy  :   -81.2330282 Eh     change       -0.4825529E-04 Eh
 * total energy  :   -81.2330332 Eh     change       -0.5019665E-05 Eh
 * total energy  :   -81.2330383 Eh     change       -0.5069655E-05 Eh
 * total energy  :   -81.2330405 Eh     change       -0.2225086E-05 Eh
 * total energy  :   -81.2330432 Eh     change       -0.2727634E-05 Eh
 * total energy  :   -81.2330447 Eh     change       -0.1443973E-05 Eh
 * total energy  :   -81.2330462 Eh     change       -0.1509951E-05 Eh
 * total energy  :   -81.2330477 Eh     change       -0.1567271E-05 Eh
 * total energy  :   -81.2330516 Eh     change       -0.1040057E-05 Eh
 * total energy  :   -81.2330528 Eh     change       -0.1191064E-05 Eh
 * total energy  :   -81.2330541 Eh     change       -0.1255829E-05 Eh
 * total energy  :   -81.2330552 Eh     change       -0.1125696E-05 Eh
 * total energy  :   -81.2330563 Eh     change       -0.1077856E-05 Eh
 * total energy  :   -81.2330574 Eh     change       -0.1104771E-05 Eh
 * total energy  :   -81.2330585 Eh     change       -0.1155370E-05 Eh
 * total energy  :   -81.2330598 Eh     change       -0.1307549E-05 Eh
 * total energy  :   -81.2330599 Eh     change       -0.2014441E-07 Eh
   *** GEOMETRY OPTIMIZATION CONVERGED AFTER 22 ITERATIONS ***

 final structure:
================
54
 xtb: 6.7.1 (edcfbbe)
C           -5.40192201993391        1.11062026203113        0.17791850584302
C           -4.62991416688270        1.40432859297442        1.29475254647546
C           -3.34171134741421        0.92823846465202        1.40071652377296
C           -2.79028947539617        0.14429315426847        0.37665545225883
N           -1.48949035050522       -0.33739662955250        0.48664651204695
C           -0.53892172100203        0.40504685180835        1.20065801325903
C            0.35606793291908       -0.25315293302646        2.05417203937459
C            1.33082359298363        0.46384735509082        2.71602962334639
C            1.42744984159562        1.83653933564509        2.55064687236061
C            0.53017871420001        2.49473685770935        1.71708099837631
C           -0.44689501177628        1.79055197101688        1.04696402979685
C           -1.13795418061785       -1.56159085635985       -0.04516925673881
C           -2.03250593440887       -2.65019180439097       -0.00467891639124
C           -1.63275829244024       -3.91604894525480       -0.31488126759953
C           -0.28008034917454       -4.16685599331468       -0.70850221198265
C            0.61329739825817       -3.13104905879297       -0.77954516482937
C            0.23546997108732       -1.81405518090983       -0.50131830682938
N            1.11604121401231       -0.77713294818428       -0.73004510909073
C            0.82496803036629        0.42343520938891       -1.35445388257800
C           -0.30219796523546        0.79170624753574       -2.06808581611753
C           -0.33534587209317        2.05592226322877       -2.63274879456346
C            0.74472215213370        2.93331103272690       -2.49670927970432
C            1.88993951990526        2.55995565897312       -1.82519125625592
C            1.95059439354707        1.28916003721041       -1.25742109063467
C            2.96079442745953        0.56819740135326       -0.55614159283065
C            4.24526391724822        0.89041875865192       -0.12556550377151
C            4.95543975543408       -0.04290562751209        0.60520650706410
C            4.40259532883251       -1.27964196571349        0.92772082388647
C            3.12513664798413       -1.62619850476368        0.50397390914456
C            2.41973421535366       -0.71007428912853       -0.25205518373826
C           -3.57850908799219       -0.15497026314159       -0.74340403923606
C           -4.86476825389644        0.32812606661725       -0.83741999286179
H           -6.41131421340231        1.48340972399725        0.10060438822626
H           -5.04341279618267        2.00271031062839        2.09296061794397
H           -2.75163772377667        1.14062423196913        2.27971496375976
H            0.26580002343387       -1.32094530581617        2.19132525001653
H            2.01956217059103       -0.05149802337857        3.36841579318834
H            2.19577433642300        2.39165260151353        3.06544192349947
H            0.60198806649664        3.56317847401282        1.58210656507596
H           -1.12789742843919        2.29616172107210        0.37867865897703
H           -3.04238750553216       -2.46989496259199        0.33526060638802
H           -2.32497265220389       -4.73988336005186       -0.24891321493041
H            0.01823398083554       -5.16805070991954       -0.97367806716270
H            1.61929807994924       -3.30862272729871       -1.13077578998694
H           -1.12920176533818        0.11147037940087       -2.19892389930217
H           -1.20553374767112        2.36487429742784       -3.19173481285022
H            0.68085333775841        3.91526068163554       -2.94256910259102
H            2.73007014363817        3.23283762553630       -1.74309748852872
H            4.66843236513999        1.85728516852934       -0.35176588358896
H            5.95359869697932        0.19195708542499        0.94542333896599
H            4.97146573939875       -1.98067814578775        1.51932746948193
H            2.70060384654015       -2.58010052893114        0.77698222104076
H           -3.16652585409134       -0.75559477473913       -1.54052363435681
H           -5.45644401809728        0.09953192683501       -1.71137642612018

 projected vibrational frequencies (cm⁻¹)
eigval :       -0.00    -0.00    -0.00    -0.00     0.00     0.00
eigval :       12.43    32.64    40.60    56.09    71.31    73.73
eigval :       80.70    86.09   106.81   108.22   144.33   155.54
eigval :      173.31   184.59   228.43   241.37   247.76   265.03
eigval :      269.62   309.89   327.41   357.31   378.02   379.30
eigval :      383.89   388.35   400.76   410.27   423.68   433.76
eigval :      437.19   465.24   509.86   513.48   519.61   541.21
eigval :      556.69   572.72   580.35   583.19   588.55   590.24
eigval :      601.01   619.31   648.07   651.39   654.58   680.02
eigval :      688.90   706.01   715.83   742.38   744.94   751.35
eigval :      754.59   759.51   798.43   841.87   850.16   852.81
eigval :      857.21   861.09   877.76   879.48   882.61   884.24
eigval :      888.28   890.21   896.48   899.70   902.35   905.26
eigval :      914.31   916.40   918.13   921.40   925.85   963.00
eigval :      974.37  1001.37  1006.62  1038.70  1060.31  1067.70
eigval :     1071.91  1072.74  1097.42  1119.76  1122.82  1125.68
eigval :     1132.55  1157.34  1170.87  1172.37  1174.70  1175.50
eigval :     1176.83  1179.93  1192.29  1207.86  1217.58  1234.34
eigval :     1262.16  1267.93  1272.72  1280.69  1288.66  1291.32
eigval :     1313.67  1321.95  1327.76  1332.58  1336.30  1341.29
eigval :     1375.66  1394.68  1406.06  1416.56  1427.08  1432.61
eigval :     1436.69  1442.28  1451.00  1452.87  1470.25  1478.28
eigval :     1479.26  1500.85  1508.72  1517.54  1525.86  1557.86
eigval :     1563.24  1576.38  3074.09  3074.45  3074.47  3078.34
eigval :     3079.52  3080.38  3081.18  3083.94  3084.12  3085.17
eigval :     3089.00  3089.61  3090.14  3092.10  3092.72  3095.09
eigval :     3096.67  3098.10  3100.78  3102.16  3104.79  3108.51

   temp. (K)  partition function   enthalpy   heat capacity  entropy
                                   cal/mol     cal/K/mol   cal/K/mol   J/K/mol
 298.15  VIB  0.582E+10            14215.969     96.084     86.240
         ROT  0.138E+08              888.752      2.981     35.652
         INT  0.803E+17            15104.721     99.065    121.892
         TR   0.805E+28             1481.254      4.968     43.908
         TOT                       16585.9748   104.0332   165.8000   693.7071

       T/K    H(0)-H(T)+PV         H(T)/Eh          T*S/Eh         G(T)/Eh
   ------------------------------------------------------------------------
    298.15    0.264314E-01    0.442042E+00    0.787769E-01    0.363266E+00
   ------------------------------------------------------------------------

         :::::::::::::::::::::::::::::::::::::::::::::::::::::
         ::                  THERMODYNAMIC                  ::
         :::::::::::::::::::::::::::::::::::::::::::::::::::::
         :: total free energy         -80.869794318257 Eh   ::
         ::.................................................::
         :: total energy              -81.233059853771 Eh   ::
         :: zero point energy           0.415611016159 Eh   ::
         :: G(RRHO) w/o ZPVE           -0.052345480646 Eh   ::
         :: G(RRHO) contrib.            0.363265535514 Eh   ::
         :::::::::::::::::::::::::::::::::::::::::::::::::::::

           -------------------------------------------------
          | TOTAL ENERGY              -81.233059853771 Eh   |
          | TOTAL ENTHALPY            -80.791017404270 Eh   |
          | TOTAL FREE ENERGY         -80.869794318257 Eh   |
          | GRADIENT NORM               0.000067890390 Eh/α |
           -------------------------------------------------

 * finished run on 2025/08/26 at 03:48:26.446
