   * xtb version 6.7.1 (edcfbbe) compiled by 'albert@albert-system' on 2024-07-22

   ID    Z sym.   atoms
    1    6 C      1-4, 6-17, 19-32
    2    7 N      5, 18
    3    1 H      33-54

          program call               : xtb data2507/gas/CzTPA/CzTPA_gas_S0_crest.xyz --gfn 2 --ohess vtight --parallel 40 --molden --ceasefiles --namespace data2507/gas/CzTPA/CzTPA_gas_S0_finalOpt
          :  Hamiltonian                  GFN2-xTB          :
 * total energy  :   -81.3425601 Eh     change       -0.4632597E-09 Eh
 * total energy  :   -81.3425611 Eh     change       -0.1067232E-05 Eh
 * total energy  :   -81.3425622 Eh     change       -0.1019064E-05 Eh
 * total energy  :   -81.3425641 Eh     change       -0.1941518E-05 Eh
 * total energy  :   -81.3425645 Eh     change       -0.4398659E-06 Eh
 * total energy  :   -81.3425650 Eh     change       -0.4361124E-06 Eh
 * total energy  :   -81.3425654 Eh     change       -0.3673864E-06 Eh
 * total energy  :   -81.3425656 Eh     change       -0.2802900E-06 Eh
 * total energy  :   -81.3425660 Eh     change       -0.3368496E-06 Eh
 * total energy  :   -81.3425664 Eh     change       -0.4163193E-06 Eh
 * total energy  :   -81.3425668 Eh     change       -0.4205124E-06 Eh
 * total energy  :   -81.3425672 Eh     change       -0.3625063E-06 Eh
 * total energy  :   -81.3425675 Eh     change       -0.3148024E-06 Eh
 * total energy  :   -81.3425678 Eh     change       -0.3057446E-06 Eh
 * total energy  :   -81.3425681 Eh     change       -0.3064779E-06 Eh
 * total energy  :   -81.3425684 Eh     change       -0.2689443E-06 Eh
 * total energy  :   -81.3425685 Eh     change       -0.1870433E-06 Eh
 * total energy  :   -81.3425687 Eh     change       -0.1097147E-06 Eh
 * total energy  :   -81.3425688 Eh     change       -0.9213224E-07 Eh
   *** GEOMETRY OPTIMIZATION CONVERGED AFTER 19 ITERATIONS ***

 final structure:
================
54
 xtb: 6.7.1 (edcfbbe)
C           -5.31939128226331        1.20247257711102        0.23610385713184
C           -4.52631603440702        1.53406168802055        1.32209898028441
C           -3.24577019498691        1.02985750554464        1.43627333718228
C           -2.72853216065698        0.18672108885529        0.45232479941335
N           -1.42811641571226       -0.31161365945063        0.55762337586785
C           -0.44012639145455        0.41952425637587        1.23830999223348
C            0.45125186077412       -0.23462264403452        2.08518797789587
C            1.45194812807571        0.47301424801169        2.72342015546775
C            1.57015323825501        1.83871485553246        2.53491929787876
C            0.67430148262031        2.49623337070743        1.70732712320648
C           -0.32489331330586        1.79706007260937        1.06062900298195
C           -1.11093125374483       -1.57850677362221        0.05686518216066
C           -2.00155378322990       -2.64081613085222        0.21427667000059
C           -1.69208496336830       -3.90551175793492       -0.24402681521386
C           -0.47675087455751       -4.14332850586160       -0.86604083500863
C            0.41521043664966       -3.10175684070913       -1.03973038322866
C            0.11077985954057       -1.82042440190703       -0.59779925458039
N            1.04209498807397       -0.78788152115914       -0.80199106598250
C            0.79748047772686        0.41028101391336       -1.43770193856500
C           -0.32193489732989        0.81492124725845       -2.14837440841627
C           -0.31223358950062        2.08219580369775       -2.69799979173702
C            0.78828955741471        2.92489349318166       -2.55937018819517
C            1.91686034115214        2.51502792655257       -1.87753292437766
C            1.92935204644543        1.24732275213680       -1.31253395310571
C            2.89915790614537        0.50831092138843       -0.55507126164738
C            4.17476695283275        0.79809450982099       -0.09063177516801
C            4.84133261246874       -0.15572539946265        0.65189491354233
C            4.25128995710430       -1.38521363625431        0.93622034864996
C            2.98323242730324       -1.69707017889428        0.48584531219831
C            2.31199549390381       -0.74381076332765       -0.26467113946374
C           -3.53549231920922       -0.14857339682565       -0.63570648268706
C           -4.81726278304166        0.35514337054244       -0.73735121687753
H           -6.32023673368351        1.59739592539274        0.15100520664011
H           -4.91065657550127        2.18487056225197        2.09378144258685
H           -2.63882695268666        1.28225566696914        2.29312499208799
H            0.35777102449525       -1.30109290438383        2.23398115671831
H            2.14370058682334       -0.04787888511052        3.36836332301604
H            2.35704224405246        2.38780081684334        3.02881747830326
H            0.76254151986961        3.56095217329356        1.55079986273276
H           -1.00933153749720        2.30710998098535        0.39923060644946
H           -2.93878004090837       -2.46028323071323        0.72006288958364
H           -2.39646488455168       -4.71125884247741       -0.10290868923915
H           -0.22832429895671       -5.13196105458346       -1.21984067333642
H            1.35842180926160       -3.26387504617667       -1.54041337896460
H           -1.17280803974986        0.16328745122052       -2.27152655090754
H           -1.17613991043707        2.42552838253911       -3.24824207770787
H            0.75657442677475        3.90988212085096       -3.00134244419958
H            2.77473167997845        3.16376513723788       -1.78358305155308
H            4.63007670292016        1.75336448750124       -0.30444790278421
H            5.83423440434102        0.05062154349460        1.02342291927536
H            4.79647226707893       -2.10918936410279        1.52415042372952
H            2.52675616697413       -2.64764518685659        0.71911706178047
H           -3.15702214007091       -0.80997173267232       -1.40148729482628
H           -5.42621924604422        0.08762046602862       -1.58854414372607

          :  Hamiltonian                  GFN2-xTB          :
         :: gradient norm              0.000022946388 Eh/a0 ::
         :: HOMO-LUMO gap              2.991350057049 eV    ::
         :: SCC energy               -82.887278613335 Eh    ::
         :: -> dispersion             -0.085359403173 Eh    ::
         :: repulsion energy           1.544709860898 Eh    ::

    * Orbital Energies and Occupations

         #    Occupation            Energy/Eh            Energy/eV
      -------------------------------------------------------------
         1        2.0000           -0.6738360             -18.3360
       ...           ...                  ...                  ...
        64        2.0000           -0.4230638             -11.5122
        65        2.0000           -0.4181929             -11.3796
        66        2.0000           -0.4155211             -11.3069
        67        2.0000           -0.4136646             -11.2564
        68        2.0000           -0.4132080             -11.2440
        69        2.0000           -0.4088126             -11.1244
        70        2.0000           -0.4074900             -11.0884
        71        2.0000           -0.4040374             -10.9944
        72        2.0000           -0.4035629             -10.9815
        73        2.0000           -0.3977454             -10.8232
        74        2.0000           -0.3732282             -10.1561
        75        2.0000           -0.3598987              -9.7933
        76        2.0000           -0.3518163              -9.5734 (HOMO)
        77                         -0.2418862              -6.5821 (LUMO)
        78                         -0.2369530              -6.4478
        79                         -0.2335091              -6.3541
        80                         -0.2291198              -6.2347
        81                         -0.2239718              -6.0946
        82                         -0.2213060              -6.0220
        83                         -0.2152509              -5.8573
        84                         -0.1963273              -5.3423
        85                         -0.1872629              -5.0957
        86                         -0.1812500              -4.9321
        87                         -0.1067840              -2.9057
       ...                                ...                  ...
       150                          0.7531660              20.4947
      -------------------------------------------------------------
                  HL-Gap            0.1099302 Eh            2.9914 eV

     #   Z          covCN         q      C6AA      α(0)
     1   6 C        2.919    -0.039    28.981     8.828
     2   6 C        2.920    -0.029    28.722     8.789
     3   6 C        2.923    -0.049    29.225     8.865
     4   6 C        2.922     0.066    26.533     8.447
     5   7 N        2.751    -0.074    22.680     7.073
     6   6 C        2.925     0.065    26.535     8.448
     7   6 C        2.923    -0.045    29.129     8.851
     8   6 C        2.920    -0.028    28.691     8.784
     9   6 C        2.920    -0.035    28.877     8.812
    10   6 C        2.920    -0.028    28.691     8.784
    11   6 C        2.922    -0.043    29.069     8.842
    12   6 C        2.923     0.056    26.752     8.482
    13   6 C        2.923    -0.047    29.178     8.858
    14   6 C        2.918    -0.033    28.825     8.804
    15   6 C        2.918    -0.038    28.944     8.822
    16   6 C        2.923    -0.042    29.039     8.837
    17   6 C        2.913     0.046    26.961     8.514
    18   7 N        2.803    -0.048    22.175     6.994
    19   6 C        3.081     0.049    26.816     8.489
    20   6 C        2.910    -0.049    29.219     8.864
    21   6 C        2.924    -0.034    28.842     8.807
    22   6 C        2.920    -0.042    29.031     8.836
    23   6 C        2.913    -0.033    28.820     8.803
    24   6 C        3.069    -0.018    28.384     8.736
    25   6 C        3.070    -0.018    28.376     8.735
    26   6 C        2.913    -0.033    28.818     8.803
    27   6 C        2.920    -0.042    29.034     8.836
    28   6 C        2.925    -0.034    28.843     8.807
    29   6 C        2.910    -0.050    29.249     8.868
    30   6 C        3.081     0.048    26.837     8.493
    31   6 C        2.923    -0.048    29.199     8.861
    32   6 C        2.920    -0.030    28.738     8.791
    33   1 H        0.926     0.030     2.593     2.518
    34   1 H        0.926     0.031     2.574     2.509
    35   1 H        0.926     0.031     2.575     2.509
    36   1 H        0.926     0.027     2.625     2.534
    37   1 H        0.926     0.032     2.562     2.503
    38   1 H        0.926     0.032     2.559     2.501
    39   1 H        0.926     0.033     2.542     2.493
    40   1 H        0.926     0.033     2.537     2.491
    41   1 H        0.926     0.039     2.465     2.455
    42   1 H        0.926     0.037     2.489     2.467
    43   1 H        0.926     0.037     2.494     2.469
    44   1 H        0.926     0.042     2.419     2.432
    45   1 H        0.926     0.025     2.661     2.551
    46   1 H        0.926     0.027     2.626     2.534
    47   1 H        0.926     0.027     2.634     2.538
    48   1 H        0.926     0.029     2.594     2.519
    49   1 H        0.926     0.030     2.589     2.516
    50   1 H        0.926     0.027     2.627     2.535
    51   1 H        0.926     0.028     2.615     2.529
    52   1 H        0.926     0.025     2.661     2.551
    53   1 H        0.926     0.027     2.626     2.534
    54   1 H        0.926     0.031     2.577     2.510

molecular dipole:
                 x           y           z       tot (Debye)
 q only:       -0.281      -0.318       0.138
   full:       -0.328      -0.379       0.160       1.337

 projected vibrational frequencies (cm⁻¹)
eigval :       -0.00    -0.00    -0.00     0.00     0.00     0.00
eigval :       17.54    29.71    43.86    58.09    68.09    71.37
eigval :       81.38    85.48   104.66   107.58   148.68   157.75
eigval :      176.05   187.59   225.45   242.93   261.21   274.66
eigval :      277.39   309.62   325.50   364.40   380.54   387.68
eigval :      389.77   396.87   424.94   433.26   442.04   459.02
eigval :      481.36   491.41   508.61   519.25   539.06   541.66
eigval :      577.78   583.14   588.24   592.85   598.75   610.20
eigval :      612.04   659.21   664.98   672.11   688.37   700.39
eigval :      706.92   726.18   755.42   757.56   760.35   768.07
eigval :      779.66   785.74   865.78   869.84   874.48   877.00
eigval :      883.71   891.56   894.48   896.28   900.22   901.48
eigval :      905.85   908.95   917.30   920.46   922.30   925.51
eigval :      926.39   926.89   929.97   930.64   932.90   986.69
eigval :     1004.62  1012.59  1068.37  1072.20  1084.01  1086.24
eigval :     1094.07  1095.93  1122.42  1126.92  1140.39  1151.15
eigval :     1176.42  1177.55  1180.59  1181.01  1181.78  1188.43
eigval :     1194.18  1197.64  1213.54  1237.36  1240.24  1248.91
eigval :     1278.62  1282.07  1300.28  1306.35  1310.53  1314.96
eigval :     1321.52  1324.01  1329.54  1356.77  1364.14  1365.48
eigval :     1424.38  1429.45  1433.45  1437.89  1445.17  1471.54
eigval :     1476.32  1478.49  1486.51  1490.13  1560.42  1575.99
eigval :     1578.45  1582.82  1585.68  1592.79  1596.72  1600.99
eigval :     1601.93  1618.23  3072.97  3073.80  3074.68  3074.91
eigval :     3076.98  3078.78  3080.67  3081.98  3082.53  3084.50
eigval :     3085.42  3085.96  3087.14  3090.08  3091.60  3092.67
eigval :     3093.30  3094.19  3097.88  3100.56  3100.85  3102.16

   temp. (K)  partition function   enthalpy   heat capacity  entropy
                                   cal/mol     cal/K/mol   cal/K/mol   J/K/mol
 298.15  VIB  0.309E+10            13840.084     93.344     84.068
         ROT  0.137E+08              888.752      2.981     35.632
         INT  0.422E+17            14728.837     96.325    119.700
         TR   0.805E+28             1481.254      4.968     43.908
         TOT                       16210.0907   101.2933   163.6076   684.5343

       T/K    H(0)-H(T)+PV         H(T)/Eh          T*S/Eh         G(T)/Eh
   ------------------------------------------------------------------------
    298.15    0.258324E-01    0.447961E+00    0.777353E-01    0.370225E+00
   ------------------------------------------------------------------------

         :::::::::::::::::::::::::::::::::::::::::::::::::::::
         ::                  THERMODYNAMIC                  ::
         :::::::::::::::::::::::::::::::::::::::::::::::::::::
         :: total free energy         -80.972343296641 Eh   ::
         ::.................................................::
         :: total energy              -81.342568752437 Eh   ::
         :: zero point energy           0.422128296150 Eh   ::
         :: G(RRHO) w/o ZPVE           -0.051902840354 Eh   ::
         :: G(RRHO) contrib.            0.370225455796 Eh   ::
         :::::::::::::::::::::::::::::::::::::::::::::::::::::

           -------------------------------------------------
          | TOTAL ENERGY              -81.342568752437 Eh   |
          | TOTAL ENTHALPY            -80.894608032375 Eh   |
          | TOTAL FREE ENERGY         -80.972343296641 Eh   |
          | GRADIENT NORM               0.000022966145 Eh/α |
          | HOMO-LUMO GAP               2.991351642626 eV   |
           -------------------------------------------------

 * finished run on 2025/08/26 at 03:46:16.254
