   * xtb version 6.7.1 (edcfbbe) compiled by 'albert@albert-system' on 2024-07-22

   ID    Z sym.   atoms
    1    6 C      1-4, 6-17, 19-32
    2    7 N      5, 18
    3    1 H      33-54

          program call               : xtb data2507/gas/CzTPA/CzTPA.xyz --gfn 2 --ohess vtight --parallel 40 --molden --ceasefiles --namespace data2507/gas/CzTPA/CzTPA_gas_S0_preOpt
          :  Hamiltonian                  GFN2-xTB          :
 * total energy  :   -81.3204581 Eh     change       -0.9586358E-09 Eh
 * total energy  :   -81.3332936 Eh     change       -0.1283555E-01 Eh
 * total energy  :   -81.3378439 Eh     change       -0.4550273E-02 Eh
 * total energy  :   -81.3390025 Eh     change       -0.1158601E-02 Eh
 * total energy  :   -81.3396463 Eh     change       -0.6438070E-03 Eh
 * total energy  :   -81.3399998 Eh     change       -0.3535174E-03 Eh
 * total energy  :   -81.3402833 Eh     change       -0.2835117E-03 Eh
 * total energy  :   -81.3405672 Eh     change       -0.2838516E-03 Eh
 * total energy  :   -81.3408432 Eh     change       -0.2760180E-03 Eh
 * total energy  :   -81.3410733 Eh     change       -0.2301102E-03 Eh
 * total energy  :   -81.3425644 Eh     change       -0.7802654E-06 Eh
 * total energy  :   -81.3425649 Eh     change       -0.4985003E-06 Eh
 * total energy  :   -81.3425652 Eh     change       -0.3497444E-06 Eh
 * total energy  :   -81.3425656 Eh     change       -0.3401165E-06 Eh
 * total energy  :   -81.3425660 Eh     change       -0.4058196E-06 Eh
 * total energy  :   -81.3425663 Eh     change       -0.3251419E-06 Eh
 * total energy  :   -81.3425665 Eh     change       -0.2219662E-06 Eh
 * total energy  :   -81.3425667 Eh     change       -0.1713519E-06 Eh
 * total energy  :   -81.3425667 Eh     change       -0.2177245E-08 Eh
   *** GEOMETRY OPTIMIZATION CONVERGED AFTER 44 ITERATIONS ***

 final structure:
================
54
 xtb: 6.7.1 (edcfbbe)
C            5.33191917932721        0.88866662710201       -0.25161576910780
C            4.55716748013616        1.18521912384940       -1.36074233548279
C            3.25192057844745        0.74190946924957       -1.44409350090694
C            2.69174451584008       -0.00293189830915       -0.40594509592723
N            1.36716645258674       -0.44066065113772       -0.48175557107183
C            0.41673129996820        0.29920734524155       -1.20450836397997
C           -0.51480734191563       -0.35573806417006       -2.00631034348006
C           -1.47913721691344        0.36548645333497       -2.68413186962968
C           -1.52019921052847        1.74475374762757       -2.58129725852673
C           -0.58349511768751        2.40173292397652       -1.79974794273131
C            0.37943146038715        1.68955399134080       -1.11362479923968
C            0.99116440738371       -1.65830156032331        0.09432644412006
C            1.83514788916466       -2.76610972560981        0.00701300719338
C            1.47259804835089       -3.98479419767529        0.54387430670033
C            0.24882910327672       -4.13045084532517        1.17769014346199
C           -0.59810932745012       -3.04314974177105        1.28102407598386
C           -0.24055198015317       -1.80659416058982        0.75805096022044
N           -1.13212067693349       -0.72830996890942        0.88962071582755
C           -0.84630879236278        0.50063954449396        1.44406088200288
C            0.28711676789580        0.91438648555417        2.12686175263638
C            0.32036342381965        2.21516045402249        2.59059895624825
C           -0.75163306371984        3.08301117647462        2.39529957784959
C           -1.89430513384432        2.66635084028053        1.74174264568151
C           -1.94992112393116        1.36481802848374        1.26290254699735
C           -2.94564578004476        0.60977797907808        0.55668389309886
C           -4.21240186347555        0.91010554738590        0.07493553530133
C           -4.91221476820461       -0.06831838415267       -0.60211503040401
C           -4.36352354033499       -1.33259703997655       -0.80507846760309
C           -3.10519207411671       -1.65562248285063       -0.33568905673510
C           -2.40105955988201       -0.67770057890230        0.35028268782276
C            3.47967644769324       -0.30274922132584        0.70604855516946
C            4.78615930557054        0.13899204390078        0.77693182954749
H            6.35226995606825        1.23522379948961       -0.19088701215556
H            4.97504965272562        1.75983547762687       -2.17433608009974
H            2.65853665957170        0.96559537037250       -2.31826089019788
H           -0.48137025875285       -1.43289528569844       -2.08890219128519
H           -2.20317707649716       -0.15534777630232       -3.29267081049161
H           -2.27874839977745        2.30497607390666       -3.10606785174084
H           -0.61120929396174        3.47743914400725       -1.71026051139393
H            1.09546290080852        2.20099587851789       -0.48773449108717
H            2.77915046621752       -2.65832961103136       -0.50683132550047
H            2.14199055166117       -4.82704790542167        0.45557934023221
H           -0.04101077610790       -5.08265459183032        1.59430292190921
H           -1.54735116950031       -3.13270950161316        1.78851072497834
H            1.11640696043761        0.24475830037362        2.29339931300155
H            1.19608994143186        2.56559360461150        3.11719411225937
H           -0.68638461740806        4.09375693814467        2.77037512516358
H           -2.73033120631920        3.33549268068797        1.60411011529212
H           -4.63543619351431        1.89194707203400        0.22523439866675
H           -5.89894629680268        0.14550835848146       -0.98566272886336
H           -4.93363537642292       -2.07547381830730       -1.34372674020809
H           -2.68100484827174       -2.63411199657651       -0.50606222389722
H            3.06672371343630       -0.88830793519703        1.51461155448187
H            5.38041492262858       -0.09998753664223        1.64679013989363

          :  Hamiltonian                  GFN2-xTB          :
         :: gradient norm              0.000035837827 Eh/a0 ::
         :: HOMO-LUMO gap              2.992969014560 eV    ::
         :: SCC energy               -82.887229150767 Eh    ::
         :: -> dispersion             -0.085281616300 Eh    ::
         :: repulsion energy           1.544662448029 Eh    ::

    * Orbital Energies and Occupations

         #    Occupation            Energy/Eh            Energy/eV
      -------------------------------------------------------------
         1        2.0000           -0.6737339             -18.3332
       ...           ...                  ...                  ...
        64        2.0000           -0.4230776             -11.5125
        65        2.0000           -0.4181028             -11.3772
        66        2.0000           -0.4155067             -11.3065
        67        2.0000           -0.4136654             -11.2564
        68        2.0000           -0.4131326             -11.2419
        69        2.0000           -0.4088166             -11.1245
        70        2.0000           -0.4075335             -11.0895
        71        2.0000           -0.4042302             -10.9997
        72        2.0000           -0.4035668             -10.9816
        73        2.0000           -0.3977154             -10.8224
        74        2.0000           -0.3731902             -10.1550
        75        2.0000           -0.3598761              -9.7927
        76        2.0000           -0.3518503              -9.5743 (HOMO)
        77                         -0.2418607              -6.5814 (LUMO)
        78                         -0.2368335              -6.4446
        79                         -0.2333949              -6.3510
        80                         -0.2292755              -6.2389
        81                         -0.2240097              -6.0956
        82                         -0.2213823              -6.0241
        83                         -0.2152585              -5.8575
        84                         -0.1963000              -5.3416
        85                         -0.1871944              -5.0938
        86                         -0.1812300              -4.9315
        87                         -0.1066591              -2.9023
       ...                                ...                  ...
       150                          0.7531763              20.4950
      -------------------------------------------------------------
                  HL-Gap            0.1099896 Eh            2.9930 eV

     #   Z          covCN         q      C6AA      α(0)
     1   6 C        2.919    -0.039    28.978     8.827
     2   6 C        2.920    -0.029    28.722     8.788
     3   6 C        2.923    -0.049    29.219     8.864
     4   6 C        2.922     0.065    26.534     8.447
     5   7 N        2.751    -0.074    22.677     7.073
     6   6 C        2.925     0.065    26.535     8.448
     7   6 C        2.923    -0.045    29.130     8.851
     8   6 C        2.920    -0.028    28.691     8.784
     9   6 C        2.920    -0.035    28.879     8.813
    10   6 C        2.920    -0.028    28.692     8.784
    11   6 C        2.922    -0.043    29.074     8.842
    12   6 C        2.923     0.056    26.754     8.482
    13   6 C        2.923    -0.048    29.181     8.859
    14   6 C        2.918    -0.033    28.826     8.804
    15   6 C        2.918    -0.038    28.946     8.823
    16   6 C        2.923    -0.042    29.040     8.837
    17   6 C        2.913     0.046    26.964     8.515
    18   7 N        2.803    -0.048    22.171     6.993
    19   6 C        3.081     0.049    26.818     8.490
    20   6 C        2.910    -0.049    29.218     8.864
    21   6 C        2.924    -0.034    28.842     8.807
    22   6 C        2.920    -0.041    29.031     8.836
    23   6 C        2.913    -0.033    28.820     8.803
    24   6 C        3.070    -0.018    28.384     8.736
    25   6 C        3.070    -0.018    28.376     8.734
    26   6 C        2.913    -0.033    28.818     8.803
    27   6 C        2.920    -0.042    29.034     8.836
    28   6 C        2.925    -0.034    28.844     8.807
    29   6 C        2.910    -0.050    29.249     8.868
    30   6 C        3.081     0.048    26.837     8.493
    31   6 C        2.923    -0.048    29.194     8.861
    32   6 C        2.920    -0.030    28.738     8.791
    33   1 H        0.926     0.030     2.591     2.517
    34   1 H        0.926     0.031     2.572     2.508
    35   1 H        0.926     0.031     2.573     2.508
    36   1 H        0.926     0.027     2.625     2.534
    37   1 H        0.926     0.032     2.563     2.503
    38   1 H        0.926     0.032     2.559     2.502
    39   1 H        0.926     0.033     2.544     2.494
    40   1 H        0.926     0.033     2.540     2.492
    41   1 H        0.926     0.039     2.467     2.456
    42   1 H        0.926     0.037     2.490     2.468
    43   1 H        0.926     0.037     2.495     2.470
    44   1 H        0.926     0.042     2.419     2.432
    45   1 H        0.926     0.025     2.661     2.551
    46   1 H        0.926     0.027     2.626     2.534
    47   1 H        0.926     0.027     2.634     2.538
    48   1 H        0.926     0.029     2.594     2.519
    49   1 H        0.926     0.030     2.589     2.516
    50   1 H        0.926     0.027     2.627     2.535
    51   1 H        0.926     0.028     2.616     2.529
    52   1 H        0.926     0.025     2.661     2.551
    53   1 H        0.926     0.027     2.624     2.533
    54   1 H        0.926     0.031     2.575     2.509

molecular dipole:
                 x           y           z       tot (Debye)
 q only:        0.280      -0.330      -0.114
   full:        0.326      -0.394      -0.132       1.342

 projected vibrational frequencies (cm⁻¹)
eigval :       -0.00    -0.00     0.00     0.00     0.00     0.00
eigval :       17.67    29.66    43.72    58.08    68.09    71.66
eigval :       80.98    85.74   104.78   107.48   148.61   157.86
eigval :      176.16   187.94   226.03   242.91   261.37   274.66
eigval :      277.20   309.56   325.51   364.58   380.62   387.77
eigval :      389.87   396.89   424.90   433.32   442.45   458.74
eigval :      481.41   491.41   508.74   519.24   539.05   541.66
eigval :      577.82   583.17   588.25   592.89   598.62   610.30
eigval :      612.09   659.37   664.96   672.08   688.19   699.96
eigval :      706.94   726.28   755.49   757.57   760.39   768.07
eigval :      779.68   785.78   865.92   869.96   874.44   876.96
eigval :      883.71   891.71   894.39   896.26   900.21   901.53
eigval :      905.89   908.91   917.40   920.49   922.46   925.52
eigval :      926.52   926.86   929.87   930.48   932.86   986.72
eigval :     1004.64  1012.54  1068.46  1072.32  1084.03  1086.11
eigval :     1094.47  1096.23  1122.47  1126.75  1140.57  1151.25
eigval :     1176.47  1177.68  1180.60  1180.98  1181.76  1188.48
eigval :     1194.22  1197.50  1213.54  1237.41  1240.43  1249.06
eigval :     1278.59  1282.07  1300.30  1306.27  1310.51  1315.65
eigval :     1320.79  1324.07  1329.50  1356.83  1364.10  1365.62
eigval :     1424.22  1429.45  1433.40  1437.86  1445.10  1471.51
eigval :     1476.29  1478.40  1486.67  1490.15  1560.35  1575.99
eigval :     1578.46  1582.86  1585.78  1592.70  1596.70  1600.95
eigval :     1601.86  1618.17  3072.95  3073.77  3074.71  3074.89
eigval :     3077.06  3078.74  3080.64  3081.88  3082.58  3084.45
eigval :     3085.41  3085.98  3087.09  3090.05  3091.54  3092.72
eigval :     3093.34  3094.16  3097.93  3100.33  3100.66  3102.22

   temp. (K)  partition function   enthalpy   heat capacity  entropy
                                   cal/mol     cal/K/mol   cal/K/mol   J/K/mol
 298.15  VIB  0.306E+10            13838.434     93.338     84.048
         ROT  0.137E+08              888.752      2.981     35.637
         INT  0.420E+17            14727.187     96.319    119.685
         TR   0.805E+28             1481.254      4.968     43.908
         TOT                       16208.4407   101.2869   163.5926   684.4715

       T/K    H(0)-H(T)+PV         H(T)/Eh          T*S/Eh         G(T)/Eh
   ------------------------------------------------------------------------
    298.15    0.258298E-01    0.447964E+00    0.777281E-01    0.370236E+00
   ------------------------------------------------------------------------

         :::::::::::::::::::::::::::::::::::::::::::::::::::::
         ::                  THERMODYNAMIC                  ::
         :::::::::::::::::::::::::::::::::::::::::::::::::::::
         :: total free energy         -80.972330725361 Eh   ::
         ::.................................................::
         :: total energy              -81.342566702738 Eh   ::
         :: zero point energy           0.422134310621 Eh   ::
         :: G(RRHO) w/o ZPVE           -0.051898333244 Eh   ::
         :: G(RRHO) contrib.            0.370235977377 Eh   ::
         :::::::::::::::::::::::::::::::::::::::::::::::::::::

           -------------------------------------------------
          | TOTAL ENERGY              -81.342566702738 Eh   |
          | TOTAL ENTHALPY            -80.894602597767 Eh   |
          | TOTAL FREE ENERGY         -80.972330725361 Eh   |
          | GRADIENT NORM               0.000035837294 Eh/α |
          | HOMO-LUMO GAP               2.992969317333 eV   |
           -------------------------------------------------

 * finished run on 2025/08/26 at 03:44:38.364
