   * xtb version 6.7.1 (edcfbbe) compiled by 'albert@albert-system' on 2024-07-22

   ID    Z sym.   atoms
    1    6 C      1-4, 6-17, 19-32
    2    7 N      5, 18
    3    1 H      33-54

          program call               : xtb data2507/gas/CzTPA/CzTPA_gas_S0_finalOpt.xtbopt.xyz --gfn 2 --spinpol --tblite --uhf 2 --ohess vtight --parallel 40 --molden --ceasefiles --namespace data2507/gas/CzTPA/CzTPA_gas_T1_preOpt
 * total energy  :   -81.2277949 Eh     change        0.8258255E-08 Eh
 * total energy  :   -81.2305205 Eh     change       -0.2725528E-02 Eh
 * total energy  :   -81.2316748 Eh     change       -0.1154371E-02 Eh
 * total energy  :   -81.2319881 Eh     change       -0.3132933E-03 Eh
 * total energy  :   -81.2323333 Eh     change       -0.3451678E-03 Eh
 * total energy  :   -81.2325052 Eh     change       -0.1719169E-03 Eh
 * total energy  :   -81.2327116 Eh     change       -0.2063801E-03 Eh
 * total energy  :   -81.2328550 Eh     change       -0.1433744E-03 Eh
 * total energy  :   -81.2329460 Eh     change       -0.9102780E-04 Eh
 * total energy  :   -81.2329930 Eh     change       -0.4699284E-04 Eh
 * total energy  :   -81.2330805 Eh     change       -0.4337662E-06 Eh
 * total energy  :   -81.2330810 Eh     change       -0.4212457E-06 Eh
 * total energy  :   -81.2330815 Eh     change       -0.5010046E-06 Eh
 * total energy  :   -81.2330818 Eh     change       -0.3873114E-06 Eh
 * total energy  :   -81.2330822 Eh     change       -0.3630255E-06 Eh
 * total energy  :   -81.2330825 Eh     change       -0.2883041E-06 Eh
 * total energy  :   -81.2330828 Eh     change       -0.2857706E-06 Eh
 * total energy  :   -81.2330828 Eh     change        0.9461189E-08 Eh
 * total energy  :   -81.2330828 Eh     change       -0.1162122E-07 Eh
   *** GEOMETRY OPTIMIZATION CONVERGED AFTER 45 ITERATIONS ***

 final structure:
================
54
 xtb: 6.7.1 (edcfbbe)
C           -5.34524313830611        1.28195865018694        0.24180599224906
C           -4.54783803832514        1.55480069656802        1.34595048850334
C           -3.27657435828803        1.03253737496674        1.43811537007874
C           -2.76783637213237        0.22218958546968        0.41250477194131
N           -1.48392023279838       -0.30379387388659        0.50794026537142
C           -0.49983391125496        0.40168679235567        1.21484778947051
C            0.37437022455144       -0.29261506513763        2.06144325411567
C            1.38317963598819        0.38408046755463        2.71492429690102
C            1.53533366672372        1.75119664136695        2.54678702343438
C            0.65957987863840        2.44526884066907        1.71926144662406
C           -0.35145382766138        1.78166134385658        1.05797030471255
C           -1.17592055665343       -1.53719395653172       -0.02973313959255
C           -2.09792551240225       -2.60204328095139        0.02350922975062
C           -1.73103337982079       -3.87937102016028       -0.27993530711620
C           -0.38654121112638       -4.16687019948596       -0.67846298982375
C            0.53173604123278       -3.15420178953016       -0.76588434347123
C            0.18723826914440       -1.82629371648014       -0.49776680682312
N            1.08392772303806       -0.80869009769555       -0.74993124569982
C            0.80176140177251        0.39156834062725       -1.37931429891098
C           -0.32802736287205        0.76872860543361       -2.08412890023520
C           -0.35273862850865        2.03041646673009       -2.65441547606548
C            0.73846678602712        2.89616464884454       -2.53357012662538
C            1.88626972037714        2.51285843081790       -1.87209888686282
C            1.93801648385767        1.24448719433157       -1.29830563211843
C            2.94640710504177        0.51519565241023       -0.60259573265531
C            4.23806762559519        0.82515032818629       -0.18544099094638
C            4.94452726181283       -0.11232353353774        0.54349099620038
C            4.38092738683977       -1.34133903492505        0.87676714451636
C            3.09583849482450       -1.67543140883453        0.46717185008054
C            2.39318992408350       -0.75480107022390       -0.28607729822162
C           -3.58223233094706       -0.05643603380996       -0.69410532025117
C           -4.85116372965986        0.47288017622490       -0.77437092114583
H           -6.34115860162682        1.69126953719989        0.17509463968108
H           -4.92815566032480        2.17343683411791        2.14521742727513
H           -2.66744593284529        1.22922923384870        2.30769738230839
H            0.24086036385762       -1.35561436000271        2.20028466409470
H            2.05517500674103       -0.15869111113553        3.36250110682843
H            2.33025319249899        2.27450628877674        3.05444584140413
H            0.77500972699835        3.50956068449549        1.58190783255244
H           -1.01613201417781        2.31430863760699        0.39418185197411
H           -3.10054746835461       -2.39428780741484        0.36929410847651
H           -2.44272207929426       -4.68561310683387       -0.20417616434718
H           -0.11467946822248       -5.17778647895558       -0.93510416955700
H            1.53033993319208       -3.35986431316746       -1.12282820751615
H           -1.16285770153142        0.09618598247987       -2.20427120511222
H           -1.22492025292167        2.34646229242329       -3.20629820769330
H            0.68116777568832        3.87662316106867       -2.98358244029766
H            2.73483820875554        3.17646638846688       -1.80205980247019
H            4.66974609071826        1.78618208258697       -0.42032740344197
H            5.94822503078573        0.11310366423539        0.87361692803159
H            4.94768240018796       -2.04596038087395        1.46617605415333
H            2.66317910368348       -2.62305902324230        0.74894432515871
H           -3.20401078114412       -0.67737134359875       -1.49225951161914
H           -5.46276087441953        0.25979925338977       -1.63849435307541

 projected vibrational frequencies (cm⁻¹)
eigval :       -0.00    -0.00     0.00     0.00     0.00     0.00
eigval :       12.76    31.89    41.07    56.16    71.21    74.01
eigval :       81.42    86.00   106.95   107.94   144.71   155.12
eigval :      173.62   184.34   227.76   240.61   247.27   265.37
eigval :      270.09   309.89   327.72   356.42   377.97   379.18
eigval :      383.66   388.58   399.88   410.39   423.26   434.18
eigval :      437.24   465.69   510.17   513.67   520.18   541.23
eigval :      556.16   572.69   580.46   583.28   588.51   590.02
eigval :      601.06   618.88   648.21   651.65   654.96   680.23
eigval :      689.40   704.48   715.50   742.35   745.27   751.51
eigval :      755.25   759.93   797.28   842.93   850.70   853.55
eigval :      856.25   861.22   877.38   879.61   883.05   884.63
eigval :      888.69   890.45   896.28   899.77   902.82   905.62
eigval :      913.32   916.44   918.05   921.66   926.33   963.89
eigval :      975.05  1001.53  1006.44  1038.92  1060.28  1068.08
eigval :     1071.78  1072.76  1097.44  1119.79  1123.28  1125.84
eigval :     1133.40  1157.44  1171.23  1172.54  1174.98  1175.66
eigval :     1177.25  1180.43  1192.24  1207.83  1218.14  1234.41
eigval :     1262.79  1268.24  1273.01  1280.70  1289.14  1290.40
eigval :     1314.00  1322.83  1328.36  1332.50  1336.26  1342.48
eigval :     1375.47  1395.11  1405.55  1417.67  1427.15  1432.88
eigval :     1436.82  1442.41  1451.47  1453.11  1470.56  1479.46
eigval :     1481.13  1502.03  1510.39  1518.58  1527.91  1558.64
eigval :     1563.79  1576.49  3074.23  3074.30  3074.65  3078.66
eigval :     3079.99  3080.62  3081.29  3084.03  3084.18  3085.39
eigval :     3089.25  3090.02  3090.47  3092.29  3093.05  3095.13
eigval :     3096.83  3098.04  3101.16  3102.66  3105.10  3108.64

   temp. (K)  partition function   enthalpy   heat capacity  entropy
                                   cal/mol     cal/K/mol   cal/K/mol   J/K/mol
 298.15  VIB  0.570E+10            14215.411     96.076     86.215
         ROT  0.137E+08              888.752      2.981     35.645
         INT  0.784E+17            15104.163     99.057    121.860
         TR   0.805E+28             1481.254      4.968     43.908
         TOT                       16585.4170   104.0254   165.7674   693.5708

       T/K    H(0)-H(T)+PV         H(T)/Eh          T*S/Eh         G(T)/Eh
   ------------------------------------------------------------------------
    298.15    0.264305E-01    0.442108E+00    0.787614E-01    0.363347E+00
   ------------------------------------------------------------------------

         :::::::::::::::::::::::::::::::::::::::::::::::::::::
         ::                  THERMODYNAMIC                  ::
         :::::::::::::::::::::::::::::::::::::::::::::::::::::
         :: total free energy         -80.869736156893 Eh   ::
         ::.................................................::
         :: total energy              -81.233082788704 Eh   ::
         :: zero point energy           0.415677531186 Eh   ::
         :: G(RRHO) w/o ZPVE           -0.052330899375 Eh   ::
         :: G(RRHO) contrib.            0.363346631810 Eh   ::
         :::::::::::::::::::::::::::::::::::::::::::::::::::::

           -------------------------------------------------
          | TOTAL ENERGY              -81.233082788704 Eh   |
          | TOTAL ENTHALPY            -80.790974713206 Eh   |
          | TOTAL FREE ENERGY         -80.869736156893 Eh   |
          | GRADIENT NORM               0.000063622340 Eh/α |
           -------------------------------------------------

 * finished run on 2025/08/26 at 03:46:21.394
