   * xtb version 6.7.1 (edcfbbe) compiled by 'albert@albert-system' on 2024-07-22

   ID    Z sym.   atoms
    1    6 C      1-29, 31-39, 41-52
    2    7 N      30, 40
    3    1 H      53-98

          program call               : xtb data2507/toluene/IPTAC/IPTAC_toluene_S0_crest.xyz --gfn 2 --gbsa toluene --ohess vtight --parallel 40 --molden --ceasefiles --namespace data2507/toluene/IPTAC/IPTAC_toluene_S0_finalOpt
      * Solvation model:               GBSA
        Solvent                        toluene
        Solvent mass                       9.2140E+01 g/mol
          :  Hamiltonian                  GFN2-xTB          :
 * total energy  :  -136.4783969 Eh     change       -0.2700062E-08 Eh
 * total energy  :  -136.4784648 Eh     change       -0.6790199E-04 Eh
 * total energy  :  -136.4785492 Eh     change       -0.8443377E-04 Eh
 * total energy  :  -136.4785802 Eh     change       -0.3097119E-04 Eh
 * total energy  :  -136.4786741 Eh     change       -0.9391681E-04 Eh
 * total energy  :  -136.4787003 Eh     change       -0.2626223E-04 Eh
 * total energy  :  -136.4787570 Eh     change       -0.5664117E-04 Eh
 * total energy  :  -136.4787759 Eh     change       -0.1888562E-04 Eh
 * total energy  :  -136.4788038 Eh     change       -0.2788811E-04 Eh
 * total energy  :  -136.4788193 Eh     change       -0.1556156E-04 Eh
 * total energy  :  -136.4788728 Eh     change       -0.3928976E-06 Eh
 * total energy  :  -136.4788731 Eh     change       -0.3481689E-06 Eh
 * total energy  :  -136.4788735 Eh     change       -0.3432462E-06 Eh
 * total energy  :  -136.4788736 Eh     change       -0.1817265E-06 Eh
 * total energy  :  -136.4788738 Eh     change       -0.1304393E-06 Eh
 * total energy  :  -136.4788739 Eh     change       -0.1292159E-06 Eh
 * total energy  :  -136.4788740 Eh     change       -0.1530096E-06 Eh
 * total energy  :  -136.4788742 Eh     change       -0.1627007E-06 Eh
 * total energy  :  -136.4788742 Eh     change       -0.1667132E-08 Eh
   *** GEOMETRY OPTIMIZATION CONVERGED AFTER 44 ITERATIONS ***

 final structure:
================
98
 xtb: 6.7.1 (edcfbbe)
C            7.37652116306294       -0.30587872951450        0.50811619183129
C            5.90430463419945       -0.04571609013451        0.39448474451186
C            5.21793733372702        0.65710835764144        1.37548634045338
C            3.85911953013712        0.88704725076810        1.26558303253051
C            3.14736371397500        0.41483943722233        0.16955137759667
C            1.69284071218150        0.66241668809290        0.05258406838042
C            0.80077018422865       -0.42480960463448        0.06058808956104
C            1.34692056424603       -1.79914353530564        0.06721853365200
C            2.11978742759268       -2.25012957047343        1.13053533699506
C            2.63599551203469       -3.53223055287083        1.12979427634580
C            2.40506277542861       -4.39884072395660        0.06923368670446
C            2.98093235619230       -5.79420988937614        0.07943463920986
C            3.95676361263062       -5.98845858085862       -1.08405439857600
C            1.86913261042196       -6.84563838624270        0.03930245056983
C            1.63509684776499       -3.94172498592638       -0.99409697973738
C            1.11176681012731       -2.66395329071752       -0.99617612432987
C           -0.56695211390761       -0.19950367005659        0.06467090100052
C           -1.45359016617522       -1.37846478660446       -0.03183809746661
C           -1.40386860320700       -2.41631945603015        0.89446477981493
C           -2.19861069312937       -3.53543822188895        0.74226893552204
C           -3.05960855956376       -3.66192826031548       -0.34187357521161
C           -3.92430783981196       -4.88622215119659       -0.51938249103445
C           -4.91894903791828       -5.02342275311005        0.63630873199423
C           -3.06550784757876       -6.14648983218291       -0.65268922912920
C           -3.10454141141188       -2.62522888721483       -1.26573566650824
C           -2.31562850129843       -1.50088377319329       -1.11745096624942
C           -1.07588097895430        1.12252804913424        0.03161338575479
C           -0.17506107423709        2.19395685507072       -0.21517045017950
C           -0.73295476728055        3.45480472349767       -0.61846266589605
N            0.06697926467429        4.52872632097487       -0.96586139525032
C           -2.09446222590431        3.61559676156301       -0.66620572567431
C           -2.99637514527584        2.63952371966747       -0.19979227476211
C           -4.41616524500314        2.86469556381414       -0.13749377611005
C           -5.02296383061064        4.01232038793734       -0.67910982768307
C           -6.38128565039248        4.19812190754363       -0.64517355664009
C           -7.20680911995404        3.23215250289801       -0.06807842561052
C           -6.65042513053736        2.10501534833440        0.47760281938627
C           -5.25950402524827        1.89810528313241        0.46754399351141
C           -4.66465113661188        0.74472099452836        1.07109924859770
N           -5.45273653188944       -0.17457179838680        1.75272540256848
C           -3.32395235578935        0.51694487776831        0.92001019084709
C           -2.47577692429249        1.40427522504801        0.22451367268842
C            1.21710175618283        1.95234470003944       -0.11565080995818
C            2.23095917969515        3.03161193914136       -0.13232412182564
C            2.29977191159214        3.94191647007817        0.91955411850083
C            3.29379173869972        4.89972199310195        0.95328141547719
C            4.24543722688603        4.98079752001404       -0.05787018276424
C            5.33546285544230        6.00781003595328        0.00128472600227
C            4.17184914625264        4.07435456961371       -1.10777369565803
C            3.18328536443410        3.10820873516792       -1.14437111179098
C            3.83053218208016       -0.29670128375434       -0.81102502801345
C            5.18865635287548       -0.51979913665767       -0.69941155326274
H            7.88220125570311       -0.05899875888240       -0.42406414851610
H            7.55592461228344       -1.36150935217894        0.71427520318401
H            7.81487183101546        0.28052171747095        1.31190686626477
H            5.75192956948316        1.03263912842034        2.23749683393119
H            3.34126610937918        1.43441182856313        2.04054889034342
H            2.30926058412882       -1.59347206222161        1.96801043194577
H            3.23137200285681       -3.86311621577616        1.97004723756672
H            3.53818600276460       -5.92394212957606        1.01454788725125
H            3.44208412209709       -5.90379125827990       -2.03806373268521
H            4.74086772482823       -5.23450793559826       -1.04873968825340
H            4.41823479605304       -6.97235456231912       -1.02828724156411
H            2.29323959612037       -7.84503245207128        0.11264982677270
H            1.18063358290819       -6.69897956459571        0.86904578319141
H            1.30632462041053       -6.77829899182494       -0.88840275449837
H            1.43726589630701       -4.58944998102514       -1.83560864919478
H            0.51743694015670       -2.32617057555611       -1.83375741747835
H           -0.74833678610347       -2.33527061641663        1.75018419918159
H           -2.14044122668869       -4.32136951211522        1.48107105182052
H           -4.49659788800012       -4.76504721614705       -1.44635287100227
H           -4.39740636646245       -5.16589589126188        1.57976474763995
H           -5.57116792769220       -5.87862488055589        0.47141944013132
H           -5.53321241947380       -4.12847057932255        0.71312606756730
H           -3.69460061869694       -7.01148538342737       -0.85276184636739
H           -2.35721835881706       -6.03545371005985       -1.47130058648101
H           -2.50609065001482       -6.33257689162592        0.26072698107311
H           -3.76587525754147       -2.69829287012308       -2.11830684231208
H           -2.36210169810936       -0.70651287711515       -1.84937152173663
H            0.98216341464306        4.32037073925780       -1.32856006081060
H           -0.41594981543571        5.26981457857889       -1.44948924879087
H           -2.46650415867862        4.56241887342733       -1.02666839237645
H           -4.41536969202458        4.76729467892082       -1.15240316524531
H           -6.81632125761455        5.08833821159177       -1.07665645541410
H           -8.27798072115641        3.37321552507008       -0.05737836435957
H           -7.29532219606067        1.34844012366129        0.89949039587128
H           -6.23229701766337        0.20883343013690        2.26442106404739
H           -4.92224625078044       -0.84465368875693        2.28963397563917
H           -2.90014607330602       -0.35077703376093        1.39864230230740
H            1.56668536631379        3.88943634439867        1.71165832959859
H            3.33594602096736        5.59529632839744        1.77955903123197
H            4.96049395530753        6.94646998727814        0.40415539677649
H            5.75475612279775        6.18765793115816       -0.98579877005235
H            6.13798370611660        5.65978350521377        0.65295937308281
H            4.90028369327417        4.11875678270906       -1.90527846844146
H            3.14179568574930        2.40844462744609       -1.96746487029961
H            3.29216873722053       -0.67007102150676       -1.67081481393452
H            5.70413792066437       -1.07052054123073       -1.47418701227939

          :  Hamiltonian                  GFN2-xTB          :
         :: gradient norm              0.000033206604 Eh/a0 ::
         :: HOMO-LUMO gap              2.074431400145 eV    ::
         :: SCC energy              -138.988148745455 Eh    ::
         :: -> dispersion             -0.140999569596 Eh    ::
         :: -> Gsolv                  -0.052647624864 Eh    ::
         :: repulsion energy           2.509274532938 Eh    ::

    * Orbital Energies and Occupations

         #    Occupation            Energy/Eh            Energy/eV
      -------------------------------------------------------------
         1        2.0000           -0.6508836             -17.7114
       ...           ...                  ...                  ...
       116        2.0000           -0.4009248             -10.9097
       117        2.0000           -0.3991096             -10.8603
       118        2.0000           -0.3981330             -10.8338
       119        2.0000           -0.3967921             -10.7973
       120        2.0000           -0.3961700             -10.7803
       121        2.0000           -0.3943425             -10.7306
       122        2.0000           -0.3872314             -10.5371
       123        2.0000           -0.3840393             -10.4502
       124        2.0000           -0.3789476             -10.3117
       125        2.0000           -0.3776405             -10.2761
       126        2.0000           -0.3710791             -10.0976
       127        2.0000           -0.3650513              -9.9336
       128        2.0000           -0.3323088              -9.0426 (HOMO)
       129                         -0.2560748              -6.9682 (LUMO)
       130                         -0.2442537              -6.6465
       131                         -0.2345997              -6.3838
       132                         -0.2212405              -6.0203
       133                         -0.2196253              -5.9763
       134                         -0.2182429              -5.9387
       135                         -0.2164963              -5.8912
       136                         -0.2143265              -5.8321
       137                         -0.2120361              -5.7698
       138                         -0.2116221              -5.7585
       139                         -0.2070437              -5.6339
       ...                                ...                  ...
       254                          0.7223792              19.6569
      -------------------------------------------------------------
                  HL-Gap            0.0762339 Eh            2.0744 eV

     #   Z          covCN         q      C6AA      α(0)
     1   6 C        3.757    -0.109    22.628     6.782
     2   6 C        2.966     0.014    27.698     8.633
     3   6 C        2.924    -0.042    29.033     8.836
     4   6 C        2.924    -0.035    28.876     8.812
     5   6 C        2.978     0.009    27.817     8.651
     6   6 C        2.986    -0.006    28.164     8.705
     7   6 C        2.983    -0.005    28.151     8.703
     8   6 C        2.978     0.011    27.768     8.644
     9   6 C        2.923    -0.034    28.852     8.809
    10   6 C        2.925    -0.041    29.012     8.833
    11   6 C        2.972     0.007    27.852     8.657
    12   6 C        3.855    -0.014    20.787     6.484
    13   6 C        3.755    -0.101    22.485     6.761
    14   6 C        3.755    -0.101    22.481     6.761
    15   6 C        2.924    -0.036    28.887     8.814
    16   6 C        2.924    -0.035    28.859     8.810
    17   6 C        2.978    -0.005    28.150     8.703
    18   6 C        2.979     0.014    27.694     8.632
    19   6 C        2.922    -0.037    28.920     8.819
    20   6 C        2.924    -0.037    28.919     8.819
    21   6 C        2.972     0.007    27.852     8.657
    22   6 C        3.855    -0.014    20.792     6.485
    23   6 C        3.755    -0.102    22.510     6.765
    24   6 C        3.755    -0.101    22.479     6.760
    25   6 C        2.924    -0.039    28.981     8.828
    26   6 C        2.924    -0.033    28.821     8.804
    27   6 C        2.982    -0.006    28.161     8.705
    28   6 C        2.981    -0.017    28.426     8.746
    29   6 C        2.891     0.069    26.454     8.433
    30   7 N        2.643    -0.297    27.659     7.811
    31   6 C        2.925    -0.079    29.977     8.979
    32   6 C        2.979    -0.008    28.220     8.714
    33   6 C        2.980     0.000    28.012     8.682
    34   6 C        2.921    -0.037    28.917     8.818
    35   6 C        2.916    -0.036    28.904     8.816
    36   6 C        2.916    -0.036    28.901     8.816
    37   6 C        2.920    -0.039    28.975     8.827
    38   6 C        2.987    -0.009    28.233     8.716
    39   6 C        2.893     0.064    26.568     8.451
    40   7 N        2.640    -0.295    27.607     7.803
    41   6 C        2.923    -0.075    29.864     8.962
    42   6 C        2.981    -0.006    28.153     8.704
    43   6 C        2.977    -0.008    28.202     8.711
    44   6 C        2.980     0.008    27.837     8.655
    45   6 C        2.923    -0.033    28.815     8.803
    46   6 C        2.924    -0.041    29.022     8.834
    47   6 C        2.966     0.015    27.682     8.630
    48   6 C        3.757    -0.110    22.658     6.787
    49   6 C        2.923    -0.043    29.075     8.843
    50   6 C        2.922    -0.041    29.027     8.835
    51   6 C        2.923    -0.034    28.850     8.808
    52   6 C        2.925    -0.042    29.039     8.837
    53   1 H        0.925     0.046     2.367     2.406
    54   1 H        0.924     0.048     2.345     2.395
    55   1 H        0.925     0.043     2.414     2.430
    56   1 H        0.925     0.028     2.608     2.526
    57   1 H        0.926     0.023     2.681     2.560
    58   1 H        0.926     0.023     2.693     2.566
    59   1 H        0.925     0.026     2.651     2.546
    60   1 H        0.924     0.030     2.586     2.515
    61   1 H        0.925     0.038     2.482     2.464
    62   1 H        0.925     0.032     2.565     2.504
    63   1 H        0.925     0.037     2.483     2.464
    64   1 H        0.925     0.037     2.483     2.464
    65   1 H        0.925     0.032     2.563     2.503
    66   1 H        0.925     0.038     2.475     2.460
    67   1 H        0.926     0.031     2.578     2.511
    68   1 H        0.926     0.021     2.711     2.575
    69   1 H        0.926     0.022     2.704     2.571
    70   1 H        0.926     0.030     2.588     2.516
    71   1 H        0.924     0.031     2.578     2.511
    72   1 H        0.925     0.037     2.487     2.466
    73   1 H        0.925     0.038     2.478     2.462
    74   1 H        0.925     0.034     2.536     2.490
    75   1 H        0.925     0.037     2.485     2.465
    76   1 H        0.925     0.031     2.567     2.506
    77   1 H        0.925     0.038     2.479     2.462
    78   1 H        0.925     0.027     2.633     2.538
    79   1 H        0.926     0.022     2.699     2.569
    80   1 H        0.860     0.170     1.274     1.768
    81   1 H        0.860     0.160     1.334     1.809
    82   1 H        0.926     0.021     2.719     2.579
    83   1 H        0.926     0.030     2.588     2.516
    84   1 H        0.926     0.026     2.637     2.539
    85   1 H        0.926     0.027     2.631     2.537
    86   1 H        0.926     0.030     2.583     2.513
    87   1 H        0.860     0.164     1.309     1.792
    88   1 H        0.860     0.159     1.340     1.813
    89   1 H        0.926     0.025     2.662     2.551
    90   1 H        0.926     0.030     2.586     2.515
    91   1 H        0.926     0.034     2.530     2.487
    92   1 H        0.925     0.047     2.357     2.401
    93   1 H        0.925     0.044     2.395     2.420
    94   1 H        0.924     0.050     2.316     2.380
    95   1 H        0.926     0.030     2.589     2.516
    96   1 H        0.926     0.023     2.695     2.567
    97   1 H        0.926     0.022     2.700     2.569
    98   1 H        0.925     0.029     2.602     2.523

molecular dipole:
                 x           y           z       tot (Debye)
 q only:        0.628      -0.170       0.176
   full:        0.707      -0.103       0.169       1.867

 projected vibrational frequencies (cm⁻¹)
eigval :       -0.00    -0.00    -0.00     0.00     0.00     0.00
eigval :      -35.22    12.15    15.23    17.64    21.85    23.24
eigval :       31.53    36.05    36.75    39.69    48.66    53.76
eigval :       62.85    66.82    71.13    72.85    81.58    84.04
eigval :       96.65   101.72   108.81   125.65   132.72   138.95
eigval :      142.04   154.37   162.10   173.09   183.28   186.98
eigval :      191.22   197.01   203.30   208.85   223.11   226.60
eigval :      236.78   242.10   249.72   252.51   273.39   284.07
eigval :      288.56   299.92   315.92   322.01   334.41   340.23
eigval :      351.32   354.41   356.95   372.17   374.39   374.89
eigval :      378.90   379.29   382.68   392.16   408.36   412.74
eigval :      417.33   438.44   447.65   461.99   474.27   482.11
eigval :      487.57   499.18   506.86   511.36   519.00   530.37
eigval :      532.90   545.61   550.53   552.57   568.85   573.54
eigval :      577.92   586.58   596.20   601.50   607.69   613.27
eigval :      614.93   626.31   649.72   657.98   666.25   672.39
eigval :      674.25   690.40   694.78   701.64   713.07   724.01
eigval :      736.32   736.89   751.74   761.97   770.79   782.28
eigval :      797.29   801.18   803.48   809.49   810.76   815.47
eigval :      832.58   850.21   857.79   862.34   866.34   866.80
eigval :      869.62   871.15   874.58   907.64   908.10   912.08
eigval :      912.24   914.11   916.63   922.21   923.97   924.58
eigval :      927.45   928.34   931.83   939.08   944.00   945.02
eigval :      947.76   984.36   985.06  1000.16  1003.19  1007.51
eigval :     1009.39  1017.09  1020.25  1030.66  1031.22  1037.00
eigval :     1048.63  1066.54  1077.91  1079.39  1092.29  1100.02
eigval :     1110.69  1135.51  1135.90  1137.96  1139.76  1141.21
eigval :     1142.95  1152.17  1168.03  1169.78  1185.10  1189.92
eigval :     1192.99  1198.20  1201.64  1202.61  1205.19  1220.49
eigval :     1226.86  1231.90  1237.23  1244.08  1248.69  1256.29
eigval :     1271.61  1275.46  1277.05  1278.00  1279.30  1281.26
eigval :     1298.87  1306.57  1309.70  1310.43  1312.37  1313.09
eigval :     1314.42  1318.77  1328.95  1344.21  1345.16  1369.04
eigval :     1385.28  1390.75  1396.83  1398.51  1399.46  1399.68
eigval :     1400.10  1400.93  1405.09  1406.70  1407.44  1409.01
eigval :     1412.08  1417.18  1417.57  1431.64  1472.87  1475.35
eigval :     1477.99  1478.64  1480.39  1481.79  1488.40  1490.94
eigval :     1491.94  1492.63  1494.60  1496.97  1497.33  1499.39
eigval :     1500.02  1500.95  1503.90  1506.79  1507.77  1511.46
eigval :     1518.65  1534.64  1541.86  1570.38  1570.92  1574.30
eigval :     1574.67  1576.92  1589.66  1601.75  1605.74  1607.15
eigval :     1608.30  1610.65  2922.51  2924.79  2993.02  2995.45
eigval :     3019.56  3021.74  3021.93  3025.85  3026.18  3026.73
eigval :     3027.96  3029.66  3030.24  3030.96  3037.55  3037.90
eigval :     3038.13  3040.01  3041.10  3042.04  3057.28  3058.48
eigval :     3060.70  3062.82  3063.48  3065.89  3066.08  3067.38
eigval :     3068.36  3072.24  3073.28  3073.82  3074.35  3075.67
eigval :     3078.59  3080.35  3080.69  3081.69  3082.71  3085.70
eigval :     3100.48  3113.57  3439.36  3449.24  3486.33  3505.91

   temp. (K)  partition function   enthalpy   heat capacity  entropy
                                   cal/mol     cal/K/mol   cal/K/mol   J/K/mol
 298.15  VIB  0.107E+23            28283.214    173.086    176.907
         ROT  0.916E+08              888.752      2.981     39.413
         INT  0.978E+30            29171.966    176.066    216.320
         TR   0.170E+29             1481.254      4.968     45.389
         TOT                       30653.2204   181.0345   261.7089  1094.9902

       T/K    H(0)-H(T)+PV         H(T)/Eh          T*S/Eh         G(T)/Eh
   ------------------------------------------------------------------------
    298.15    0.488490E-01    0.846857E+00    0.124346E+00    0.722511E+00
   ------------------------------------------------------------------------

         :::::::::::::::::::::::::::::::::::::::::::::::::::::
         ::                  THERMODYNAMIC                  ::
         :::::::::::::::::::::::::::::::::::::::::::::::::::::
         :: total free energy        -135.756363364903 Eh   ::
         ::.................................................::
         :: total energy             -136.478874216745 Eh   ::
         :: zero point energy           0.798008200320 Eh   ::
         :: G(RRHO) w/o ZPVE           -0.075497348478 Eh   ::
         :: G(RRHO) contrib.            0.722510851843 Eh   ::
         :::::::::::::::::::::::::::::::::::::::::::::::::::::

           -------------------------------------------------
          | TOTAL ENERGY             -136.478874216745 Eh   |
          | TOTAL ENTHALPY           -135.632017000360 Eh   |
          | TOTAL FREE ENERGY        -135.756363364903 Eh   |
          | GRADIENT NORM               0.000033216689 Eh/α |
          | HOMO-LUMO GAP               2.074431110559 eV   |
           -------------------------------------------------

 * finished run on 2025/08/25 at 00:08:53.414
