   * xtb version 6.7.1 (edcfbbe) compiled by 'albert@albert-system' on 2024-07-22

   ID    Z sym.   atoms
    1    6 C      1-29, 31-39, 41-52
    2    7 N      30, 40
    3    1 H      53-98

          program call               : xtb data2507/toluene/IPTAC/IPTAC_toluene_T1_crest.xyz --gfn 2 --uhf 2 --gbsa toluene --ohess vtight --parallel 40 --molden --ceasefiles --namespace data2507/toluene/IPTAC/IPTAC_toluene_T1_finalOpt
      * Solvation model:               GBSA
        Solvent                        toluene
        Solvent mass                       9.2140E+01 g/mol
          :  Hamiltonian                  GFN2-xTB          :
 * total energy  :  -136.4074466 Eh     change       -0.7824411E-08 Eh
 * total energy  :  -136.4075249 Eh     change       -0.7829825E-04 Eh
 * total energy  :  -136.4076107 Eh     change       -0.8581595E-04 Eh
 * total energy  :  -136.4076404 Eh     change       -0.2966981E-04 Eh
 * total energy  :  -136.4077074 Eh     change       -0.6700751E-04 Eh
 * total energy  :  -136.4077580 Eh     change       -0.5055944E-04 Eh
 * total energy  :  -136.4077880 Eh     change       -0.3006395E-04 Eh
 * total energy  :  -136.4078474 Eh     change       -0.5941210E-04 Eh
 * total energy  :  -136.4078841 Eh     change       -0.3670586E-04 Eh
 * total energy  :  -136.4079175 Eh     change       -0.3336414E-04 Eh
 * total energy  :  -136.4081893 Eh     change       -0.1733054E-05 Eh
 * total energy  :  -136.4081904 Eh     change       -0.1055289E-05 Eh
 * total energy  :  -136.4081912 Eh     change       -0.8270740E-06 Eh
 * total energy  :  -136.4081920 Eh     change       -0.7612114E-06 Eh
 * total energy  :  -136.4081925 Eh     change       -0.5143432E-06 Eh
 * total energy  :  -136.4081928 Eh     change       -0.3453554E-06 Eh
 * total energy  :  -136.4081930 Eh     change       -0.2271058E-06 Eh
 * total energy  :  -136.4081932 Eh     change       -0.1571959E-06 Eh
 * total energy  :  -136.4081933 Eh     change       -0.6636145E-07 Eh
   *** GEOMETRY OPTIMIZATION CONVERGED AFTER 39 ITERATIONS ***

 final structure:
================
98
 xtb: 6.7.1 (edcfbbe)
C            7.40117000218673       -0.75625434264540        0.37533524564311
C            5.94765750869589       -0.40624483014502        0.25950013842808
C            5.31636062041436        0.34041150081363        1.24725043587258
C            3.97381889011469        0.65174183150520        1.15389894389866
C            3.21940454338809        0.21870657990820        0.06848237518483
C            1.77949877053127        0.54464753383337       -0.02873565156263
C            0.84381667471523       -0.48535823711854       -0.03267728201476
C            1.28410609071094       -1.89040891166557       -0.03626424585300
C            2.11489344020385       -2.39073969985503        0.96262421592345
C            2.52527076722667       -3.70961163387230        0.94397576956113
C            2.12727442709175       -4.57364481667954       -0.06858837980641
C            2.58514199615136       -6.01201655294216       -0.07482978577039
C            3.40681409571322       -6.31964277918444       -1.32935524831872
C            1.39221752118259       -6.96435761135415        0.04214649130797
C            1.29726370325158       -4.07239387519140       -1.06543123548195
C            0.88007143537077       -2.75707088004316       -1.04989222400023
C           -0.54138512575231       -0.17433646078926        0.00402503108496
C           -1.50840518985235       -1.28681658267037       -0.00845513345358
C           -1.46043507706335       -2.31394136169392        0.93240742530667
C           -2.34201079863027       -3.37487596246640        0.86815157624221
C           -3.29622262714832       -3.45676575915306       -0.13972110010301
C           -4.24916870388655       -4.62438825646781       -0.22973076991671
C           -5.15231725012174       -4.69679526389802        1.00444059452309
C           -3.48403408616617       -5.93675132190579       -0.41926750783881
C           -3.34499784412876       -2.42965460179225       -1.07594969792705
C           -2.46932107800567       -1.36395634678820       -1.01473704086059
C           -0.95864230999383        1.15291677493752       -0.01405317883858
C           -0.01067505108649        2.19531684381129       -0.24752665762130
C           -0.50901150777035        3.44605512297715       -0.68533202769788
N            0.30291470640528        4.47326627525573       -1.08990352667735
C           -1.90808738028224        3.67249899577322       -0.78384895721461
C           -2.83298760103142        2.75960975215342       -0.35023878082257
C           -4.26595669293424        3.00543872394520       -0.35307993830499
C           -4.83419854284006        4.01718291699083       -1.12038186481125
C           -6.19838833170207        4.27541258735258       -1.08942510722724
C           -7.02253099696249        3.51362116114047       -0.27841169447548
C           -6.49206785751503        2.48687138615093        0.47610894758500
C           -5.11490647644568        2.19606418313421        0.44956605908778
C           -4.53975879073213        1.12282701671242        1.19297068093323
N           -5.27988410200074        0.38155437592787        2.08035964897882
C           -3.18239923552525        0.80295414868534        1.03178645694137
C           -2.34688110245597        1.52465699054882        0.21175833347926
C            1.37615179565975        1.88338233253140       -0.13262608039298
C            2.40227111807637        2.93142032430065       -0.04084413978092
C            2.33019287611046        3.89371427930107        0.97144834648266
C            3.31655110366608        4.84843160151255        1.11000445694875
C            4.40719551626080        4.88420459060315        0.24671204114114
C            5.49125801246672        5.90570457361456        0.41436505412479
C            4.47719735809846        3.93162590689613       -0.76451211471320
C            3.49816457273421        2.96854403430212       -0.90633652229918
C            3.84734984602857       -0.53366551804431       -0.91813369074410
C            5.19203373433169       -0.83796851068560       -0.82328098372233
H            7.51875268284300       -1.66579638476873        0.96634411308110
H            7.95218616466618        0.04007690183396        0.87136068036265
H            7.83779175203996       -0.93248234558510       -0.60515169597992
H            5.88492560541745        0.68510788060807        2.10013854366157
H            3.49935160860374        1.23116623629276        1.93360826664120
H            2.42905405613402       -1.74254109600524        1.76850303155469
H            3.16702152665798       -4.07448523147583        1.73498958466372
H            3.22975229979016       -6.16581387702346        0.79869668096688
H            2.79810617908258       -6.21824576078809       -2.22461068403214
H            4.24802973321412       -5.63345847639922       -1.40682617811694
H            3.79087479557430       -7.33698555659550       -1.28815743851679
H            1.73626507933425       -7.99534343862200        0.09602397741428
H            0.81933767083257       -6.74210212888489        0.94026831003864
H            0.73358995718676       -6.86529264418344       -0.81717692522373
H            0.96901713904664       -4.71572639522509       -1.86911067677118
H            0.24136125987954       -2.38682104758270       -1.83985098518957
H           -0.73125266624976       -2.27157357031453        1.72919065965367
H           -2.27658936913823       -4.15320343094654        1.61476427123508
H           -4.88731792422890       -4.47403244894159       -1.10852877732988
H           -4.56327867087385       -4.84713279687389        1.90597980749936
H           -5.85249946044590       -5.52425431401487        0.90953470269226
H           -5.72076475156464       -3.77517696342798        1.11217457504069
H           -4.17961964497435       -6.76207695214544       -0.55771242376135
H           -2.84039109071935       -5.87485043847308       -1.29453086261640
H           -2.86353739568851       -6.15165258507533        0.44717326436098
H           -4.07549972877300       -2.46921193642957       -1.87300126290196
H           -2.51905849295885       -0.58070331137206       -1.75870562200975
H            1.27400393307285        4.27412775816145       -1.26611095086415
H           -0.12337168413495        5.20029270827461       -1.64095390616290
H           -2.21811094077603        4.63072896007907       -1.17230286961910
H           -4.21055313236441        4.61270549613862       -1.76904723183242
H           -6.61007129892776        5.06908659841337       -1.69526204435317
H           -8.08343869911559        3.71601491552252       -0.23957365952002
H           -7.15807965483882        1.90508470555915        1.09603853335648
H           -6.28094650940103        0.37068052019370        1.98048821232716
H           -4.86492336262680       -0.47984821146623        2.39758738336319
H           -2.80044327136582       -0.04774000933649        1.57465579220039
H            1.49251459130241        3.87427338115634        1.65438557978095
H            3.24472149370900        5.57578448805738        1.90675814553645
H            5.91094125691297        6.18695452314480       -0.54936562164548
H            6.29795417940164        5.49616759567396        1.02439979906222
H            5.11240849322288        6.79676265002005        0.90998256375561
H            5.31356900072444        3.94255106057538       -1.44970477362398
H            3.56933891708867        2.24275171494651       -1.70382312592023
H            3.27684779820165       -0.87454887091205       -1.77097549011435
H            5.66183379079091       -1.42018278164359       -1.60426127785999

          :  Hamiltonian                  GFN2-xTB          :
         :: gradient norm              0.000042797592 Eh/a0 ::
         :: HOMO-LUMO gap              0.617521649265 eV    ::
         :: SCC energy              -138.904806978131 Eh    ::
         :: -> dispersion             -0.140851662791 Eh    ::
         :: -> Gsolv                  -0.052451107588 Eh    ::
         :: repulsion energy           2.496613683269 Eh    ::

    * Orbital Energies and Occupations

         #    Occupation            Energy/Eh            Energy/eV
      -------------------------------------------------------------
         1        2.0000           -0.6541954             -17.8016
       ...           ...                  ...                  ...
       117        2.0000           -0.3990724             -10.8593
       118        2.0000           -0.3967486             -10.7961
       119        2.0000           -0.3962665             -10.7830
       120        2.0000           -0.3935724             -10.7096
       121        2.0000           -0.3924750             -10.6798
       122        2.0000           -0.3880637             -10.5597
       123        2.0000           -0.3833255             -10.4308
       124        2.0000           -0.3811709             -10.3722
       125        2.0000           -0.3752878             -10.2121
       126        2.0000           -0.3672286              -9.9928
       127        2.0000           -0.3633238              -9.8865
       128        1.0000           -0.3268084              -8.8929
       129        1.0000           -0.2639401              -7.1822 (HOMO)
       130        0.0000           -0.2412467              -6.5647 (LUMO)
       131                         -0.2367280              -6.4417
       132                         -0.2189280              -5.9573
       133                         -0.2167895              -5.8991
       134                         -0.2163990              -5.8885
       135                         -0.2141117              -5.8263
       136                         -0.2121432              -5.7727
       137                         -0.2104514              -5.7267
       138                         -0.2090391              -5.6882
       139                         -0.2057453              -5.5986
       140                         -0.1873246              -5.0974
       ...                                ...                  ...
       254                          0.7354322              20.0121
      -------------------------------------------------------------
                  HL-Gap            0.0226935 Eh            0.6175 eV

     #   Z          covCN         q      C6AA      α(0)
     1   6 C        3.757    -0.108    22.613     6.780
     2   6 C        2.966     0.013    27.727     8.637
     3   6 C        2.924    -0.042    29.049     8.839
     4   6 C        2.923    -0.034    28.857     8.809
     5   6 C        2.978     0.010    27.780     8.646
     6   6 C        2.978    -0.005    28.148     8.703
     7   6 C        2.979    -0.015    28.382     8.739
     8   6 C        2.976     0.010    27.786     8.647
     9   6 C        2.923    -0.036    28.900     8.816
    10   6 C        2.924    -0.042    29.036     8.837
    11   6 C        2.972     0.004    27.925     8.668
    12   6 C        3.854    -0.014    20.785     6.484
    13   6 C        3.755    -0.101    22.475     6.760
    14   6 C        3.755    -0.100    22.466     6.758
    15   6 C        2.923    -0.037    28.919     8.819
    16   6 C        2.924    -0.036    28.893     8.815
    17   6 C        2.976    -0.015    28.392     8.740
    18   6 C        2.976     0.012    27.751     8.641
    19   6 C        2.922    -0.038    28.946     8.823
    20   6 C        2.923    -0.038    28.950     8.824
    21   6 C        2.972     0.003    27.965     8.674
    22   6 C        3.854    -0.014    20.791     6.485
    23   6 C        3.755    -0.102    22.494     6.763
    24   6 C        3.756    -0.100    22.467     6.758
    25   6 C        2.924    -0.043    29.058     8.840
    26   6 C        2.924    -0.037    28.910     8.818
    27   6 C        2.982    -0.005    28.142     8.702
    28   6 C        2.976    -0.022    28.542     8.763
    29   6 C        2.892     0.066    26.521     8.443
    30   7 N        2.643    -0.257    26.672     7.670
    31   6 C        2.922    -0.066    29.655     8.930
    32   6 C        2.975    -0.002    28.082     8.692
    33   6 C        2.979     0.003    27.961     8.674
    34   6 C        2.921    -0.042    29.051     8.839
    35   6 C        2.916    -0.040    29.002     8.831
    36   6 C        2.914    -0.035    28.861     8.809
    37   6 C        2.919    -0.047    29.165     8.856
    38   6 C        2.979    -0.008    28.223     8.714
    39   6 C        2.893     0.063    26.583     8.453
    40   7 N        2.641    -0.251    26.522     7.649
    41   6 C        2.920    -0.063    29.567     8.917
    42   6 C        2.979     0.000    28.022     8.683
    43   6 C        2.974    -0.023    28.572     8.768
    44   6 C        2.975     0.002    27.983     8.677
    45   6 C        2.922    -0.039    28.976     8.828
    46   6 C        2.922    -0.043    29.078     8.843
    47   6 C        2.965     0.009    27.813     8.650
    48   6 C        3.757    -0.108    22.623     6.781
    49   6 C        2.923    -0.045    29.108     8.848
    50   6 C        2.921    -0.043    29.075     8.842
    51   6 C        2.923    -0.035    28.863     8.810
    52   6 C        2.924    -0.042    29.044     8.838
    53   1 H        0.924     0.047     2.352     2.398
    54   1 H        0.925     0.044     2.398     2.422
    55   1 H        0.925     0.043     2.414     2.429
    56   1 H        0.925     0.027     2.630     2.536
    57   1 H        0.926     0.022     2.704     2.571
    58   1 H        0.926     0.020     2.740     2.588
    59   1 H        0.925     0.022     2.708     2.573
    60   1 H        0.924     0.029     2.607     2.525
    61   1 H        0.925     0.037     2.492     2.469
    62   1 H        0.925     0.031     2.573     2.508
    63   1 H        0.925     0.037     2.494     2.470
    64   1 H        0.925     0.037     2.493     2.469
    65   1 H        0.925     0.031     2.575     2.509
    66   1 H        0.925     0.037     2.486     2.465
    67   1 H        0.926     0.027     2.634     2.538
    68   1 H        0.925     0.019     2.742     2.589
    69   1 H        0.926     0.020     2.732     2.585
    70   1 H        0.926     0.027     2.631     2.536
    71   1 H        0.924     0.029     2.599     2.521
    72   1 H        0.925     0.037     2.484     2.465
    73   1 H        0.925     0.037     2.482     2.464
    74   1 H        0.925     0.030     2.582     2.513
    75   1 H        0.925     0.036     2.498     2.472
    76   1 H        0.925     0.030     2.580     2.512
    77   1 H        0.925     0.037     2.485     2.465
    78   1 H        0.925     0.023     2.690     2.565
    79   1 H        0.925     0.020     2.735     2.586
    80   1 H        0.860     0.180     1.212     1.725
    81   1 H        0.860     0.174     1.250     1.752
    82   1 H        0.926     0.031     2.578     2.511
    83   1 H        0.926     0.028     2.622     2.532
    84   1 H        0.926     0.025     2.666     2.553
    85   1 H        0.926     0.025     2.653     2.547
    86   1 H        0.926     0.022     2.696     2.568
    87   1 H        0.860     0.176     1.240     1.744
    88   1 H        0.860     0.174     1.250     1.751
    89   1 H        0.926     0.030     2.581     2.512
    90   1 H        0.926     0.026     2.642     2.542
    91   1 H        0.925     0.029     2.604     2.523
    92   1 H        0.925     0.043     2.412     2.429
    93   1 H        0.924     0.047     2.362     2.403
    94   1 H        0.925     0.043     2.406     2.426
    95   1 H        0.925     0.025     2.654     2.548
    96   1 H        0.926     0.020     2.737     2.587
    97   1 H        0.926     0.020     2.727     2.582
    98   1 H        0.925     0.026     2.645     2.543

molecular dipole:
                 x           y           z       tot (Debye)
 q only:       -0.460       0.238       0.183
   full:       -0.410       0.064      -0.023       1.056

 projected vibrational frequencies (cm⁻¹)
eigval :       -0.00    -0.00    -0.00     0.00     0.00     0.00
eigval :        8.83    15.78    19.53    20.32    24.73    30.75
eigval :       31.81    34.30    39.23    41.86    43.58    52.25
eigval :       54.26    63.35    71.37    75.45    84.23    88.31
eigval :       96.25    97.65   105.17   119.90   131.15   138.57
eigval :      142.01   155.12   158.18   170.83   182.70   184.78
eigval :      187.17   191.28   199.15   203.24   215.74   226.03
eigval :      230.44   237.02   248.14   249.47   270.94   286.29
eigval :      294.65   307.31   314.84   321.63   329.52   336.53
eigval :      339.30   343.39   352.28   361.22   375.06   375.94
eigval :      378.76   380.59   387.38   393.01   405.28   407.24
eigval :      416.57   433.51   441.76   451.85   457.05   473.30
eigval :      476.03   483.01   484.02   495.80   498.44   508.89
eigval :      510.71   521.54   528.97   541.03   545.78   546.43
eigval :      559.01   568.32   583.59   590.36   596.71   601.19
eigval :      607.25   612.56   616.11   637.45   650.26   658.05
eigval :      664.78   681.65   689.02   694.22   705.59   709.99
eigval :      716.80   733.16   749.35   751.04   757.24   781.25
eigval :      794.39   797.62   801.11   805.00   813.85   814.86
eigval :      828.49   831.58   844.28   850.19   858.92   866.24
eigval :      870.29   870.91   874.05   886.05   901.89   910.13
eigval :      910.53   912.88   915.02   918.47   922.42   924.99
eigval :      927.05   929.09   929.89   938.44   942.73   946.24
eigval :      948.16   983.29   985.10   986.35   993.79  1004.64
eigval :     1007.18  1007.66  1010.44  1018.15  1021.05  1030.40
eigval :     1031.11  1050.85  1077.89  1078.51  1089.39  1093.02
eigval :     1112.18  1135.35  1135.74  1136.20  1139.45  1141.47
eigval :     1143.75  1145.22  1168.07  1169.65  1170.67  1179.23
eigval :     1185.83  1198.23  1201.32  1202.91  1205.67  1218.34
eigval :     1226.91  1229.16  1234.31  1242.24  1244.99  1253.53
eigval :     1256.31  1268.41  1276.36  1277.34  1278.40  1280.53
eigval :     1284.87  1291.54  1307.36  1308.11  1313.52  1313.92
eigval :     1314.72  1318.23  1322.18  1345.03  1346.32  1355.97
eigval :     1361.15  1374.14  1380.41  1386.09  1399.47  1400.37
eigval :     1400.76  1401.08  1401.26  1402.11  1405.01  1407.18
eigval :     1409.80  1413.28  1417.11  1418.58  1421.99  1440.86
eigval :     1445.59  1466.19  1474.35  1478.75  1479.88  1480.79
eigval :     1481.16  1486.90  1489.66  1490.04  1491.36  1493.13
eigval :     1494.07  1496.10  1497.16  1499.54  1501.63  1505.20
eigval :     1508.03  1510.08  1528.16  1534.05  1538.64  1550.46
eigval :     1562.18  1564.66  1570.60  1574.06  1595.27  1599.80
eigval :     1602.37  1609.14  2919.81  2919.87  2987.20  2988.53
eigval :     3020.33  3021.24  3024.39  3025.12  3025.86  3027.03
eigval :     3027.52  3028.36  3029.50  3029.85  3033.53  3034.45
eigval :     3037.76  3037.95  3041.02  3041.94  3052.92  3053.32
eigval :     3058.36  3061.06  3061.36  3063.56  3063.79  3064.03
eigval :     3066.35  3068.20  3071.46  3072.68  3073.99  3075.28
eigval :     3076.64  3078.00  3079.21  3079.57  3079.94  3082.63
eigval :     3093.88  3095.52  3436.62  3453.63  3504.69  3511.71

   temp. (K)  partition function   enthalpy   heat capacity  entropy
                                   cal/mol     cal/K/mol   cal/K/mol   J/K/mol
 298.15  VIB  0.175E+24            29186.528    175.897    183.464
         ROT  0.920E+08              888.752      2.981     39.422
         INT  0.161E+32            30075.280    178.878    222.885
         TR   0.170E+29             1481.254      4.968     45.389
         TOT                       31556.5338   183.8463   268.2743  1122.4596

       T/K    H(0)-H(T)+PV         H(T)/Eh          T*S/Eh         G(T)/Eh
   ------------------------------------------------------------------------
    298.15    0.502885E-01    0.844490E+00    0.127466E+00    0.717024E+00
   ------------------------------------------------------------------------

         :::::::::::::::::::::::::::::::::::::::::::::::::::::
         ::                  THERMODYNAMIC                  ::
         :::::::::::::::::::::::::::::::::::::::::::::::::::::
         :: total free energy        -135.691169073464 Eh   ::
         ::.................................................::
         :: total energy             -136.408193297488 Eh   ::
         :: zero point energy           0.794201460342 Eh   ::
         :: G(RRHO) w/o ZPVE           -0.077177236319 Eh   ::
         :: G(RRHO) contrib.            0.717024224024 Eh   ::
         :::::::::::::::::::::::::::::::::::::::::::::::::::::

           -------------------------------------------------
          | TOTAL ENERGY             -136.408193297488 Eh   |
          | TOTAL ENTHALPY           -135.563703299462 Eh   |
          | TOTAL FREE ENERGY        -135.691169073464 Eh   |
          | GRADIENT NORM               0.000042710367 Eh/α |
          | HOMO-LUMO GAP               0.617520774141 eV   |
           -------------------------------------------------

 * finished run on 2025/08/25 at 00:18:08.981
