   * xtb version 6.7.1 (edcfbbe) compiled by 'albert@albert-system' on 2024-07-22

   ID    Z sym.   atoms
    1    6 C      1-29, 31-39, 41-52
    2    7 N      30, 40
    3    1 H      53-98

          program call               : xtb data2507/toluene/IPTAC/IPTAC_toluene_S0_finalOpt.xtbopt.xyz --gfn 2 --uhf 2 --gbsa toluene --ohess vtight --parallel 40 --molden --ceasefiles --namespace data2507/toluene/IPTAC/IPTAC_toluene_T1_preOpt
      * Solvation model:               GBSA
        Solvent                        toluene
        Solvent mass                       9.2140E+01 g/mol
          :  Hamiltonian                  GFN2-xTB          :
 * total energy  :  -136.3985845 Eh     change       -0.4003113E-08 Eh
 * total energy  :  -136.4044539 Eh     change       -0.5869407E-02 Eh
 * total energy  :  -136.4064645 Eh     change       -0.2010576E-02 Eh
 * total energy  :  -136.4067616 Eh     change       -0.2970983E-03 Eh
 * total energy  :  -136.4070629 Eh     change       -0.3013238E-03 Eh
 * total energy  :  -136.4072169 Eh     change       -0.1540079E-03 Eh
 * total energy  :  -136.4073541 Eh     change       -0.1371553E-03 Eh
 * total energy  :  -136.4074359 Eh     change       -0.8181468E-04 Eh
 * total energy  :  -136.4074909 Eh     change       -0.5495607E-04 Eh
 * total energy  :  -136.4075314 Eh     change       -0.4049223E-04 Eh
 * total energy  :  -136.4080609 Eh     change       -0.4080278E-06 Eh
 * total energy  :  -136.4080612 Eh     change       -0.3005380E-06 Eh
 * total energy  :  -136.4080615 Eh     change       -0.2898148E-06 Eh
 * total energy  :  -136.4080618 Eh     change       -0.3048475E-06 Eh
 * total energy  :  -136.4080620 Eh     change       -0.2407289E-06 Eh
 * total energy  :  -136.4080622 Eh     change       -0.2414641E-06 Eh
 * total energy  :  -136.4080625 Eh     change       -0.2545392E-06 Eh
 * total energy  :  -136.4080628 Eh     change       -0.2918432E-06 Eh
 * total energy  :  -136.4080628 Eh     change       -0.9755922E-08 Eh
   *** GEOMETRY OPTIMIZATION CONVERGED AFTER 68 ITERATIONS ***

 final structure:
================
98
 xtb: 6.7.1 (edcfbbe)
C            7.45776796353853       -0.32198485292578        0.39872251497452
C            5.98536774387126       -0.05951291778647        0.29032301752272
C            5.30642475429825        0.64816418658023        1.27359521730826
C            3.94737490693218        0.87909506983792        1.17286513973437
C            3.22556479548267        0.40140478222690        0.08482638947103
C            1.77008279763635        0.64318435210417       -0.02291673111070
C            0.89609078933165       -0.43864342007440       -0.04243301858589
C            1.41636987076610       -1.81596730285653       -0.03960586989489
C            2.25909631435175       -2.26696608102040        0.97270297269162
C            2.74081970292526       -3.56158663529309        0.96522187287689
C            2.40327049421629       -4.44967975222388       -0.04848008145923
C            2.93001136436278       -5.86426316856262       -0.03731480548116
C            3.77236170943496       -6.14821717606116       -1.28352213574410
C            1.78132681708351       -6.86927129972923        0.08385422897377
C            1.56371203071423       -3.99660557058082       -1.06028815211014
C            1.07611035956458       -2.70569576164414       -1.05658124043303
C           -0.50562139132621       -0.20920808975301       -0.02350103672946
C           -1.40740083666333       -1.37433370305164       -0.06147210911361
C           -1.31997253097750       -2.40473771173629        0.87272419770158
C           -2.15018655633794       -3.50507776692918        0.79176366359395
C           -3.08839073743293       -3.62416102097231       -0.22705883828096
C           -3.99461775810695       -4.82722745169437       -0.32592578858664
C           -4.91045554467388       -4.92195977448409        0.89736455677387
C           -3.18122880973373       -6.11255172136629       -0.49851127688916
C           -3.17207971377369       -2.59692177073211       -1.16024030811771
C           -2.34846028605877       -1.49193642225617       -1.08230792035879
C           -1.00026842015251        1.09184435619147       -0.03286541782064
C           -0.11148281864704        2.18957553201607       -0.24507829549132
C           -0.67760685309087        3.41515485051375       -0.67211886489450
N            0.07649350009763        4.49049171539168       -1.06511668296647
C           -2.08674465907336        3.56583679431722       -0.76992204482221
C           -2.96166559559060        2.59692377470912       -0.35492755421144
C           -4.40620705770556        2.76411143256718       -0.36208851039232
C           -5.02679771607044        3.76690602731400       -1.10053905763551
C           -6.40507839113528        3.93658495124306       -1.08340542407793
C           -7.19327988940396        3.08517789587959       -0.32775153169234
C           -6.60958023548602        2.06658824910802        0.39831329412904
C           -5.21481151955718        1.87979816247282        0.40085093216139
C           -4.58282622945922        0.83707440703282        1.14197916683814
N           -5.30745016298973       -0.01210641633166        1.94126472775322
C           -3.21103183047029        0.59169147127355        0.97911690625139
C           -2.41081173535159        1.37679244805931        0.18132889272958
C            1.29006733011525        1.95738537378018       -0.12351273136905
C            2.25433683431053        3.06191671831215       -0.02486633845614
C            2.12676463807072        4.01453019795839        0.99126796759816
C            3.05346459335350        5.02684186699735        1.13073426709301
C            4.13773286695413        5.13197376474953        0.26462205380007
C            5.15404168087785        6.22087456059024        0.43266949921157
C            4.26476817879942        4.18694509280781       -0.74780794937421
C            3.34574453153121        3.16631807326317       -0.89036596644692
C            3.90203192384493       -0.31532987798336       -0.89731928164184
C            5.26110136612790       -0.53847293681731       -0.79546681329015
H            7.94539495197214       -0.18278029084816       -0.56448920720492
H            7.63142108794661       -1.35143084705918        0.71484624659288
H            7.91856685889196        0.34105612379735        1.12708721933804
H            5.84769070199511        1.02749193049416        2.12956517472985
H            3.43601189432207        1.43040102642487        1.94964212757718
H            2.52587864799357       -1.59996336492978        1.78037381985665
H            3.38969009259350       -3.88848671674518        1.76697579997644
H            3.57571919544988       -5.97815206214540        0.84153888239254
H            3.16508710945143       -6.08601582374138       -2.18326980181415
H            4.58173478950146       -5.42514974883907       -1.36494760791913
H            4.20256841782949       -7.14623791226355       -1.22777936710771
H            2.17180944891161       -7.88271785700813        0.15221155888622
H            1.19254028265721       -6.66303623527393        0.97552289097986
H            1.12460476491888       -6.81029265928298       -0.78065114330808
H            1.28191938250679       -4.65954626024384       -1.86559148647930
H            0.42997498610375       -2.37329673904766       -1.85718782431390
H           -0.60359088593376       -2.33214301585406        1.67911005407621
H           -2.05829020725593       -4.28354754988678        1.53545467075035
H           -4.62625044829563       -4.70346561852771       -1.21339521629779
H           -4.32839433865615       -5.06685896609587        1.80434229366989
H           -5.59553184113329       -5.76061103671737        0.79069459694370
H           -5.49335267822903       -4.00912536832055        1.00295489078351
H           -3.84538146527452       -6.96377255187003       -0.63481074806311
H           -2.53367539035373       -6.03486120208977       -1.36972456848729
H           -2.55952447504278       -6.29787823521386        0.37396203355288
H           -3.89069962060002       -2.66558748762245       -1.96584683536542
H           -2.42568703310966       -0.70698040734095       -1.82215863316852
H            1.05622377203626        4.34459452507624       -1.24600412185763
H           -0.38962797760310        5.19416754770260       -1.61447023240967
H           -2.44711457660676        4.51212625889004       -1.14391959226024
H           -4.43429378580512        4.42523075257392       -1.71680661667300
H           -6.85680596160672        4.72761815445368       -1.66376373014420
H           -8.26664608968065        3.21004659566910       -0.31178670664940
H           -7.24529714481697        1.39617245341804        0.95715703284474
H           -6.19272920485258        0.30416447965050        2.29949989949792
H           -4.77889081992597       -0.61722874091206        2.54858100719594
H           -2.78637300357906       -0.24543672687599        1.51098523862745
H            1.29284362029464        3.94254618477128        1.67523636237941
H            2.93944334051470        5.74660843864620        1.92947472351436
H            4.70249789639979        7.10946969660388        0.86866080997614
H            5.60262022146570        6.48330183633769       -0.52312970243748
H            5.95194562252562        5.88703204729430        1.09795861975870
H            5.09761231308580        4.24991976782928       -1.43447195796038
H            3.45953471704571        2.44771965827097       -1.68947053984454
H            3.35620891693392       -0.69163719104811       -1.75137016795844
H            5.77004902762406       -1.09283608422489       -1.57217312617482

          :  Hamiltonian                  GFN2-xTB          :
         :: gradient norm              0.000050463382 Eh/a0 ::
         :: HOMO-LUMO gap              0.607792230128 eV    ::
         :: SCC energy              -138.904746786569 Eh    ::
         :: -> dispersion             -0.140855813083 Eh    ::
         :: -> Gsolv                  -0.052577006597 Eh    ::
         :: repulsion energy           2.496683984295 Eh    ::

    * Orbital Energies and Occupations

         #    Occupation            Energy/Eh            Energy/eV
      -------------------------------------------------------------
         1        2.0000           -0.6540709             -17.7982
       ...           ...                  ...                  ...
       117        2.0000           -0.3985922             -10.8462
       118        2.0000           -0.3964811             -10.7888
       119        2.0000           -0.3951444             -10.7524
       120        2.0000           -0.3927793             -10.6881
       121        2.0000           -0.3922677             -10.6741
       122        2.0000           -0.3873627             -10.5407
       123        2.0000           -0.3830489             -10.4233
       124        2.0000           -0.3808345             -10.3630
       125        2.0000           -0.3749682             -10.2034
       126        2.0000           -0.3669798              -9.9860
       127        2.0000           -0.3627042              -9.8697
       128        1.0000           -0.3270635              -8.8999
       129        1.0000           -0.2634208              -7.1680 (HOMO)
       130        0.0000           -0.2410849              -6.5603 (LUMO)
       131                         -0.2362897              -6.4298
       132                         -0.2184952              -5.9456
       133                         -0.2166414              -5.8951
       134                         -0.2161167              -5.8808
       135                         -0.2128071              -5.7908
       136                         -0.2114995              -5.7552
       137                         -0.2099254              -5.7124
       138                         -0.2082894              -5.6678
       139                         -0.2054991              -5.5919
       140                         -0.1868940              -5.0856
       ...                                ...                  ...
       254                          0.7352343              20.0067
      -------------------------------------------------------------
                  HL-Gap            0.0223360 Eh            0.6078 eV

     #   Z          covCN         q      C6AA      α(0)
     1   6 C        3.757    -0.108    22.613     6.780
     2   6 C        2.966     0.013    27.728     8.637
     3   6 C        2.924    -0.042    29.046     8.838
     4   6 C        2.924    -0.035    28.860     8.810
     5   6 C        2.978     0.010    27.782     8.646
     6   6 C        2.978    -0.005    28.152     8.703
     7   6 C        2.979    -0.015    28.375     8.738
     8   6 C        2.976     0.010    27.784     8.646
     9   6 C        2.923    -0.036    28.901     8.816
    10   6 C        2.924    -0.042    29.038     8.837
    11   6 C        2.972     0.004    27.924     8.668
    12   6 C        3.854    -0.014    20.785     6.484
    13   6 C        3.755    -0.101    22.476     6.760
    14   6 C        3.755    -0.100    22.465     6.758
    15   6 C        2.924    -0.037    28.916     8.818
    16   6 C        2.924    -0.036    28.887     8.814
    17   6 C        2.976    -0.015    28.392     8.740
    18   6 C        2.976     0.011    27.754     8.642
    19   6 C        2.922    -0.038    28.949     8.823
    20   6 C        2.923    -0.038    28.939     8.822
    21   6 C        2.972     0.004    27.933     8.669
    22   6 C        3.854    -0.014    20.792     6.485
    23   6 C        3.755    -0.102    22.506     6.764
    24   6 C        3.755    -0.100    22.466     6.758
    25   6 C        2.924    -0.041    29.025     8.835
    26   6 C        2.924    -0.036    28.889     8.814
    27   6 C        2.982    -0.005    28.148     8.703
    28   6 C        2.975    -0.022    28.542     8.763
    29   6 C        2.892     0.066    26.529     8.445
    30   7 N        2.643    -0.258    26.692     7.673
    31   6 C        2.922    -0.066    29.655     8.930
    32   6 C        2.974    -0.003    28.092     8.694
    33   6 C        2.979     0.002    27.968     8.675
    34   6 C        2.921    -0.042    29.053     8.839
    35   6 C        2.916    -0.040    29.001     8.831
    36   6 C        2.914    -0.035    28.862     8.810
    37   6 C        2.920    -0.048    29.180     8.858
    38   6 C        2.980    -0.009    28.226     8.715
    39   6 C        2.893     0.063    26.589     8.454
    40   7 N        2.641    -0.250    26.521     7.648
    41   6 C        2.920    -0.063    29.575     8.918
    42   6 C        2.979    -0.000    28.034     8.685
    43   6 C        2.974    -0.023    28.581     8.769
    44   6 C        2.975     0.002    27.982     8.677
    45   6 C        2.922    -0.039    28.976     8.827
    46   6 C        2.922    -0.044    29.081     8.843
    47   6 C        2.965     0.009    27.816     8.651
    48   6 C        3.757    -0.108    22.623     6.781
    49   6 C        2.922    -0.045    29.108     8.848
    50   6 C        2.921    -0.043    29.076     8.843
    51   6 C        2.923    -0.035    28.863     8.810
    52   6 C        2.924    -0.042    29.048     8.839
    53   1 H        0.925     0.045     2.389     2.417
    54   1 H        0.924     0.047     2.356     2.400
    55   1 H        0.925     0.042     2.421     2.433
    56   1 H        0.925     0.026     2.640     2.541
    57   1 H        0.926     0.022     2.707     2.573
    58   1 H        0.926     0.019     2.743     2.590
    59   1 H        0.925     0.022     2.710     2.574
    60   1 H        0.924     0.029     2.608     2.525
    61   1 H        0.925     0.037     2.490     2.468
    62   1 H        0.925     0.031     2.575     2.509
    63   1 H        0.925     0.037     2.495     2.470
    64   1 H        0.925     0.037     2.493     2.469
    65   1 H        0.925     0.031     2.574     2.509
    66   1 H        0.925     0.037     2.483     2.464
    67   1 H        0.926     0.027     2.630     2.536
    68   1 H        0.926     0.020     2.736     2.587
    69   1 H        0.926     0.019     2.747     2.592
    70   1 H        0.926     0.027     2.633     2.538
    71   1 H        0.924     0.029     2.597     2.520
    72   1 H        0.925     0.037     2.489     2.467
    73   1 H        0.925     0.037     2.490     2.468
    74   1 H        0.925     0.033     2.541     2.493
    75   1 H        0.925     0.036     2.500     2.473
    76   1 H        0.925     0.030     2.585     2.514
    77   1 H        0.925     0.037     2.489     2.467
    78   1 H        0.925     0.023     2.682     2.561
    79   1 H        0.925     0.020     2.739     2.588
    80   1 H        0.860     0.180     1.213     1.725
    81   1 H        0.860     0.174     1.252     1.752
    82   1 H        0.926     0.030     2.582     2.513
    83   1 H        0.926     0.027     2.628     2.535
    84   1 H        0.926     0.024     2.669     2.555
    85   1 H        0.926     0.025     2.655     2.548
    86   1 H        0.926     0.024     2.667     2.554
    87   1 H        0.860     0.176     1.235     1.741
    88   1 H        0.860     0.174     1.251     1.752
    89   1 H        0.926     0.031     2.577     2.510
    90   1 H        0.926     0.026     2.647     2.544
    91   1 H        0.925     0.029     2.604     2.524
    92   1 H        0.925     0.044     2.402     2.424
    93   1 H        0.925     0.042     2.418     2.432
    94   1 H        0.924     0.047     2.361     2.403
    95   1 H        0.925     0.025     2.657     2.549
    96   1 H        0.926     0.020     2.740     2.588
    97   1 H        0.926     0.021     2.724     2.581
    98   1 H        0.925     0.027     2.636     2.539

molecular dipole:
                 x           y           z       tot (Debye)
 q only:       -0.480       0.342       0.400
   full:       -0.367       0.371       0.422       1.705

 projected vibrational frequencies (cm⁻¹)
eigval :       -0.00    -0.00    -0.00    -0.00     0.00     0.00
eigval :       11.73    16.49    20.40    22.63    30.77    32.73
eigval :       35.32    37.19    45.80    49.80    52.95    59.64
eigval :       67.89    72.40    75.46    75.82    85.20    87.63
eigval :       95.90   100.36   106.79   123.65   132.42   137.76
eigval :      142.89   155.25   159.21   171.49   183.30   185.80
eigval :      190.70   197.12   201.96   209.30   225.47   227.77
eigval :      230.59   237.46   250.16   251.82   271.19   286.77
eigval :      289.80   300.18   314.70   322.23   332.34   338.14
eigval :      341.00   348.54   353.91   360.32   375.01   376.01
eigval :      378.12   380.22   385.20   390.17   405.20   405.65
eigval :      415.56   431.26   447.20   451.78   457.33   461.09
eigval :      473.86   480.96   485.28   495.99   498.79   508.68
eigval :      509.92   521.64   528.20   541.03   544.87   546.77
eigval :      559.49   569.65   583.21   590.11   596.69   601.39
eigval :      607.15   612.60   616.11   637.48   650.62   658.38
eigval :      664.73   681.89   688.54   694.37   704.92   710.29
eigval :      716.38   733.33   749.08   751.83   757.54   781.67
eigval :      794.40   797.09   798.90   800.91   814.59   818.71
eigval :      828.53   833.09   843.42   850.49   859.23   867.48
eigval :      869.59   873.49   877.40   884.92   901.87   909.47
eigval :      912.07   912.99   918.67   922.23   924.12   924.73
eigval :      929.84   930.46   933.29   938.42   943.02   946.31
eigval :      948.22   982.50   985.14   986.51   994.16  1004.93
eigval :     1008.18  1009.44  1010.49  1018.12  1020.97  1030.59
eigval :     1031.76  1050.67  1076.88  1079.51  1088.99  1093.30
eigval :     1110.81  1135.30  1135.76  1136.28  1140.77  1141.61
eigval :     1143.29  1145.63  1168.39  1170.00  1171.26  1179.22
eigval :     1185.69  1198.04  1200.97  1204.79  1206.99  1218.44
eigval :     1227.29  1229.74  1234.33  1242.25  1244.97  1251.68
eigval :     1256.16  1268.89  1276.45  1277.70  1279.64  1280.89
eigval :     1284.14  1291.93  1307.92  1308.70  1313.21  1313.56
eigval :     1314.19  1318.69  1322.59  1345.13  1346.45  1355.25
eigval :     1359.99  1374.30  1380.76  1386.10  1398.52  1400.12
eigval :     1400.71  1401.24  1401.46  1401.76  1405.04  1407.30
eigval :     1409.42  1413.03  1416.39  1417.82  1421.57  1439.79
eigval :     1444.76  1466.24  1473.50  1479.00  1479.71  1481.02
eigval :     1483.39  1487.51  1489.78  1491.22  1492.23  1493.11
eigval :     1495.62  1496.96  1497.64  1500.18  1500.72  1506.47
eigval :     1508.06  1510.78  1527.68  1534.58  1538.54  1550.04
eigval :     1563.34  1564.80  1571.76  1574.25  1595.06  1600.91
eigval :     1602.66  1609.09  2918.98  2921.06  2986.87  2991.35
eigval :     3020.00  3020.65  3023.83  3023.99  3024.68  3025.91
eigval :     3027.05  3028.34  3029.21  3030.08  3030.99  3037.58
eigval :     3037.76  3038.09  3040.93  3041.48  3053.36  3054.81
eigval :     3058.77  3060.97  3061.42  3063.67  3064.44  3065.55
eigval :     3065.84  3068.49  3071.64  3073.53  3073.80  3075.58
eigval :     3076.56  3078.30  3078.95  3079.99  3080.40  3083.48
eigval :     3094.14  3097.40  3435.74  3455.43  3503.21  3514.42

   temp. (K)  partition function   enthalpy   heat capacity  entropy
                                   cal/mol     cal/K/mol   cal/K/mol   J/K/mol
 298.15  VIB  0.239E+23            29041.836    176.992    181.936
         ROT  0.920E+08              888.752      2.981     39.421
         INT  0.220E+31            29930.588    179.973    221.358
         TR   0.170E+29             1481.254      4.968     45.389
         TOT                       31411.8424   184.9413   266.7468  1116.0688

       T/K    H(0)-H(T)+PV         H(T)/Eh          T*S/Eh         G(T)/Eh
   ------------------------------------------------------------------------
    298.15    0.500580E-01    0.844612E+00    0.126740E+00    0.717872E+00
   ------------------------------------------------------------------------

         :::::::::::::::::::::::::::::::::::::::::::::::::::::
         ::                  THERMODYNAMIC                  ::
         :::::::::::::::::::::::::::::::::::::::::::::::::::::
         :: total free energy        -135.690190491765 Eh   ::
         ::.................................................::
         :: total energy             -136.408062803502 Eh   ::
         :: zero point energy           0.794554383504 Eh   ::
         :: G(RRHO) w/o ZPVE           -0.076682071767 Eh   ::
         :: G(RRHO) contrib.            0.717872311737 Eh   ::
         :::::::::::::::::::::::::::::::::::::::::::::::::::::

           -------------------------------------------------
          | TOTAL ENERGY             -136.408062803502 Eh   |
          | TOTAL ENTHALPY           -135.563450462858 Eh   |
          | TOTAL FREE ENERGY        -135.690190491765 Eh   |
          | GRADIENT NORM               0.000050350638 Eh/α |
          | HOMO-LUMO GAP               0.607792854842 eV   |
           -------------------------------------------------

 * finished run on 2025/08/25 at 00:09:05.952
