   * xtb version 6.7.1 (edcfbbe) compiled by 'albert@albert-system' on 2024-07-22

   ID    Z sym.   atoms
    1    6 C      1-29, 31-39, 41-52
    2    7 N      30, 40
    3    1 H      53-98

          program call               : xtb data2507/toluene/IPTAC/IPTAC.xyz --gfn 2 --gbsa toluene --ohess vtight --parallel 40 --molden --ceasefiles --namespace data2507/toluene/IPTAC/IPTAC_toluene_S0_preOpt
      * Solvation model:               GBSA
        Solvent                        toluene
        Solvent mass                       9.2140E+01 g/mol
          :  Hamiltonian                  GFN2-xTB          :
 * total energy  :  -136.4471724 Eh     change       -0.5301104E-08 Eh
 * total energy  :  -136.4641498 Eh     change       -0.1697738E-01 Eh
 * total energy  :  -136.4707335 Eh     change       -0.6583700E-02 Eh
 * total energy  :  -136.4733315 Eh     change       -0.2598023E-02 Eh
 * total energy  :  -136.4746804 Eh     change       -0.1348895E-02 Eh
 * total energy  :  -136.4751844 Eh     change       -0.5040390E-03 Eh
 * total energy  :  -136.4755180 Eh     change       -0.3335437E-03 Eh
 * total energy  :  -136.4758339 Eh     change       -0.3158769E-03 Eh
 * total energy  :  -136.4761298 Eh     change       -0.2959457E-03 Eh
 * total energy  :  -136.4764434 Eh     change       -0.3135946E-03 Eh
 * total energy  :  -136.4779876 Eh     change       -0.3157825E-06 Eh
 * total energy  :  -136.4779880 Eh     change       -0.3614886E-06 Eh
 * total energy  :  -136.4779882 Eh     change       -0.2323802E-06 Eh
 * total energy  :  -136.4779884 Eh     change       -0.1664777E-06 Eh
 * total energy  :  -136.4779886 Eh     change       -0.1852418E-06 Eh
 * total energy  :  -136.4779888 Eh     change       -0.1875853E-06 Eh
 * total energy  :  -136.4779890 Eh     change       -0.1960957E-06 Eh
 * total energy  :  -136.4779892 Eh     change       -0.1794032E-06 Eh
 * total energy  :  -136.4779892 Eh     change       -0.2907910E-08 Eh
   *** GEOMETRY OPTIMIZATION CONVERGED AFTER 68 ITERATIONS ***

 final structure:
================
98
 xtb: 6.7.1 (edcfbbe)
C            7.03918540689715       -1.33487094729546        0.41150279393640
C            5.65129979171130       -0.78019075590508        0.29349423200359
C            5.12525076308933        0.04982647155713        1.27496096429074
C            3.83826293240457        0.54355750369524        1.17297727105797
C            3.03899283726615        0.21762886155286        0.08364217693776
C            1.65801286432719        0.73876061589570       -0.02010271955189
C            0.57519211862381       -0.15928527790834        0.00651748187190
C            0.84861791649406       -1.61267079033950       -0.02345911882962
C            1.53051568140014       -2.23429275654065        1.01665564368429
C            1.79198360397702       -3.58968199769514        0.97652091327082
C            1.39058588625250       -4.36480305892707       -0.10518600944801
C            1.67318152283864       -5.84672378896463       -0.15666360202936
C            0.94333024813627       -6.57602225084069        0.97450688458317
C            3.17802683511578       -6.12136164295266       -0.10123185635405
C            0.71400793863603       -3.73850491548493       -1.14408124486116
C            0.44348374918095       -2.38387259185969       -1.10625715007638
C           -0.72380227085426        0.32052020702090        0.06167328064600
C           -1.81134343853495       -0.67948958535626        0.00298725635549
C           -1.91223084279415       -1.71127697475597        0.93090880388703
C           -2.88166980752796       -2.68705199621302        0.79505404946708
C           -3.77242274040779       -2.67276632664389       -0.27102764058743
C           -4.80262733359597       -3.76557120079676       -0.42523717292589
C           -4.54969779794820       -4.56177762946376       -1.70848712470186
C           -6.22445296080440       -3.19883222912640       -0.40897946910497
C           -3.67317316344673       -1.63576772505089       -1.19251537981361
C           -2.71056929476791       -0.65486268534788       -1.06020481219773
C           -0.97488517675277        1.71536514583905        0.03610264891718
C            0.10345939651706        2.58898163629092       -0.27081525612121
C           -0.22088961471456        3.92176602108501       -0.69941045384144
N            0.71396277625223        4.73067260544805       -1.31538876999724
C           -1.51963523504026        4.35969017060761       -0.64359119051534
C           -2.56215602286676        3.59092085504734       -0.09080864913861
C           -3.89025090886487        4.11290128302972        0.09391616195423
C           -4.26750706195404        5.38590774181356       -0.37190786263455
C           -5.53235018314961        5.88148482837045       -0.18761330166058
C           -6.48936608148021        5.12198429868276        0.48650363427905
C           -6.15916898800136        3.87647603183465        0.95190035884552
C           -4.87187379156004        3.33987553764427        0.76702966502228
C           -4.50972194149969        2.04679785173180        1.26362102383411
N           -5.38425163593476        1.32517476652833        2.06613980067068
C           -3.25682960684351        1.55258250095858        1.01872304957556
C           -2.27772790898500        2.27027181947170        0.30170379148927
C            1.42856891335108        2.09343625205384       -0.18804930242386
C            2.62003701708340        2.97335408074123       -0.19209624497430
C            2.82557413280015        3.86368933454287        0.86211505451005
C            3.97148865467171        4.63334903450195        0.91833491820104
C            4.94659472288030        4.53684806419383       -0.06889623526325
C            6.17852919288934        5.38777203677422       -0.00787214523814
C            4.73912258861698        3.64897867460377       -1.11758208697773
C            3.59694152707151        2.87251799503663       -1.17883082438757
C            3.56187412324897       -0.61509250538511       -0.89969492532132
C            4.84953982883986       -1.10364159403949       -0.79497749742117
H            7.00174812291153       -2.34906485156019        0.81157603409249
H            7.64493312612818       -0.72825668081381        1.08059973959416
H            7.52213990552243       -1.37826385511328       -0.56263059036521
H            5.72979453823349        0.31494060956696        2.13134938226051
H            3.44414084844644        1.18419990220730        1.94940751205752
H            1.84877315239780       -1.64932416108765        1.86833929511980
H            2.31810889584889       -4.04566330831407        1.80238187619673
H            1.29224771566402       -6.23170824178231       -1.10976711355638
H            1.10031624893070       -7.64976651484987        0.89404162951324
H            1.30819296744155       -6.24641741859921        1.94433421167577
H           -0.12535865374439       -6.37625022965019        0.92397459516122
H            3.36999649645295       -7.18715313978600       -0.20768762053094
H            3.68827694410826       -5.59435938669414       -0.90516405807701
H            3.59751442618979       -5.78951226231410        0.84530107314209
H            0.39244329124478       -4.31879822766449       -1.99845669668373
H           -0.08203866899462       -1.91477663599093       -1.92628733312691
H           -1.23401933348221       -1.74124319170818        1.77164500049417
H           -2.93990600122421       -3.47915951678224        1.52927892938763
H           -4.70039661379622       -4.45066357923675        0.42456319644787
H           -4.67320663242108       -3.93017290499755       -2.58494125587254
H           -5.24913510104381       -5.39211176818564       -1.78114136436112
H           -3.53651525301119       -4.95922532174055       -1.71208512443191
H           -6.95045042968667       -4.00597765149407       -0.48211991806969
H           -6.40577714015055       -2.65498471403675        0.51601438980502
H           -6.38109224328005       -2.51981240871145       -1.24350399585119
H           -4.35049155954113       -1.59381823605659       -2.03300275372962
H           -2.64286541445047        0.13972512859633       -1.79030694329586
H            1.68447616338565        4.52870720613875       -1.14332436235971
H            0.48283991994506        5.71050709824189       -1.34876709390920
H           -1.71752625175997        5.35365933329833       -1.01342755355197
H           -3.55301625486441        5.99579913746138       -0.90134995516799
H           -5.79022845562508        6.86120696537333       -0.56366194493792
H           -7.48401055299993        5.51570115924247        0.63830967548146
H           -6.90793483188436        3.30346633075664        1.47878456279348
H           -6.36559668590258        1.43685391197805        1.86765413945184
H           -5.11732395893379        0.36056113350233        2.19358063025973
H           -3.00412837136921        0.59290783638350        1.43844855067319
H            2.07763073134765        3.94308267124825        1.63945897799355
H            4.11570763592692        5.31494987970613        1.74485175099288
H            6.52535030222863        5.49158746384140        1.01818772947494
H            5.96145058709683        6.38606344221210       -0.39047534489686
H            6.97600943279066        4.95965887334174       -0.61022568511502
H            5.48516605190893        3.55653399912114       -1.89391733561057
H            3.45203620914905        2.18533000695358       -1.99933148013379
H            2.95513553616470       -0.87411949338840       -1.75586407327985
H            5.23956599646819       -1.74752338828750       -1.57117109807846

          :  Hamiltonian                  GFN2-xTB          :
         :: gradient norm              0.000038455940 Eh/a0 ::
         :: HOMO-LUMO gap              2.053458276586 eV    ::
         :: SCC energy              -138.986533748002 Eh    ::
         :: -> dispersion             -0.140582811175 Eh    ::
         :: -> Gsolv                  -0.052878713873 Eh    ::
         :: repulsion energy           2.508544590700 Eh    ::

    * Orbital Energies and Occupations

         #    Occupation            Energy/Eh            Energy/eV
      -------------------------------------------------------------
         1        2.0000           -0.6516660             -17.7327
       ...           ...                  ...                  ...
       116        2.0000           -0.4043391             -11.0026
       117        2.0000           -0.3994313             -10.8691
       118        2.0000           -0.3992269             -10.8635
       119        2.0000           -0.3975555             -10.8180
       120        2.0000           -0.3968929             -10.8000
       121        2.0000           -0.3945090             -10.7351
       122        2.0000           -0.3878266             -10.5533
       123        2.0000           -0.3843005             -10.4574
       124        2.0000           -0.3801473             -10.3443
       125        2.0000           -0.3776169             -10.2755
       126        2.0000           -0.3710675             -10.0973
       127        2.0000           -0.3658881              -9.9563
       128        2.0000           -0.3311976              -9.0123 (HOMO)
       129                         -0.2557344              -6.9589 (LUMO)
       130                         -0.2443725              -6.6497
       131                         -0.2353435              -6.4040
       132                         -0.2240385              -6.0964
       133                         -0.2217911              -6.0352
       134                         -0.2198186              -5.9816
       135                         -0.2176412              -5.9223
       136                         -0.2151882              -5.8556
       137                         -0.2137635              -5.8168
       138                         -0.2123623              -5.7787
       139                         -0.2083836              -5.6704
       ...                                ...                  ...
       254                          0.7228277              19.6691
      -------------------------------------------------------------
                  HL-Gap            0.0754632 Eh            2.0535 eV

     #   Z          covCN         q      C6AA      α(0)
     1   6 C        3.757    -0.109    22.631     6.783
     2   6 C        2.966     0.014    27.690     8.631
     3   6 C        2.924    -0.042    29.037     8.837
     4   6 C        2.924    -0.035    28.880     8.813
     5   6 C        2.978     0.009    27.819     8.652
     6   6 C        2.985    -0.006    28.158     8.704
     7   6 C        2.985    -0.005    28.151     8.703
     8   6 C        2.978     0.011    27.767     8.644
     9   6 C        2.923    -0.034    28.859     8.810
    10   6 C        2.924    -0.036    28.898     8.816
    11   6 C        2.972     0.007    27.857     8.657
    12   6 C        3.855    -0.014    20.786     6.484
    13   6 C        3.755    -0.101    22.481     6.760
    14   6 C        3.755    -0.101    22.487     6.761
    15   6 C        2.925    -0.040    29.004     8.832
    16   6 C        2.924    -0.034    28.854     8.809
    17   6 C        2.978    -0.005    28.152     8.703
    18   6 C        2.979     0.014    27.683     8.631
    19   6 C        2.922    -0.036    28.908     8.817
    20   6 C        2.924    -0.042    29.045     8.838
    21   6 C        2.972     0.005    27.896     8.664
    22   6 C        3.854    -0.014    20.788     6.485
    23   6 C        3.756    -0.101    22.482     6.761
    24   6 C        3.755    -0.102    22.496     6.763
    25   6 C        2.924    -0.037    28.910     8.817
    26   6 C        2.924    -0.035    28.860     8.810
    27   6 C        2.982    -0.005    28.140     8.702
    28   6 C        2.982    -0.017    28.433     8.747
    29   6 C        2.891     0.069    26.447     8.431
    30   7 N        2.643    -0.301    27.758     7.825
    31   6 C        2.926    -0.079    29.982     8.980
    32   6 C        2.978    -0.008    28.220     8.714
    33   6 C        2.980     0.001    28.006     8.681
    34   6 C        2.921    -0.037    28.920     8.819
    35   6 C        2.916    -0.036    28.905     8.816
    36   6 C        2.916    -0.036    28.906     8.816
    37   6 C        2.920    -0.038    28.948     8.823
    38   6 C        2.985    -0.009    28.228     8.715
    39   6 C        2.892     0.064    26.563     8.450
    40   7 N        2.641    -0.295    27.607     7.804
    41   6 C        2.924    -0.076    29.887     8.965
    42   6 C        2.980    -0.006    28.164     8.705
    43   6 C        2.977    -0.008    28.205     8.712
    44   6 C        2.979     0.007    27.866     8.659
    45   6 C        2.922    -0.039    28.965     8.826
    46   6 C        2.923    -0.043    29.076     8.843
    47   6 C        2.966     0.015    27.676     8.629
    48   6 C        3.757    -0.111    22.666     6.788
    49   6 C        2.923    -0.042    29.040     8.837
    50   6 C        2.921    -0.038    28.951     8.824
    51   6 C        2.923    -0.034    28.845     8.808
    52   6 C        2.925    -0.041    29.028     8.836
    53   1 H        0.924     0.049     2.332     2.388
    54   1 H        0.925     0.044     2.402     2.424
    55   1 H        0.925     0.045     2.382     2.413
    56   1 H        0.925     0.029     2.603     2.523
    57   1 H        0.926     0.022     2.697     2.568
    58   1 H        0.926     0.023     2.693     2.566
    59   1 H        0.926     0.031     2.574     2.509
    60   1 H        0.924     0.030     2.586     2.515
    61   1 H        0.925     0.038     2.480     2.463
    62   1 H        0.925     0.038     2.482     2.464
    63   1 H        0.925     0.031     2.566     2.505
    64   1 H        0.925     0.038     2.482     2.464
    65   1 H        0.925     0.032     2.560     2.502
    66   1 H        0.925     0.038     2.481     2.463
    67   1 H        0.925     0.025     2.652     2.547
    68   1 H        0.926     0.022     2.706     2.572
    69   1 H        0.926     0.024     2.680     2.560
    70   1 H        0.925     0.025     2.657     2.549
    71   1 H        0.924     0.030     2.584     2.514
    72   1 H        0.925     0.038     2.479     2.462
    73   1 H        0.925     0.038     2.480     2.463
    74   1 H        0.925     0.032     2.563     2.504
    75   1 H        0.925     0.038     2.472     2.459
    76   1 H        0.925     0.030     2.585     2.514
    77   1 H        0.925     0.038     2.475     2.460
    78   1 H        0.926     0.031     2.568     2.506
    79   1 H        0.926     0.024     2.676     2.558
    80   1 H        0.860     0.174     1.250     1.752
    81   1 H        0.860     0.160     1.334     1.809
    82   1 H        0.926     0.022     2.706     2.573
    83   1 H        0.926     0.031     2.577     2.510
    84   1 H        0.926     0.027     2.635     2.538
    85   1 H        0.926     0.027     2.632     2.537
    86   1 H        0.926     0.027     2.632     2.537
    87   1 H        0.860     0.164     1.311     1.794
    88   1 H        0.860     0.159     1.341     1.814
    89   1 H        0.926     0.025     2.653     2.547
    90   1 H        0.925     0.026     2.640     2.541
    91   1 H        0.926     0.034     2.534     2.489
    92   1 H        0.925     0.048     2.351     2.398
    93   1 H        0.924     0.051     2.305     2.374
    94   1 H        0.925     0.046     2.377     2.411
    95   1 H        0.926     0.033     2.545     2.495
    96   1 H        0.926     0.028     2.609     2.526
    97   1 H        0.926     0.023     2.692     2.566
    98   1 H        0.925     0.029     2.602     2.522

molecular dipole:
                 x           y           z       tot (Debye)
 q only:        0.685      -0.298       0.029
   full:        0.705      -0.330       0.021       1.978

 projected vibrational frequencies (cm⁻¹)
eigval :       -0.00    -0.00    -0.00     0.00     0.00     0.00
eigval :       12.17    12.76    14.26    16.72    17.67    24.38
eigval :       27.29    32.18    33.71    40.55    43.65    54.59
eigval :       54.97    62.64    67.70    72.23    80.79    87.42
eigval :       95.56   101.34   112.84   122.42   131.60   135.05
eigval :      150.68   155.08   165.33   172.57   175.15   189.22
eigval :      192.59   195.47   200.68   207.41   217.04   218.79
eigval :      228.07   241.59   245.43   252.80   270.20   281.17
eigval :      298.71   306.11   311.63   320.19   329.14   335.83
eigval :      344.92   348.04   354.85   359.35   372.61   374.36
eigval :      377.28   379.09   381.30   390.46   403.95   415.05
eigval :      416.87   437.02   450.96   461.27   477.72   479.92
eigval :      487.08   499.12   509.37   511.09   518.06   526.08
eigval :      533.54   539.71   550.08   551.64   564.83   567.18
eigval :      573.23   586.99   596.10   602.59   604.60   612.87
eigval :      614.97   626.18   647.00   650.41   662.75   669.09
eigval :      674.66   690.60   693.93   701.50   712.38   723.38
eigval :      734.84   736.77   752.28   760.99   765.12   781.32
eigval :      797.83   799.85   807.16   810.07   814.77   817.87
eigval :      831.80   850.04   854.16   860.79   861.85   869.45
eigval :      869.66   876.29   876.59   902.14   907.28   912.55
eigval :      913.19   916.03   917.39   919.65   924.44   925.12
eigval :      929.32   930.47   931.18   938.28   943.32   944.75
eigval :      946.38   984.18   984.44   999.49  1002.69  1008.43
eigval :     1010.39  1015.63  1020.14  1031.06  1031.97  1034.04
eigval :     1043.99  1063.48  1077.40  1079.08  1091.62  1099.99
eigval :     1112.34  1135.45  1135.58  1138.89  1139.13  1139.92
eigval :     1142.76  1150.30  1168.88  1169.44  1186.17  1187.69
eigval :     1192.17  1197.96  1200.84  1202.41  1205.31  1219.69
eigval :     1226.65  1232.08  1237.60  1243.57  1250.15  1256.08
eigval :     1271.25  1274.50  1275.94  1277.60  1278.96  1283.82
eigval :     1302.99  1304.50  1306.41  1309.51  1310.88  1313.07
eigval :     1313.45  1318.31  1329.02  1344.29  1345.11  1369.00
eigval :     1384.55  1390.47  1396.01  1398.92  1399.43  1400.61
eigval :     1400.83  1402.19  1404.38  1406.36  1407.89  1409.32
eigval :     1412.96  1417.05  1418.25  1429.43  1468.85  1474.64
eigval :     1476.75  1478.63  1479.95  1480.57  1486.01  1491.43
eigval :     1491.51  1492.50  1493.65  1495.76  1496.70  1499.46
eigval :     1499.79  1501.23  1502.56  1504.93  1507.26  1510.33
eigval :     1520.49  1534.88  1540.70  1568.01  1569.82  1574.04
eigval :     1574.74  1576.56  1588.81  1602.21  1604.83  1605.54
eigval :     1609.07  1610.55  2921.14  2921.41  2991.87  2992.00
eigval :     3021.26  3021.89  3025.22  3025.69  3026.16  3026.58
eigval :     3028.79  3028.85  3028.95  3030.32  3036.67  3037.19
eigval :     3037.33  3040.12  3040.48  3041.39  3056.20  3058.25
eigval :     3060.78  3062.91  3063.29  3065.37  3065.63  3065.78
eigval :     3071.37  3071.50  3073.18  3074.15  3076.38  3077.31
eigval :     3078.49  3080.60  3081.14  3082.63  3087.91  3088.59
eigval :     3103.26  3118.45  3447.62  3455.52  3494.27  3512.01

   temp. (K)  partition function   enthalpy   heat capacity  entropy
                                   cal/mol     cal/K/mol   cal/K/mol   J/K/mol
 298.15  VIB  0.475E+24            28975.633    173.890    182.834
         ROT  0.918E+08              888.752      2.981     39.418
         INT  0.436E+32            29864.386    176.871    222.252
         TR   0.170E+29             1481.254      4.968     45.389
         TOT                       31345.6396   181.8388   267.6409  1119.8097

       T/K    H(0)-H(T)+PV         H(T)/Eh          T*S/Eh         G(T)/Eh
   ------------------------------------------------------------------------
    298.15    0.499525E-01    0.847624E+00    0.127165E+00    0.720459E+00
   ------------------------------------------------------------------------

         :::::::::::::::::::::::::::::::::::::::::::::::::::::
         ::                  THERMODYNAMIC                  ::
         :::::::::::::::::::::::::::::::::::::::::::::::::::::
         :: total free energy        -135.757530051537 Eh   ::
         ::.................................................::
         :: total energy             -136.477989155749 Eh   ::
         :: zero point energy           0.797671497940 Eh   ::
         :: G(RRHO) w/o ZPVE           -0.077212393727 Eh   ::
         :: G(RRHO) contrib.            0.720459104213 Eh   ::
         :::::::::::::::::::::::::::::::::::::::::::::::::::::

           -------------------------------------------------
          | TOTAL ENERGY             -136.477989155749 Eh   |
          | TOTAL ENTHALPY           -135.630365201566 Eh   |
          | TOTAL FREE ENERGY        -135.757530051537 Eh   |
          | GRADIENT NORM               0.000038451536 Eh/α |
          | HOMO-LUMO GAP               2.053458192958 eV   |
           -------------------------------------------------

 * finished run on 2025/08/25 at 00:00:54.022
