   * xtb version 6.7.1 (edcfbbe) compiled by 'albert@albert-system' on 2024-07-22

   ID    Z sym.   atoms
    1    6 C      1-4, 6-19, 21-26, 28-37, 39-53
    2    7 N      5, 20, 27, 38
    3    1 H      54-89

          program call               : xtb data2507/toluene/DDPA-Ph-Bz/DDPA-Ph-Bz.xyz --gfn 2 --gbsa toluene --ohess vtight --parallel 40 --molden --ceasefiles --namespace data2507/toluene/DDPA-Ph-Bz/DDPA-Ph-Bz_toluene_S0_preOpt
      * Solvation model:               GBSA
        Solvent                        toluene
        Solvent mass                       9.2140E+01 g/mol
          :  Hamiltonian                  GFN2-xTB          :
 * total energy  :  -135.0425151 Eh     change       -0.9841017E-09 Eh
 * total energy  :  -135.0573825 Eh     change       -0.1486748E-01 Eh
 * total energy  :  -135.0640303 Eh     change       -0.6647727E-02 Eh
 * total energy  :  -135.0664435 Eh     change       -0.2413211E-02 Eh
 * total energy  :  -135.0675672 Eh     change       -0.1123672E-02 Eh
 * total energy  :  -135.0680667 Eh     change       -0.4995179E-03 Eh
 * total energy  :  -135.0684317 Eh     change       -0.3650388E-03 Eh
 * total energy  :  -135.0687950 Eh     change       -0.3633313E-03 Eh
 * total energy  :  -135.0691954 Eh     change       -0.4003645E-03 Eh
 * total energy  :  -135.0695070 Eh     change       -0.3116394E-03 Eh
 * total energy  :  -135.0700766 Eh     change       -0.5984242E-06 Eh
 * total energy  :  -135.0700772 Eh     change       -0.6376970E-06 Eh
 * total energy  :  -135.0700778 Eh     change       -0.6259391E-06 Eh
 * total energy  :  -135.0700783 Eh     change       -0.4717085E-06 Eh
 * total energy  :  -135.0700786 Eh     change       -0.3429950E-06 Eh
 * total energy  :  -135.0700789 Eh     change       -0.2719491E-06 Eh
 * total energy  :  -135.0700791 Eh     change       -0.1706809E-06 Eh
 * total energy  :  -135.0700792 Eh     change       -0.1089866E-06 Eh
 * total energy  :  -135.0700793 Eh     change       -0.7090179E-07 Eh
   *** GEOMETRY OPTIMIZATION CONVERGED AFTER 60 ITERATIONS ***

 final structure:
================
89
 xtb: 6.7.1 (edcfbbe)
C           -2.73375188477305       -5.98564619225315        1.64027625389590
C           -2.38915070085370       -4.79629146757415        2.26212704517376
C           -2.67127074404063       -3.58455845357446        1.66126818043399
C           -3.29826140674782       -3.54600490566185        0.41578611203349
N           -3.58224627224248       -2.32046196672558       -0.20049207815741
C           -4.77714581799101       -2.15798118685749       -0.91254333837514
C           -4.80614510495607       -1.40623048969795       -2.08725993553053
C           -5.98851314686466       -1.24715984324414       -2.78395914081919
C           -7.15597988570519       -1.84019682922785       -2.33084361950525
C           -7.13192318813138       -2.59265276153463       -1.16759528262846
C           -5.95651687712561       -2.74817990674770       -0.45827212233947
C           -2.67666599883598       -1.25928839440031       -0.09608690514876
C           -1.30435684481431       -1.50169696395999       -0.11157440942113
C           -0.40248659801165       -0.44973489802993        0.00012310946358
C            1.04596316503778       -0.70543270993293       -0.01912003638398
C            1.59396661671106       -1.64320768011436       -0.89347522858729
C            2.95528934721709       -1.86121784105932       -0.93202006440359
C            3.81145772673813       -1.14193673290725       -0.09856856866016
C            5.24241047683154       -1.39519392219091       -0.17291937342329
N            5.74955205962420       -2.58131452269969       -0.38409478286163
C            7.10859073029512       -2.42503109070168       -0.34976812172927
C            8.12690892851381       -3.35724277666532       -0.52118588483401
C            9.42754425571576       -2.90397238486939       -0.45583636951410
C            9.72385575888319       -1.55711586318848       -0.23358769150631
C            8.72916563615278       -0.61555284141312       -0.05812589637060
C            7.41965452349666       -1.06665223253858       -0.10423114679728
N            6.20603029156410       -0.42428254121563        0.00731252126756
C            6.02182329104293        0.96433351150460        0.14387713202333
C            5.21557412617596        1.65284300945319       -0.75718673242858
C            5.04166969654446        3.01742981538251       -0.61761684296755
C            5.67752530592056        3.70176605759005        0.40595530302215
C            6.48900021028255        3.01703044939990        1.29526328929433
C            6.66143813931476        1.64963530350374        1.17107322735679
C            3.26554991312593       -0.22727974630510        0.80079429942167
C            1.90294703096373       -0.01153115781762        0.83341734410021
C           -0.87643976443368        0.85199001792986        0.11998558140634
C           -2.24603167979862        1.10800776973782        0.11553462749137
N           -2.72027017401386        2.42002014875930        0.22542474242577
C           -3.89095245588263        2.68302813040710        0.94862575034947
C           -4.16515043491793        1.99114920362194        2.12842777395325
C           -5.32210983993512        2.25232313250234        2.83691128805932
C           -6.21825980550858        3.20989484318602        2.38978409883830
C           -5.94896935879636        3.90329630495361        1.22079206896315
C           -4.79928328840420        3.64189200050323        0.50038074052111
C           -2.02957343855645        3.46984459662399       -0.39191698869285
C           -1.42171818155853        3.28662893328524       -1.63429565203054
C           -0.73790723833212        4.32555306357675       -2.23588445216961
C           -0.65610119889362        5.56359986331694       -1.61895331577676
C           -1.26183728718594        5.75286988800490       -0.38714200055308
C           -1.93879371720566        4.71684756555711        0.22713581889354
C           -3.14179524751268        0.04810665123996        0.01129867345808
C           -3.63908764192121       -4.74642486646383       -0.20759416377745
C           -3.36092710338887       -5.95321647701229        0.40508171877285
H           -2.51471405426278       -6.93063859004137        2.11437986910711
H           -1.90393265660069       -4.81126177626672        3.22738139096773
H           -2.40859574886506       -2.65903136393982        2.15269332714145
H           -3.89549029880580       -0.95202178282611       -2.44982771952264
H           -5.99590465398654       -0.66299768326434       -3.69291162480755
H           -8.07733785664981       -1.71731132428163       -2.88021545442335
H           -8.03792219312690       -3.05510249393285       -0.80342764846109
H           -5.94306489549400       -3.32746339838686        0.45362512714302
H           -0.94442985127865       -2.51588005579601       -0.19079498490584
H            0.94740028113610       -2.18939942864325       -1.56404233543361
H            3.38114672192070       -2.58300684544743       -1.61225783800032
H            7.89302280093071       -4.39425974008279       -0.70455566582673
H           10.24116109792397       -3.60269404345048       -0.58536701987769
H           10.75746904755093       -1.24543158520922       -0.20090359524800
H            8.96293252086923        0.42647796695750        0.10136037451011
H            4.72846171680717        1.11409172679431       -1.55654331921533
H            4.41029750782341        3.54761623216108       -1.31464358957908
H            5.54152837042580        4.76763284228544        0.50921714911934
H            6.98618520934375        3.54595876523832        2.09468849897189
H            7.27799818965894        1.10622887848103        1.87204719075901
H            3.90550854222219        0.30624134012410        1.48803853461686
H            1.49447885626574        0.69129611268956        1.54428451341901
H           -0.18163778188004        1.67420952458302        0.19558142374128
H           -3.46376699520712        1.25099305235185        2.48532990241532
H           -5.52059901787242        1.71002038308414        3.75011568824928
H           -7.11928814538396        3.41454511836657        2.94841691258825
H           -6.64404935900303        4.64824061803934        0.86119155858678
H           -4.59709762964291        4.17762427117471       -0.41577973921875
H           -1.49186562639559        2.32620114805532       -2.12383811090566
H           -0.27400889136360        4.16923823964855       -3.19914439757623
H           -0.12533649588220        6.37461899952098       -2.09471297454118
H           -1.19971666302739        6.71280898651163        0.10485837990701
H           -2.40161085246257        4.86556857551723        1.19195682005153
H           -4.20401272332718        0.24128461203886        0.01389604840044
H           -4.12090554803445       -4.72444518544189       -1.17435649666339
H           -3.62859682711850       -6.87534871004536       -0.09025075073573

          :  Hamiltonian                  GFN2-xTB          :
         :: gradient norm              0.000036395209 Eh/a0 ::
         :: HOMO-LUMO gap              2.215536499971 eV    ::
         :: SCC energy              -137.598652458825 Eh    ::
         :: -> dispersion             -0.122887307425 Eh    ::
         :: -> Gsolv                  -0.057461879320 Eh    ::
         :: repulsion energy           2.528573191922 Eh    ::

    * Orbital Energies and Occupations

         #    Occupation            Energy/Eh            Energy/eV
      -------------------------------------------------------------
         1        2.0000           -0.6888039             -18.7433
       ...           ...                  ...                  ...
       114        2.0000           -0.4084706             -11.1150
       115        2.0000           -0.4073285             -11.0840
       116        2.0000           -0.4066201             -11.0647
       117        2.0000           -0.4058579             -11.0440
       118        2.0000           -0.4048998             -11.0179
       119        2.0000           -0.4042740             -11.0009
       120        2.0000           -0.4032721             -10.9736
       121        2.0000           -0.3983463             -10.8396
       122        2.0000           -0.3839541             -10.4479
       123        2.0000           -0.3811787             -10.3724
       124        2.0000           -0.3790238             -10.3138
       125        2.0000           -0.3514980              -9.5647
       126        2.0000           -0.3483478              -9.4790 (HOMO)
       127                         -0.2669283              -7.2635 (LUMO)
       128                         -0.2411354              -6.5616
       129                         -0.2379782              -6.4757
       130                         -0.2330197              -6.3408
       131                         -0.2326330              -6.3303
       132                         -0.2302677              -6.2659
       133                         -0.2294448              -6.2435
       134                         -0.2280298              -6.2050
       135                         -0.2249407              -6.1209
       136                         -0.2243110              -6.1038
       137                         -0.2215177              -6.0278
       ...                                ...                  ...
       248                          0.6987953              19.0152
      -------------------------------------------------------------
                  HL-Gap            0.0814195 Eh            2.2155 eV

     #   Z          covCN         q      C6AA      α(0)
     1   6 C        2.919    -0.039    28.973     8.827
     2   6 C        2.919    -0.030    28.753     8.793
     3   6 C        2.922    -0.048    29.187     8.859
     4   6 C        2.923     0.066    26.529     8.446
     5   7 N        2.753    -0.079    22.784     7.089
     6   6 C        2.923     0.066    26.530     8.447
     7   6 C        2.922    -0.048    29.196     8.861
     8   6 C        2.919    -0.030    28.759     8.794
     9   6 C        2.919    -0.040    28.982     8.828
    10   6 C        2.919    -0.030    28.756     8.794
    11   6 C        2.922    -0.048    29.193     8.860
    12   6 C        2.920     0.066    26.513     8.444
    13   6 C        2.927    -0.063    29.562     8.917
    14   6 C        2.975     0.010    27.788     8.647
    15   6 C        2.978     0.015    27.679     8.630
    16   6 C        2.923    -0.032    28.802     8.801
    17   6 C        2.925    -0.029    28.715     8.788
    18   6 C        2.975    -0.003    28.095     8.695
    19   6 C        3.179     0.145    24.476     8.077
    20   7 N        1.885    -0.320    29.160     8.005
    21   6 C        3.189     0.069    26.004     8.318
    22   6 C        2.910    -0.048    29.188     8.859
    23   6 C        2.922    -0.042    29.039     8.837
    24   6 C        2.926    -0.040    28.983     8.829
    25   6 C        2.908    -0.054    29.343     8.882
    26   6 C        3.087     0.036    27.097     8.533
    27   7 N        2.824    -0.060    22.394     7.028
    28   6 C        2.912     0.065    26.551     8.449
    29   6 C        2.921    -0.039    28.975     8.827
    30   6 C        2.920    -0.026    28.641     8.776
    31   6 C        2.919    -0.030    28.751     8.793
    32   6 C        2.920    -0.027    28.671     8.781
    33   6 C        2.922    -0.041    29.019     8.834
    34   6 C        2.921    -0.033    28.830     8.805
    35   6 C        2.924    -0.034    28.835     8.806
    36   6 C        2.927    -0.063    29.573     8.918
    37   6 C        2.920     0.066    26.518     8.445
    38   7 N        2.753    -0.079    22.784     7.089
    39   6 C        2.923     0.066    26.530     8.447
    40   6 C        2.922    -0.048    29.191     8.860
    41   6 C        2.919    -0.030    28.757     8.794
    42   6 C        2.919    -0.039    28.977     8.827
    43   6 C        2.919    -0.030    28.755     8.794
    44   6 C        2.922    -0.048    29.188     8.860
    45   6 C        2.923     0.066    26.526     8.446
    46   6 C        2.922    -0.048    29.196     8.861
    47   6 C        2.919    -0.030    28.761     8.794
    48   6 C        2.919    -0.040    28.988     8.829
    49   6 C        2.919    -0.030    28.757     8.794
    50   6 C        2.922    -0.048    29.198     8.861
    51   6 C        2.926    -0.070    29.738     8.943
    52   6 C        2.922    -0.048    29.191     8.860
    53   6 C        2.919    -0.030    28.753     8.793
    54   1 H        0.926     0.032     2.563     2.503
    55   1 H        0.926     0.033     2.546     2.495
    56   1 H        0.926     0.031     2.570     2.507
    57   1 H        0.926     0.031     2.570     2.507
    58   1 H        0.926     0.033     2.544     2.494
    59   1 H        0.926     0.032     2.564     2.504
    60   1 H        0.926     0.033     2.544     2.494
    61   1 H        0.926     0.031     2.567     2.506
    62   1 H        0.926     0.036     2.504     2.474
    63   1 H        0.926     0.044     2.402     2.424
    64   1 H        0.926     0.046     2.372     2.409
    65   1 H        0.926     0.038     2.480     2.463
    66   1 H        0.926     0.034     2.533     2.489
    67   1 H        0.926     0.035     2.518     2.481
    68   1 H        0.926     0.032     2.563     2.504
    69   1 H        0.926     0.036     2.503     2.474
    70   1 H        0.926     0.046     2.374     2.410
    71   1 H        0.926     0.046     2.369     2.407
    72   1 H        0.926     0.046     2.371     2.408
    73   1 H        0.926     0.042     2.417     2.431
    74   1 H        0.926     0.030     2.581     2.512
    75   1 H        0.926     0.041     2.429     2.437
    76   1 H        0.926     0.036     2.505     2.475
    77   1 H        0.926     0.031     2.571     2.507
    78   1 H        0.926     0.033     2.543     2.494
    79   1 H        0.926     0.032     2.562     2.503
    80   1 H        0.926     0.033     2.541     2.493
    81   1 H        0.926     0.032     2.563     2.504
    82   1 H        0.926     0.031     2.570     2.507
    83   1 H        0.926     0.033     2.548     2.496
    84   1 H        0.926     0.032     2.565     2.504
    85   1 H        0.926     0.033     2.544     2.494
    86   1 H        0.926     0.031     2.570     2.507
    87   1 H        0.926     0.034     2.536     2.490
    88   1 H        0.926     0.032     2.563     2.504
    89   1 H        0.926     0.033     2.540     2.492

molecular dipole:
                 x           y           z       tot (Debye)
 q only:       -0.661       1.370       0.174
   full:       -0.462       1.645       0.232       4.382

 projected vibrational frequencies (cm⁻¹)
eigval :       -0.00    -0.00     0.00     0.00     0.00     0.00
eigval :        9.68    12.55    14.33    14.96    22.53    25.41
eigval :       31.00    39.56    43.57    47.59    57.04    59.88
eigval :       62.50    66.99    71.31    74.93    81.46    84.69
eigval :       86.80    97.67   103.71   123.33   165.08   172.85
eigval :      200.37   208.98   214.35   218.80   233.29   240.39
eigval :      242.95   246.45   248.72   278.37   281.30   296.97
eigval :      311.35   321.55   338.36   349.84   372.85   374.03
eigval :      376.18   379.45   380.03   382.56   384.31   385.42
eigval :      386.36   396.88   403.43   419.02   463.69   473.73
eigval :      476.21   482.52   486.89   489.55   523.06   542.64
eigval :      547.26   547.99   571.56   579.25   582.48   585.60
eigval :      588.96   589.59   592.23   596.84   602.62   605.86
eigval :      618.73   620.44   625.66   657.42   660.44   661.23
eigval :      662.43   665.72   668.19   671.40   678.05   703.48
eigval :      710.89   716.77   742.37   754.09   755.35   755.84
eigval :      764.75   765.93   772.88   794.12   814.09   838.77
eigval :      865.55   866.45   869.90   871.66   872.50   872.78
eigval :      874.19   878.93   880.56   883.73   885.41   889.65
eigval :      891.53   891.69   893.12   896.86   904.69   906.47
eigval :      910.62   919.76   920.47   925.32   925.44   925.89
eigval :      926.43   927.18   927.42   928.19   928.59   929.17
eigval :      929.27   930.64   933.90   954.73   974.83   979.09
eigval :      997.18  1002.33  1004.37  1011.32  1030.24  1061.36
eigval :     1066.92  1079.95  1081.82  1082.36  1082.97  1082.99
eigval :     1116.31  1117.85  1121.08  1121.62  1123.67  1124.04
eigval :     1133.10  1136.91  1138.66  1166.88  1175.24  1178.83
eigval :     1179.47  1179.82  1179.89  1180.62  1188.11  1189.67
eigval :     1194.45  1194.66  1198.00  1199.93  1206.53  1207.33
eigval :     1243.51  1255.16  1263.99  1265.58  1270.55  1276.59
eigval :     1276.64  1277.29  1284.70  1289.68  1292.67  1310.67
eigval :     1313.96  1314.34  1315.03  1318.30  1318.77  1319.21
eigval :     1324.87  1325.04  1332.73  1361.45  1369.56  1374.74
eigval :     1397.16  1415.45  1428.96  1431.14  1433.72  1438.10
eigval :     1440.85  1444.94  1447.85  1468.58  1472.25  1472.74
eigval :     1473.41  1474.66  1483.00  1486.42  1532.57  1556.83
eigval :     1566.78  1568.20  1575.62  1576.87  1579.89  1580.04
eigval :     1582.35  1588.19  1591.73  1591.78  1592.37  1596.38
eigval :     1598.15  1598.64  1614.43  3070.62  3070.75  3071.36
eigval :     3071.77  3071.87  3072.29  3072.55  3073.24  3074.01
eigval :     3078.25  3078.84  3080.79  3081.31  3081.74  3082.03
eigval :     3082.60  3082.82  3083.33  3084.20  3084.38  3085.06
eigval :     3085.45  3088.34  3089.24  3090.39  3092.61  3092.71
eigval :     3093.28  3093.99  3094.27  3094.77  3096.89  3098.28
eigval :     3099.42  3099.87  3100.36

   temp. (K)  partition function   enthalpy   heat capacity  entropy
                                   cal/mol     cal/K/mol   cal/K/mol   J/K/mol
 298.15  VIB  0.894E+21            25374.294    157.719    160.503
         ROT  0.125E+09              888.752      2.981     40.036
         INT  0.112E+30            26263.047    160.700    200.539
         TR   0.172E+29             1481.254      4.968     45.415
         TOT                       27744.3008   165.6678   245.9541  1029.0718

       T/K    H(0)-H(T)+PV         H(T)/Eh          T*S/Eh         G(T)/Eh
   ------------------------------------------------------------------------
    298.15    0.442134E-01    0.737044E+00    0.116861E+00    0.620183E+00
   ------------------------------------------------------------------------

         :::::::::::::::::::::::::::::::::::::::::::::::::::::
         ::                  THERMODYNAMIC                  ::
         :::::::::::::::::::::::::::::::::::::::::::::::::::::
         :: total free energy        -134.449896181667 Eh   ::
         ::.................................................::
         :: total energy             -135.070079265771 Eh   ::
         :: zero point energy           0.692830440113 Eh   ::
         :: G(RRHO) w/o ZPVE           -0.072647356010 Eh   ::
         :: G(RRHO) contrib.            0.620183084103 Eh   ::
         :::::::::::::::::::::::::::::::::::::::::::::::::::::

           -------------------------------------------------
          | TOTAL ENERGY             -135.070079265771 Eh   |
          | TOTAL ENTHALPY           -134.333035468085 Eh   |
          | TOTAL FREE ENERGY        -134.449896181667 Eh   |
          | GRADIENT NORM               0.000036393162 Eh/α |
          | HOMO-LUMO GAP               2.215536282733 eV   |
           -------------------------------------------------

 * finished run on 2025/08/29 at 13:40:15.238
