   * xtb version 6.7.1 (edcfbbe) compiled by 'albert@albert-system' on 2024-07-22

   ID    Z sym.   atoms
    1    6 C      1-4, 6-19, 21-26, 28-37, 39-53
    2    7 N      5, 20, 27, 38
    3    1 H      54-89

          program call               : xtb data2507/toluene/DDPA-Ph-Bz/DDPA-Ph-Bz_toluene_S0_crest.xyz --gfn 2 --gbsa toluene --ohess vtight --parallel 40 --molden --ceasefiles --namespace data2507/toluene/DDPA-Ph-Bz/DDPA-Ph-Bz_toluene_S0_finalOpt
      * Solvation model:               GBSA
        Solvent                        toluene
        Solvent mass                       9.2140E+01 g/mol
          :  Hamiltonian                  GFN2-xTB          :
 * total energy  :  -135.0706961 Eh     change       -0.1201869E-08 Eh
 * total energy  :  -135.0707641 Eh     change       -0.6802387E-04 Eh
 * total energy  :  -135.0708164 Eh     change       -0.5225836E-04 Eh
 * total energy  :  -135.0708446 Eh     change       -0.2819853E-04 Eh
 * total energy  :  -135.0708759 Eh     change       -0.3128765E-04 Eh
 * total energy  :  -135.0708999 Eh     change       -0.2403610E-04 Eh
 * total energy  :  -135.0709129 Eh     change       -0.1299273E-04 Eh
 * total energy  :  -135.0709201 Eh     change       -0.7176625E-05 Eh
 * total energy  :  -135.0709273 Eh     change       -0.7158260E-05 Eh
 * total energy  :  -135.0709347 Eh     change       -0.7462182E-05 Eh
 * total energy  :  -135.0710581 Eh     change       -0.1089621E-05 Eh
 * total energy  :  -135.0710588 Eh     change       -0.7172780E-06 Eh
 * total energy  :  -135.0710593 Eh     change       -0.4679118E-06 Eh
 * total energy  :  -135.0710597 Eh     change       -0.4038220E-06 Eh
 * total energy  :  -135.0710602 Eh     change       -0.4736112E-06 Eh
 * total energy  :  -135.0710608 Eh     change       -0.5730321E-06 Eh
 * total energy  :  -135.0710614 Eh     change       -0.6124808E-06 Eh
 * total energy  :  -135.0710619 Eh     change       -0.5502208E-06 Eh
 * total energy  :  -135.0710619 Eh     change       -0.5237411E-08 Eh
   *** GEOMETRY OPTIMIZATION CONVERGED AFTER 68 ITERATIONS ***

 final structure:
================
89
 xtb: 6.7.1 (edcfbbe)
C           -2.54887240064841       -5.85681273992966       -2.03257319461761
C           -3.31834388890077       -5.91126732232567       -0.88159407982826
C           -3.68977606435004       -4.75027034580703       -0.23097098778984
C           -3.30307239178530       -3.50736138781261       -0.73270205685533
N           -3.67544478528749       -2.32841825045933       -0.07620059244298
C           -4.93104298584246       -2.23213225429922        0.53723171080509
C           -6.05666370743434       -2.80179634769328       -0.05726954669549
C           -7.29082155651676       -2.70882139146059        0.55695978983118
C           -7.42574806809472       -2.04242432600214        1.76427735136793
C           -6.31117799739197       -1.47188262462440        2.35722793966067
C           -5.07205163965546       -1.56592912650971        1.75419511157726
C           -2.79722398700264       -1.23968140052297       -0.04178908913157
C           -1.42499554002637       -1.44786052496025        0.08311028170934
C           -0.54652905660936       -0.37038803572269        0.08912505296846
C            0.90324861555801       -0.59262220902633        0.19701628901283
C            1.51023359747040       -1.65980849502006       -0.46485214803386
C            2.87435716310491       -1.85104767787309       -0.39480629537128
C            3.67531690844059       -0.97323735259424        0.33472233980647
C            5.11238176350710       -1.19824672428221        0.37854021914847
N            5.65191644896221       -2.38724860660029        0.43339487331809
C            7.00414717960449       -2.18743344273031        0.50067686209820
C            8.04685149250249       -3.10548484337693        0.57179041639912
C            9.33355698829236       -2.61126031213732        0.60983250941739
C            9.59286706872066       -1.23934462518255        0.56897845641326
C            8.57320118632105       -0.31058151391098        0.50072849850303
C            7.27634999719059       -0.79887861067280        0.48263751162456
N            6.04640320112423       -0.18301691010820        0.40526213251456
C            5.82269866573010        1.19795313902875        0.25263965381920
C            5.04014422930057        1.66407017408364       -0.79927127774656
C            4.82224366772683        3.02184745886369       -0.94279034872722
C            5.39246422659334        3.91864473499710       -0.05345007370547
C            6.18068991315031        3.45413601837068        0.98630836481924
C            6.39584015124411        2.09647827115826        1.14588197678241
C            3.07017576885460        0.07537750357787        1.02579656731289
C            1.70470855946721        0.26077562575001        0.95387516029518
C           -1.04840258913627        0.92331199131110       -0.00550154197420
C           -2.41875930739661        1.14334980670011       -0.12891396474859
N           -2.91725033477456        2.44520148011452       -0.24580286842447
C           -4.14038513537985        2.78182421771727        0.34900833021778
C           -4.48080585133941        2.27422297352643        1.60245291970989
C           -5.68764872529957        2.60912530060700        2.18510311753218
C           -6.56978761635568        3.45706623812244        1.53532863405692
C           -6.23494318087824        3.96768905621106        0.29153439510339
C           -5.03311799434163        3.63285678106424       -0.30210060366010
C           -2.20236418079074        3.41191254702035       -0.96346819043236
C           -1.51076619827091        3.06783170868670       -2.12524106681529
C           -0.80492742554628        4.02682388590050       -2.82594849911817
C           -0.78283801547438        5.34181806198694       -2.38962064287448
C           -1.47187612967374        5.69041268990985       -1.23905239668982
C           -2.17263681243773        4.73647317798785       -0.52634778199631
C           -3.28896188722260        0.05728165559244       -0.15413413820870
C           -2.53804854034907       -3.45856521745496       -1.89852225377898
C           -2.16120508097410       -4.62517321038246       -2.53529478396502
H           -2.25489693450832       -6.76643382603047       -2.53446179284741
H           -3.62403130321806       -6.86656424398842       -0.47995511643236
H           -4.27952326714895       -4.79834827473013        0.67290808132378
H           -5.95542336200985       -3.31567500855983       -1.00226711253605
H           -8.15490961609056       -3.15349866535082        0.08470399166567
H           -8.39211604268117       -1.96966879815532        2.24025754875702
H           -6.40573075303023       -0.95849096373645        3.30279511767010
H           -4.20173463786589       -1.13087085279687        2.22311410635078
H           -1.04962709704497       -2.45328479775019        0.19511442610903
H            0.90885294094867       -2.33303665027379       -1.05728016509574
H            3.34459146161638       -2.67439376338719       -0.91063986822345
H            7.84154326718962       -4.16437380350336        0.59022531916557
H           10.16533699348975       -3.29827176267796        0.66530584047351
H           10.61736041464490       -0.89794241039064        0.58938658034776
H            8.77948654283408        0.74841840465384        0.45749188823417
H            4.60550908742122        0.95961314264935       -1.49308986253417
H            4.20886965976753        3.37949820962732       -1.75605719372673
H            5.22266298771371        4.97815350433179       -0.17103178076160
H            6.62628141751425        4.14917023153607        1.68232715362955
H            6.99390032734421        1.72643740478504        1.96571111752198
H            3.66631491728216        0.73828275479689        1.63566259549344
H            1.25071947405917        1.06860143431292        1.50819595256416
H           -0.37375903023643        1.76542953737702       -0.00763012433358
H           -3.78979228498716        1.62151508901914        2.11520333434477
H           -5.93680691599722        2.21340346135799        3.15867021411850
H           -7.51085030570205        3.71901811671106        1.99521419608130
H           -6.91783109027194        4.62677337387666       -0.22479268543791
H           -4.77733163787723        4.02652983065251       -1.27518834056720
H           -1.53418364292128        2.04574415868985       -2.47414633585925
H           -0.27630700780727        3.74622365497128       -3.72559184059333
H           -0.23420162856889        6.08950968203337       -2.94256555859160
H           -1.45709079925064        6.71216368682704       -0.88804088790595
H           -2.70180333155378        5.00982792294387        0.37503887359437
H           -4.35002893616340        0.22104587171059       -0.26946803572951
H           -2.24338001803371       -2.50000720124210       -2.30044278589507
H           -1.56770023311921       -4.57139372003951       -3.43669310904051

          :  Hamiltonian                  GFN2-xTB          :
         :: gradient norm              0.000057084484 Eh/a0 ::
         :: HOMO-LUMO gap              2.194853921058 eV    ::
         :: SCC energy              -137.600245137616 Eh    ::
         :: -> dispersion             -0.125025283350 Eh    ::
         :: -> Gsolv                  -0.056489980345 Eh    ::
         :: repulsion energy           2.529183203992 Eh    ::

    * Orbital Energies and Occupations

         #    Occupation            Energy/Eh            Energy/eV
      -------------------------------------------------------------
         1        2.0000           -0.6888465             -18.7445
       ...           ...                  ...                  ...
       114        2.0000           -0.4088936             -11.1266
       115        2.0000           -0.4074947             -11.0885
       116        2.0000           -0.4065467             -11.0627
       117        2.0000           -0.4059112             -11.0454
       118        2.0000           -0.4049311             -11.0187
       119        2.0000           -0.4043623             -11.0033
       120        2.0000           -0.4030921             -10.9687
       121        2.0000           -0.3982618             -10.8373
       122        2.0000           -0.3839125             -10.4468
       123        2.0000           -0.3812337             -10.3739
       124        2.0000           -0.3791571             -10.3174
       125        2.0000           -0.3521906              -9.5836
       126        2.0000           -0.3477270              -9.4621 (HOMO)
       127                         -0.2670676              -7.2673 (LUMO)
       128                         -0.2414092              -6.5691
       129                         -0.2379152              -6.4740
       130                         -0.2331267              -6.3437
       131                         -0.2326935              -6.3319
       132                         -0.2303440              -6.2680
       133                         -0.2292893              -6.2393
       134                         -0.2279790              -6.2036
       135                         -0.2249866              -6.1222
       136                         -0.2241402              -6.0992
       137                         -0.2215792              -6.0295
       ...                                ...                  ...
       248                          0.6989161              19.0185
      -------------------------------------------------------------
                  HL-Gap            0.0806594 Eh            2.1949 eV

     #   Z          covCN         q      C6AA      α(0)
     1   6 C        2.919    -0.040    28.987     8.829
     2   6 C        2.919    -0.030    28.753     8.793
     3   6 C        2.922    -0.048    29.201     8.862
     4   6 C        2.923     0.066    26.529     8.447
     5   7 N        2.753    -0.080    22.787     7.090
     6   6 C        2.923     0.065    26.534     8.447
     7   6 C        2.922    -0.048    29.190     8.860
     8   6 C        2.919    -0.030    28.758     8.794
     9   6 C        2.919    -0.039    28.976     8.827
    10   6 C        2.919    -0.030    28.741     8.791
    11   6 C        2.922    -0.047    29.171     8.857
    12   6 C        2.921     0.066    26.514     8.444
    13   6 C        2.927    -0.063    29.565     8.917
    14   6 C        2.974     0.010    27.789     8.647
    15   6 C        2.977     0.015    27.683     8.631
    16   6 C        2.923    -0.032    28.801     8.801
    17   6 C        2.924    -0.029    28.716     8.788
    18   6 C        2.975    -0.003    28.093     8.694
    19   6 C        3.180     0.145    24.468     8.075
    20   7 N        1.885    -0.320    29.159     8.005
    21   6 C        3.190     0.069    25.998     8.317
    22   6 C        2.910    -0.048    29.188     8.859
    23   6 C        2.922    -0.042    29.039     8.837
    24   6 C        2.926    -0.040    28.984     8.829
    25   6 C        2.908    -0.054    29.342     8.882
    26   6 C        3.086     0.036    27.099     8.533
    27   7 N        2.824    -0.060    22.392     7.028
    28   6 C        2.912     0.065    26.553     8.450
    29   6 C        2.921    -0.039    28.977     8.828
    30   6 C        2.920    -0.026    28.642     8.776
    31   6 C        2.919    -0.030    28.751     8.793
    32   6 C        2.920    -0.027    28.672     8.781
    33   6 C        2.921    -0.041    29.020     8.834
    34   6 C        2.921    -0.033    28.828     8.805
    35   6 C        2.924    -0.034    28.835     8.806
    36   6 C        2.927    -0.063    29.577     8.919
    37   6 C        2.920     0.066    26.518     8.445
    38   7 N        2.753    -0.080    22.789     7.090
    39   6 C        2.924     0.065    26.534     8.447
    40   6 C        2.922    -0.047    29.171     8.857
    41   6 C        2.919    -0.030    28.741     8.791
    42   6 C        2.919    -0.039    28.973     8.827
    43   6 C        2.919    -0.030    28.757     8.794
    44   6 C        2.922    -0.048    29.189     8.860
    45   6 C        2.923     0.066    26.529     8.446
    46   6 C        2.922    -0.048    29.197     8.861
    47   6 C        2.919    -0.030    28.759     8.794
    48   6 C        2.919    -0.040    28.986     8.829
    49   6 C        2.919    -0.030    28.757     8.794
    50   6 C        2.922    -0.048    29.197     8.861
    51   6 C        2.926    -0.069    29.714     8.939
    52   6 C        2.922    -0.049    29.211     8.863
    53   6 C        2.919    -0.030    28.761     8.794
    54   1 H        0.926     0.031     2.568     2.506
    55   1 H        0.926     0.033     2.549     2.497
    56   1 H        0.926     0.031     2.573     2.508
    57   1 H        0.926     0.031     2.566     2.505
    58   1 H        0.926     0.033     2.543     2.494
    59   1 H        0.926     0.032     2.560     2.502
    60   1 H        0.926     0.033     2.539     2.492
    61   1 H        0.926     0.031     2.577     2.510
    62   1 H        0.926     0.036     2.501     2.473
    63   1 H        0.926     0.044     2.394     2.420
    64   1 H        0.926     0.045     2.377     2.411
    65   1 H        0.926     0.038     2.479     2.462
    66   1 H        0.926     0.034     2.533     2.489
    67   1 H        0.926     0.035     2.517     2.481
    68   1 H        0.926     0.032     2.563     2.503
    69   1 H        0.926     0.036     2.504     2.474
    70   1 H        0.926     0.046     2.374     2.410
    71   1 H        0.926     0.046     2.369     2.407
    72   1 H        0.926     0.046     2.371     2.408
    73   1 H        0.926     0.042     2.417     2.431
    74   1 H        0.926     0.030     2.585     2.514
    75   1 H        0.926     0.042     2.427     2.436
    76   1 H        0.926     0.036     2.501     2.473
    77   1 H        0.926     0.031     2.573     2.508
    78   1 H        0.926     0.033     2.537     2.491
    79   1 H        0.926     0.032     2.559     2.502
    80   1 H        0.926     0.033     2.542     2.493
    81   1 H        0.926     0.031     2.568     2.506
    82   1 H        0.926     0.031     2.569     2.507
    83   1 H        0.926     0.033     2.548     2.496
    84   1 H        0.926     0.032     2.563     2.504
    85   1 H        0.926     0.033     2.543     2.494
    86   1 H        0.926     0.031     2.570     2.507
    87   1 H        0.926     0.033     2.544     2.494
    88   1 H        0.926     0.031     2.572     2.508
    89   1 H        0.926     0.033     2.548     2.496

molecular dipole:
                 x           y           z       tot (Debye)
 q only:       -0.716       1.400      -0.122
   full:       -0.536       1.683      -0.120       4.499

 projected vibrational frequencies (cm⁻¹)
eigval :       -0.00    -0.00     0.00     0.00     0.00     0.00
eigval :        8.82    10.44    13.28    14.51    20.19    28.54
eigval :       31.55    41.99    45.12    53.18    54.39    58.37
eigval :       62.53    68.02    71.86    73.93    80.19    83.69
eigval :       86.95    97.31   104.15   123.69   168.70   173.16
eigval :      196.17   208.43   221.17   224.70   228.55   230.68
eigval :      240.59   248.57   250.44   277.03   282.23   300.59
eigval :      312.87   321.53   340.63   352.40   368.94   374.72
eigval :      378.85   379.46   380.35   381.90   385.50   386.52
eigval :      393.52   395.33   405.91   420.28   466.35   474.73
eigval :      477.37   481.97   488.71   490.13   516.33   542.93
eigval :      547.88   560.11   565.87   578.37   582.00   585.92
eigval :      589.25   589.53   591.81   595.44   602.03   604.07
eigval :      618.48   625.07   627.83   658.19   660.97   661.62
eigval :      662.14   665.88   666.73   668.46   677.95   703.87
eigval :      711.28   716.67   741.94   754.62   756.19   756.24
eigval :      763.77   765.85   775.00   793.53   814.49   835.16
eigval :      865.64   868.46   869.89   870.87   873.81   875.08
eigval :      876.13   876.94   879.34   882.53   885.25   889.17
eigval :      891.40   891.86   892.94   898.67   904.82   906.70
eigval :      911.06   921.04   922.27   922.92   925.40   927.12
eigval :      928.21   928.46   928.59   928.65   929.06   929.46
eigval :      930.44   930.62   932.18   954.63   974.73   979.32
eigval :      997.32  1002.71  1004.49  1011.45  1030.49  1062.16
eigval :     1066.56  1079.20  1081.59  1082.04  1082.94  1083.26
eigval :     1115.68  1116.94  1119.25  1120.87  1122.46  1123.78
eigval :     1132.76  1136.81  1139.92  1166.66  1173.66  1177.31
eigval :     1177.94  1178.62  1179.32  1179.74  1188.25  1189.09
eigval :     1191.54  1194.94  1196.99  1200.93  1206.78  1207.44
eigval :     1243.76  1255.55  1263.62  1265.29  1271.18  1275.58
eigval :     1276.07  1277.45  1284.63  1289.35  1291.51  1311.29
eigval :     1314.08  1314.18  1315.29  1318.71  1318.90  1319.15
eigval :     1325.09  1325.61  1332.96  1360.91  1369.34  1374.40
eigval :     1396.94  1415.55  1429.35  1430.99  1433.57  1437.87
eigval :     1440.78  1444.92  1447.86  1468.46  1472.45  1472.94
eigval :     1473.22  1474.65  1482.94  1485.79  1533.48  1556.57
eigval :     1566.10  1567.55  1575.66  1576.87  1580.00  1580.42
eigval :     1582.30  1587.89  1591.89  1592.21  1592.35  1596.52
eigval :     1598.34  1599.15  1614.69  3070.56  3070.98  3071.35
eigval :     3071.96  3072.11  3072.50  3074.01  3074.23  3075.51
eigval :     3077.45  3077.84  3080.29  3081.80  3082.01  3082.16
eigval :     3082.62  3082.87  3084.19  3084.99  3085.09  3085.61
eigval :     3086.39  3088.57  3089.28  3090.01  3092.32  3092.90
eigval :     3093.33  3093.64  3094.46  3095.33  3097.26  3098.49
eigval :     3099.72  3100.15  3100.71

   temp. (K)  partition function   enthalpy   heat capacity  entropy
                                   cal/mol     cal/K/mol   cal/K/mol   J/K/mol
 298.15  VIB  0.111E+22            25356.080    157.809    160.810
         ROT  0.125E+09              888.752      2.981     40.023
         INT  0.138E+30            26244.832    160.790    200.834
         TR   0.172E+29             1481.254      4.968     45.415
         TOT                       27726.0861   165.7578   246.2487  1030.3045

       T/K    H(0)-H(T)+PV         H(T)/Eh          T*S/Eh         G(T)/Eh
   ------------------------------------------------------------------------
    298.15    0.441843E-01    0.737083E+00    0.117001E+00    0.620083E+00
   ------------------------------------------------------------------------

         :::::::::::::::::::::::::::::::::::::::::::::::::::::
         ::                  THERMODYNAMIC                  ::
         :::::::::::::::::::::::::::::::::::::::::::::::::::::
         :: total free energy        -134.450979280838 Eh   ::
         ::.................................................::
         :: total energy             -135.071061933813 Eh   ::
         :: zero point energy           0.692899024020 Eh   ::
         :: G(RRHO) w/o ZPVE           -0.072816371046 Eh   ::
         :: G(RRHO) contrib.            0.620082652974 Eh   ::
         :::::::::::::::::::::::::::::::::::::::::::::::::::::

           -------------------------------------------------
          | TOTAL ENERGY             -135.071061933813 Eh   |
          | TOTAL ENTHALPY           -134.333978579139 Eh   |
          | TOTAL FREE ENERGY        -134.450979280838 Eh   |
          | GRADIENT NORM               0.000057076360 Eh/α |
          | HOMO-LUMO GAP               2.194853163251 eV   |
           -------------------------------------------------

 * finished run on 2025/08/29 at 13:48:07.162
