   * xtb version 6.7.1 (edcfbbe) compiled by 'albert@albert-system' on 2024-07-22

   ID    Z sym.   atoms
    1    6 C      1-4, 6-19, 21-26, 28-37, 39-53
    2    7 N      5, 20, 27, 38
    3    1 H      54-89

          program call               : xtb data2507/toluene/DDPA-Ph-Bz/DDPA-Ph-Bz_toluene_S0_finalOpt.xtbopt.xyz --gfn 2 --uhf 2 --gbsa toluene --ohess vtight --parallel 40 --molden --ceasefiles --namespace data2507/toluene/DDPA-Ph-Bz/DDPA-Ph-Bz_toluene_T1_preOpt
      * Solvation model:               GBSA
        Solvent                        toluene
        Solvent mass                       9.2140E+01 g/mol
          :  Hamiltonian                  GFN2-xTB          :
 * total energy  :  -134.9716514 Eh     change       -0.2197174E-07 Eh
 * total energy  :  -134.9766686 Eh     change       -0.5017193E-02 Eh
 * total energy  :  -134.9793982 Eh     change       -0.2729623E-02 Eh
 * total energy  :  -134.9801203 Eh     change       -0.7220665E-03 Eh
 * total energy  :  -134.9810047 Eh     change       -0.8844213E-03 Eh
 * total energy  :  -134.9815434 Eh     change       -0.5386973E-03 Eh
 * total energy  :  -134.9819300 Eh     change       -0.3865973E-03 Eh
 * total energy  :  -134.9822346 Eh     change       -0.3045847E-03 Eh
 * total energy  :  -134.9824155 Eh     change       -0.1809165E-03 Eh
 * total energy  :  -134.9824857 Eh     change       -0.7023709E-04 Eh
 * total energy  :  -134.9829244 Eh     change       -0.2749635E-05 Eh
 * total energy  :  -134.9829261 Eh     change       -0.1699372E-05 Eh
 * total energy  :  -134.9829276 Eh     change       -0.1463542E-05 Eh
 * total energy  :  -134.9829286 Eh     change       -0.9876961E-06 Eh
 * total energy  :  -134.9829291 Eh     change       -0.5979260E-06 Eh
 * total energy  :  -134.9829295 Eh     change       -0.3949418E-06 Eh
 * total energy  :  -134.9829299 Eh     change       -0.4048669E-06 Eh
 * total energy  :  -134.9829303 Eh     change       -0.3799843E-06 Eh
 * total energy  :  -134.9829304 Eh     change       -0.9616323E-07 Eh
   *** GEOMETRY OPTIMIZATION CONVERGED AFTER 44 ITERATIONS ***

 final structure:
================
89
 xtb: 6.7.1 (edcfbbe)
C           -2.48325426911354       -5.81594632024137       -2.05970000136498
C           -3.27988728984505       -5.89595922458010       -0.92800351349016
C           -3.68118748547524       -4.74894389179667       -0.27151343891042
C           -3.29266734247128       -3.49430051957011       -0.74682398767600
N           -3.69106278733203       -2.33172358398205       -0.08318081817372
C           -4.95133311347704       -2.26030934490144        0.51771841130994
C           -6.06170035089892       -2.85034505975744       -0.08881908570808
C           -7.30280391367154       -2.77551945250583        0.51269846906955
C           -7.45893478522917       -2.11117921861014        1.71945311835321
C           -6.35982924204018       -1.52186494268827        2.32439750384709
C           -5.11390734722584       -1.59328250733025        1.73328353799214
C           -2.83143238666254       -1.22821024510270       -0.02683463137754
C           -1.46636534472838       -1.41812663449016        0.11924279455159
C           -0.56601965767462       -0.33078482537097        0.14658175156788
C            0.84809086739736       -0.52749495544050        0.26161290059927
C            1.46369126348300       -1.77384325227304       -0.04795427006104
C            2.81031363334241       -1.94281579943934        0.00396954327743
C            3.68744853056488       -0.87521964870285        0.36227874856969
C            5.07087676907772       -1.11199441334199        0.35076474517699
N            5.59095892114260       -2.35382683626704        0.30983704956519
C            6.92121221869790       -2.21566899444083        0.42492927026233
C            7.92843234503740       -3.18964412092424        0.44734090889351
C            9.23612051690168       -2.76389987618222        0.53501793782421
C            9.56500878810311       -1.40804874089993        0.59376484801917
C            8.58632032215028       -0.42151182457851        0.58278115115639
C            7.27161989147389       -0.83469644719428        0.51728488105516
N            6.08219646827534       -0.14463372352625        0.46041347403973
C            5.98391600293350        1.24024428605861        0.27067823554744
C            5.30000194973936        1.75287274183951       -0.83188565064142
C            5.23084752119730        3.11859838828729       -1.02544659971115
C            5.85025906750551        3.98461220153517       -0.13703930838984
C            6.53693077437035        3.47676479561497        0.95407796028053
C            6.60575954674691        2.11130209931516        1.16218609004400
C            3.07131355461262        0.35001031300106        0.74741186948908
C            1.72141462438461        0.50933700387885        0.69172405514231
C           -1.12691943270422        0.96288461301539        0.05379572402885
C           -2.49207892317331        1.15568866060808       -0.09054318823094
N           -3.00812528132140        2.45142593280544       -0.21869652978959
C           -4.23526027661661        2.77122459104816        0.37003229378891
C           -4.57532997697095        2.24731680485742        1.61852037858109
C           -5.78827912080612        2.56443431358591        2.19736445461865
C           -6.67812198788023        3.40535218019536        1.54750240116440
C           -6.34495135418758        3.92928618469553        0.30805446290408
C           -5.13564185089941        3.61619070199222       -0.28130947042995
C           -2.30611578854145        3.41649191627337       -0.94496897784231
C           -1.58731261655218        3.06058460229537       -2.08826495618367
C           -0.88990138715548        4.01883793929984       -2.79716740254191
C           -0.90038072108018        5.34287873284664       -2.38628333521656
C           -1.61405290217384        5.70253299833333       -1.25347447322252
C           -2.31077537540977        4.75139866049781       -0.53413210589479
C           -3.36135958185421        0.06166800969634       -0.13602146072610
C           -2.49613767622873       -3.41983828244645       -1.89186618139283
C           -2.09433868953483       -4.57330871074812       -2.53604412164983
H           -2.16749118097366       -6.71498974279559       -2.56678134589896
H           -3.58246251597391       -6.86003556998779       -0.54667425368934
H           -4.28592470827726       -4.81604069080642        0.62074032258044
H           -5.94339190342445       -3.35689940269057       -1.03535852982522
H           -8.15520308406102       -3.23265006196613        0.03215625219038
H           -8.43059754451672       -2.05471408796108        2.18613936731415
H           -6.47235599904164       -1.01240119331627        3.26959898513526
H           -4.25383065441605       -1.14938405993130        2.21167703890998
H           -1.09786476932471       -2.42259051666086        0.24994657188268
H            0.85197199796146       -2.60170205701790       -0.37326863811635
H            3.26505246660997       -2.88688263623906       -0.25397539768717
H            7.67071662643214       -4.23576652855892        0.39167613014841
H           10.03275870925287       -3.49422618424007        0.55277518350825
H           10.60412897242950       -1.11809585180616        0.64724501559930
H            8.85177360970219        0.62495930365268        0.61549845130207
H            4.82487328445608        1.07088656354417       -1.52209492682168
H            4.69702624615650        3.50882130931918       -1.87937776310216
H            5.79699740775673        5.05129341555208       -0.29435735191266
H            7.01791510113356        4.14655395811243        1.65189715011195
H            7.12330724823521        1.71122391879405        2.02196440584621
H            3.68210935695580        1.15213489552889        1.13373981474530
H            1.30301354310397        1.44512235162103        1.03191783927459
H           -0.48373011981185        1.82764218471017        0.07017141247915
H           -3.87510395454675        1.60509585233659        2.13116473319668
H           -6.03679798323181        2.16116769288084        3.16755063740572
H           -7.62456221284828        3.65188261471304        2.00424713205942
H           -7.03481763042859        4.58116574753188       -0.20730178260295
H           -4.88231367265513        4.01476974538807       -1.25267326266685
H           -1.58704442753506        2.03183311972200       -2.41667439601391
H           -0.34070471069727        3.73092534899946       -3.68151089382182
H           -0.35548920293344        6.08896238698490       -2.94454415645409
H           -1.62085167257191        6.73052929000065       -0.92219002127626
H           -2.85346333372480        5.03122419711768        0.35677387366409
H           -4.41937760321406        0.20829096140842       -0.28236370774479
H           -2.20113271689764       -2.45325497060079       -2.27250510086313
H           -1.47868530602624       -4.50118594775757       -3.42053819603425

          :  Hamiltonian                  GFN2-xTB          :
         :: gradient norm              0.000092668025 Eh/a0 ::
         :: HOMO-LUMO gap              0.893687726570 eV    ::
         :: SCC energy              -137.492746797198 Eh    ::
         :: -> dispersion             -0.124963619397 Eh    ::
         :: -> Gsolv                  -0.061135874080 Eh    ::
         :: repulsion energy           2.509816258154 Eh    ::

    * Orbital Energies and Occupations

         #    Occupation            Energy/Eh            Energy/eV
      -------------------------------------------------------------
         1        2.0000           -0.6748976             -18.3649
       ...           ...                  ...                  ...
       115        2.0000           -0.4115305             -11.1983
       116        2.0000           -0.4111790             -11.1888
       117        2.0000           -0.4103297             -11.1656
       118        2.0000           -0.4076399             -11.0924
       119        2.0000           -0.4015711             -10.9273
       120        2.0000           -0.3953679             -10.7585
       121        2.0000           -0.3906110             -10.6291
       122        2.0000           -0.3727311             -10.1425
       123        2.0000           -0.3660414              -9.9605
       124        1.9983           -0.3619090              -9.8480
       125        1.5755           -0.3561494              -9.6913
       126        1.4263           -0.3555783              -9.6758
       127        1.0000           -0.2713418              -7.3836 (HOMO)
       128                         -0.2384992              -6.4899 (LUMO)
       129                         -0.2377928              -6.4707
       130                         -0.2372391              -6.4556
       131                         -0.2367363              -6.4419
       132                         -0.2316838              -6.3044
       133                         -0.2313095              -6.2943
       134                         -0.2294197              -6.2428
       135                         -0.2284579              -6.2167
       136                         -0.2280267              -6.2049
       137                         -0.2268889              -6.1740
       138                         -0.2143898              -5.8338
       ...                                ...                  ...
       248                          0.7131525              19.4059
      -------------------------------------------------------------
                  HL-Gap            0.0328427 Eh            0.8937 eV

     #   Z          covCN         q      C6AA      α(0)
     1   6 C        2.919    -0.033    28.826     8.804
     2   6 C        2.919    -0.027    28.683     8.782
     3   6 C        2.922    -0.044    29.098     8.846
     4   6 C        2.924     0.066    26.533     8.447
     5   7 N        2.754    -0.050    22.198     6.998
     6   6 C        2.925     0.065    26.543     8.449
     7   6 C        2.921    -0.043    29.080     8.843
     8   6 C        2.919    -0.027    28.688     8.783
     9   6 C        2.919    -0.033    28.827     8.805
    10   6 C        2.919    -0.027    28.673     8.781
    11   6 C        2.922    -0.043    29.057     8.840
    12   6 C        2.919     0.063    26.591     8.456
    13   6 C        2.925    -0.058    29.449     8.899
    14   6 C        2.966     0.005    27.905     8.665
    15   6 C        2.970    -0.009    28.228     8.715
    16   6 C        2.914    -0.042    29.040     8.837
    17   6 C        2.919    -0.038    28.952     8.824
    18   6 C        2.968    -0.021    28.528     8.761
    19   6 C        3.131     0.134    24.888     8.167
    20   7 N        1.878    -0.345    29.821     8.095
    21   6 C        3.152     0.082    25.898     8.323
    22   6 C        2.909    -0.060    29.491     8.905
    23   6 C        2.918    -0.044    29.082     8.843
    24   6 C        2.924    -0.043    29.080     8.843
    25   6 C        2.906    -0.065    29.605     8.922
    26   6 C        3.061     0.045    26.925     8.509
    27   7 N        2.809    -0.082    22.827     7.096
    28   6 C        2.912     0.067    26.497     8.441
    29   6 C        2.921    -0.041    29.016     8.833
    30   6 C        2.919    -0.029    28.714     8.787
    31   6 C        2.919    -0.036    28.893     8.815
    32   6 C        2.919    -0.030    28.746     8.792
    33   6 C        2.921    -0.045    29.113     8.848
    34   6 C        2.911    -0.045    29.111     8.847
    35   6 C        2.915    -0.041    29.016     8.833
    36   6 C        2.925    -0.057    29.423     8.895
    37   6 C        2.918     0.063    26.589     8.456
    38   7 N        2.754    -0.052    22.254     7.006
    39   6 C        2.925     0.065    26.540     8.448
    40   6 C        2.922    -0.043    29.069     8.842
    41   6 C        2.919    -0.027    28.678     8.782
    42   6 C        2.919    -0.034    28.837     8.806
    43   6 C        2.919    -0.028    28.692     8.784
    44   6 C        2.922    -0.044    29.090     8.845
    45   6 C        2.924     0.066    26.533     8.447
    46   6 C        2.921    -0.043    29.075     8.842
    47   6 C        2.919    -0.027    28.686     8.783
    48   6 C        2.919    -0.034    28.841     8.807
    49   6 C        2.919    -0.028    28.691     8.784
    50   6 C        2.922    -0.044    29.104     8.847
    51   6 C        2.922    -0.077    29.916     8.969
    52   6 C        2.922    -0.043    29.071     8.842
    53   6 C        2.919    -0.027    28.681     8.782
    54   1 H        0.926     0.039     2.466     2.456
    55   1 H        0.926     0.041     2.442     2.444
    56   1 H        0.926     0.040     2.453     2.449
    57   1 H        0.926     0.039     2.458     2.452
    58   1 H        0.926     0.041     2.441     2.443
    59   1 H        0.926     0.040     2.453     2.449
    60   1 H        0.926     0.041     2.434     2.440
    61   1 H        0.926     0.039     2.465     2.455
    62   1 H        0.926     0.038     2.476     2.461
    63   1 H        0.926     0.027     2.633     2.538
    64   1 H        0.926     0.036     2.505     2.475
    65   1 H        0.926     0.028     2.609     2.526
    66   1 H        0.926     0.026     2.641     2.541
    67   1 H        0.926     0.027     2.628     2.535
    68   1 H        0.926     0.022     2.704     2.572
    69   1 H        0.926     0.031     2.567     2.506
    70   1 H        0.926     0.040     2.449     2.447
    71   1 H        0.926     0.040     2.452     2.449
    72   1 H        0.926     0.039     2.461     2.453
    73   1 H        0.926     0.035     2.517     2.481
    74   1 H        0.926     0.014     2.830     2.631
    75   1 H        0.926     0.024     2.676     2.558
    76   1 H        0.926     0.038     2.476     2.461
    77   1 H        0.926     0.038     2.471     2.458
    78   1 H        0.926     0.041     2.439     2.442
    79   1 H        0.926     0.039     2.460     2.453
    80   1 H        0.926     0.040     2.448     2.447
    81   1 H        0.926     0.038     2.469     2.457
    82   1 H        0.926     0.039     2.468     2.457
    83   1 H        0.926     0.039     2.464     2.455
    84   1 H        0.926     0.038     2.473     2.459
    85   1 H        0.926     0.040     2.448     2.447
    86   1 H        0.926     0.039     2.463     2.454
    87   1 H        0.926     0.035     2.518     2.481
    88   1 H        0.926     0.039     2.459     2.452
    89   1 H        0.926     0.040     2.455     2.450

molecular dipole:
                 x           y           z       tot (Debye)
 q only:       -5.231       1.563      -0.361
   full:       -4.890       1.843      -0.339      13.310

 projected vibrational frequencies (cm⁻¹)
eigval :       -0.00    -0.00     0.00     0.00     0.00     0.00
eigval :        8.49    12.56    13.61    15.57    20.66    28.68
eigval :       34.75    42.62    48.23    54.54    56.64    58.88
eigval :       62.12    68.02    73.58    75.83    79.86    88.09
eigval :       91.02   104.43   109.95   128.78   160.66   175.10
eigval :      200.49   207.69   216.07   226.97   230.42   233.17
eigval :      236.18   247.28   249.10   253.26   272.49   297.22
eigval :      304.85   315.73   324.00   356.94   364.18   373.79
eigval :      377.24   378.75   380.61   383.68   385.49   387.23
eigval :      393.79   399.15   405.40   416.98   433.57   468.97
eigval :      472.24   472.93   483.81   494.73   496.84   523.66
eigval :      534.81   547.08   550.94   572.04   580.25   582.21
eigval :      584.53   586.78   587.76   588.56   592.95   600.96
eigval :      605.39   606.69   622.05   624.40   632.44   655.25
eigval :      659.73   660.27   662.98   664.69   667.61   671.86
eigval :      697.48   705.20   739.68   748.07   754.33   754.96
eigval :      756.67   757.30   765.62   777.33   784.31   793.93
eigval :      813.16   821.17   839.17   842.75   858.69   868.06
eigval :      869.23   869.86   872.39   873.80   874.61   876.43
eigval :      892.20   894.07   894.46   895.02   897.74   899.36
eigval :      903.62   905.33   910.09   910.89   913.17   923.53
eigval :      923.69   926.69   927.49   927.76   928.15   929.03
eigval :      929.13   929.68   932.32   934.89   961.23   972.94
eigval :      975.62   993.96  1001.58  1002.65  1004.08  1053.90
eigval :     1063.05  1077.81  1079.63  1080.07  1081.21  1082.11
eigval :     1087.82  1089.86  1118.69  1118.73  1120.28  1122.47
eigval :     1123.17  1124.33  1139.06  1160.52  1161.59  1175.99
eigval :     1177.72  1177.94  1178.51  1179.26  1183.07  1184.97
eigval :     1188.72  1188.89  1192.71  1195.63  1203.06  1206.46
eigval :     1224.90  1243.94  1256.59  1258.22  1262.13  1269.65
eigval :     1273.71  1274.76  1278.47  1282.31  1284.70  1303.38
eigval :     1303.72  1306.69  1314.08  1316.98  1317.37  1317.75
eigval :     1324.54  1324.74  1338.99  1350.31  1354.40  1366.43
eigval :     1371.81  1391.97  1397.89  1406.99  1430.41  1430.97
eigval :     1432.89  1438.55  1439.38  1440.59  1451.32  1458.62
eigval :     1460.24  1460.60  1463.10  1472.69  1473.24  1481.45
eigval :     1490.12  1523.94  1548.84  1567.08  1567.72  1568.01
eigval :     1571.99  1572.27  1573.84  1581.57  1581.98  1582.59
eigval :     1587.85  1588.02  1592.19  3066.41  3071.54  3072.10
eigval :     3075.36  3075.77  3077.01  3077.53  3077.79  3078.18
eigval :     3078.47  3079.20  3079.26  3080.85  3081.75  3084.06
eigval :     3084.66  3086.57  3086.93  3087.71  3087.99  3088.85
eigval :     3089.45  3090.67  3091.00  3091.41  3092.50  3094.31
eigval :     3096.36  3097.46  3098.12  3098.36  3098.60  3099.80
eigval :     3107.80  3109.67  3111.48

   temp. (K)  partition function   enthalpy   heat capacity  entropy
                                   cal/mol     cal/K/mol   cal/K/mol   J/K/mol
 298.15  VIB  0.724E+21            25594.739    160.150    161.566
         ROT  0.127E+09              888.752      2.981     40.061
         INT  0.919E+29            26483.491    163.131    201.627
         TR   0.172E+29             1481.254      4.968     45.415
         TOT                       27964.7453   168.0993   247.0417  1033.6223

       T/K    H(0)-H(T)+PV         H(T)/Eh          T*S/Eh         G(T)/Eh
   ------------------------------------------------------------------------
    298.15    0.445647E-01    0.733223E+00    0.117377E+00    0.615845E+00
   ------------------------------------------------------------------------

         :::::::::::::::::::::::::::::::::::::::::::::::::::::
         ::                  THERMODYNAMIC                  ::
         :::::::::::::::::::::::::::::::::::::::::::::::::::::
         :: total free energy        -134.367085069622 Eh   ::
         ::.................................................::
         :: total energy             -134.982930543116 Eh   ::
         :: zero point energy           0.688658283072 Eh   ::
         :: G(RRHO) w/o ZPVE           -0.072812809578 Eh   ::
         :: G(RRHO) contrib.            0.615845473494 Eh   ::
         :::::::::::::::::::::::::::::::::::::::::::::::::::::

           -------------------------------------------------
          | TOTAL ENERGY             -134.982930543116 Eh   |
          | TOTAL ENTHALPY           -134.249707601821 Eh   |
          | TOTAL FREE ENERGY        -134.367085069622 Eh   |
          | GRADIENT NORM               0.000093181346 Eh/α |
          | HOMO-LUMO GAP               0.893694267875 eV   |
           -------------------------------------------------

 * finished run on 2025/08/29 at 13:48:17.381
