   * xtb version 6.7.1 (edcfbbe) compiled by 'albert@albert-system' on 2024-07-22

   ID    Z sym.   atoms
    1    6 C      1-4, 6-19, 21-26, 28-37, 39-53
    2    7 N      5, 20, 27, 38
    3    1 H      54-89

          program call               : xtb data2507/toluene/DDPA-Ph-Bz/DDPA-Ph-Bz_toluene_T1_crest.xyz --gfn 2 --uhf 2 --gbsa toluene --ohess vtight --parallel 40 --molden --ceasefiles --namespace data2507/toluene/DDPA-Ph-Bz/DDPA-Ph-Bz_toluene_T1_finalOpt
      * Solvation model:               GBSA
        Solvent                        toluene
        Solvent mass                       9.2140E+01 g/mol
          :  Hamiltonian                  GFN2-xTB          :
 * total energy  :  -134.9825218 Eh     change       -0.2810540E-07 Eh
 * total energy  :  -134.9826328 Eh     change       -0.1110495E-03 Eh
 * total energy  :  -134.9827002 Eh     change       -0.6736453E-04 Eh
 * total energy  :  -134.9827275 Eh     change       -0.2725592E-04 Eh
 * total energy  :  -134.9827505 Eh     change       -0.2306435E-04 Eh
 * total energy  :  -134.9827828 Eh     change       -0.3229591E-04 Eh
 * total energy  :  -134.9828032 Eh     change       -0.2041434E-04 Eh
 * total energy  :  -134.9828114 Eh     change       -0.8139223E-05 Eh
 * total energy  :  -134.9828195 Eh     change       -0.8137028E-05 Eh
 * total energy  :  -134.9828200 Eh     change       -0.4627447E-06 Eh
 * total energy  :  -134.9829217 Eh     change       -0.3382652E-06 Eh
 * total energy  :  -134.9829222 Eh     change       -0.4540530E-06 Eh
 * total energy  :  -134.9829226 Eh     change       -0.4647829E-06 Eh
 * total energy  :  -134.9829231 Eh     change       -0.4158189E-06 Eh
 * total energy  :  -134.9829234 Eh     change       -0.3124348E-06 Eh
 * total energy  :  -134.9829236 Eh     change       -0.2276945E-06 Eh
 * total energy  :  -134.9829238 Eh     change       -0.2451661E-06 Eh
 * total energy  :  -134.9829242 Eh     change       -0.3047536E-06 Eh
 * total energy  :  -134.9829242 Eh     change       -0.7842687E-09 Eh
   *** GEOMETRY OPTIMIZATION CONVERGED AFTER 68 ITERATIONS ***

 final structure:
================
89
 xtb: 6.7.1 (edcfbbe)
C           -2.45655080686357       -5.83949002510678       -2.09354878396984
C           -3.24541947933245       -5.92609149280580       -0.95691434626110
C           -3.64701731879387       -4.78266844598451       -0.29442810916955
C           -3.26694800625687       -3.52495005232775       -0.76858595655097
N           -3.66654393094866       -2.36628493250205       -0.09923562872911
C           -4.92192208816566       -2.30349259992187        0.51319815773713
C           -6.03510039315246       -2.89579654889306       -0.08578560801744
C           -7.27139114090878       -2.82708570701947        0.52636972751973
C           -7.41976963334339       -2.16685033248962        1.73634579576605
C           -6.31763657483157       -1.57597556963322        2.33420536988544
C           -5.07647740436124       -1.64147347844264        1.73254836128418
C           -2.81458671826551       -1.25661170292610       -0.04742689424170
C           -1.44686760413963       -1.43547385721574        0.08685348283424
C           -0.55603880560577       -0.34032290207082        0.11348555309149
C            0.85997719740204       -0.52505641762667        0.22462419912094
C            1.48657061675650       -1.76336049488203       -0.09458869140370
C            2.83432891710319       -1.92205852349054       -0.03891741834526
C            3.70133305185239       -0.85115324127966        0.33391976236846
C            5.08641858347385       -1.07836514871905        0.33273544766183
N            5.61551722586997       -2.31626230383675        0.28794183626361
C            6.94358261886416       -2.16980402727014        0.41760575086629
C            7.95746321901581       -3.13677159218063        0.44371551830055
C            9.26119060037333       -2.70241363661402        0.54728811404668
C            9.57987901780472       -1.34473245141276        0.61839747349152
C            8.59435229900458       -0.36507895031050        0.60431189499018
C            7.28334338721204       -0.78710310032821        0.52313492259670
N            6.08985771703888       -0.10492464344351        0.45933373265748
C            5.98402324729382        1.28099138493724        0.28100325587946
C            5.31024662421422        1.79878822661986       -0.82535257681716
C            5.23365144624567        3.16572657661885       -1.00742481895482
C            5.83530760579905        4.02795929696592       -0.10327400198895
C            6.51214916493678        3.51506423058347        0.99160939832980
C            6.58846578226380        2.14827256236816        1.18804678461799
C            3.07423353147301        0.36682084990479        0.72414914861710
C            1.72336945698537        0.51595577923014        0.66433547727024
C           -1.12820459734841        0.94899922887385        0.02938957709285
C           -2.49603587275471        1.13056626104601       -0.10216651990159
N           -3.02556174388458        2.42251251825783       -0.21538538434666
C           -4.24371717772950        2.72725186150924        0.39923143702777
C           -4.55477432351562        2.18969400563303        1.64952347484587
C           -5.75883438587750        2.49094397537860        2.25467224589149
C           -6.66840208543628        3.32958652059929        1.62963968846410
C           -6.36402514228415        3.86714117841077        0.38861773267412
C           -5.16383703759435        3.56983302953439       -0.22705208755407
C           -2.34249789548555        3.39850436181814       -0.94453817902194
C           -1.63568646684839        3.05601267423287       -2.09940347805079
C           -0.95610166872938        4.02473421821745       -2.81137851336882
C           -0.97262464056571        5.34607054295763       -2.39203082892577
C           -1.67447428510600        5.69239334726666       -1.24773035639582
C           -2.35334498962574        4.73079767692833       -0.52528268034059
C           -3.35614511120227        0.02940692305770       -0.14617080415988
C           -2.47798820372366       -3.44390899272752       -1.91843379139944
C           -2.07561793513268       -4.59386149773971       -2.56851377341841
H           -2.14065441598637       -6.73572039332019       -2.60549768789160
H           -3.54155126576742       -6.89250522671683       -0.57643535062369
H           -4.24546307977817       -4.85497569828377        0.60164193601682
H           -5.92293911745917       -3.39894493336054       -1.03488979396024
H           -8.12623043701348       -3.28562862807826        0.05154970440249
H           -8.38777880327553       -2.11476758300987        2.21104617440348
H           -6.42398497957477       -1.06982147541387        3.28187248278280
H           -4.21384552760288       -1.19642339913431        2.20520506125189
H           -1.06829486448176       -2.43709950758220        0.21064435656567
H            0.88232921049944       -2.59259376963339       -0.43036831631192
H            3.29774899994526       -2.85997181256637       -0.30379261826654
H            7.70802023744594       -4.18432586027521        0.37840282621473
H           10.06274755798901       -3.42724611269751        0.56826864403898
H           10.61631977220913       -1.04784626668952        0.68426168133692
H            8.85186015177405        0.68300697421500        0.64676803149001
H            4.84873952517382        1.11972810250055       -1.52760884131852
H            4.70802942707780        3.55994024205462       -1.86461742639186
H            5.77621728784843        5.09564926939128       -0.25147469052904
H            6.97942849661047        4.18183009583036        1.70153732161871
H            7.09861882187765        1.74413747165852        2.05035036126610
H            3.67718311629008        1.17098712192047        1.11839764768919
H            1.29615014048159        1.44586103743674        1.00963546515516
H           -0.49213665879225        1.81906775082006        0.04424504583503
H           -3.83885419136747        1.54958155206599        2.14279316844220
H           -5.98463600152819        2.07717308621851        3.22599636263149
H           -7.60781689003525        3.56384153048566        2.10688119196174
H           -7.06946733246021        4.51737766688768       -0.10736536793563
H           -4.93306934727272        3.97907527573530       -1.19960516182107
H           -1.63066023453776        2.02929063584489       -2.43407654435612
H           -0.41614613309986        3.74718591706167       -3.70467755231823
H           -0.44167260649948        6.10040268429163       -2.95264344491193
H           -1.68568763548927        6.71819384651331       -0.90979706460487
H           -2.88633564435029        5.00037425674136        0.37458435420008
H           -4.41663908876476        0.16802243044593       -0.28201316685131
H           -2.18947829385645       -2.47505242386686       -2.29826191960187
H           -1.46598658520227       -4.51666218764498       -3.45673983894465

          :  Hamiltonian                  GFN2-xTB          :
         :: gradient norm              0.000030791454 Eh/a0 ::
         :: HOMO-LUMO gap              0.892541104881 eV    ::
         :: SCC energy              -137.492811946967 Eh    ::
         :: -> dispersion             -0.124963731969 Eh    ::
         :: -> Gsolv                  -0.061097615191 Eh    ::
         :: repulsion energy           2.509887792264 Eh    ::

    * Orbital Energies and Occupations

         #    Occupation            Energy/Eh            Energy/eV
      -------------------------------------------------------------
         1        2.0000           -0.6749084             -18.3652
       ...           ...                  ...                  ...
       115        2.0000           -0.4115251             -11.1982
       116        2.0000           -0.4112138             -11.1897
       117        2.0000           -0.4103274             -11.1656
       118        2.0000           -0.4076864             -11.0937
       119        2.0000           -0.4015684             -10.9272
       120        2.0000           -0.3953944             -10.7592
       121        2.0000           -0.3906338             -10.6297
       122        2.0000           -0.3727470             -10.1430
       123        2.0000           -0.3660547              -9.9609
       124        1.9982           -0.3618894              -9.8475
       125        1.5771           -0.3561793              -9.6921
       126        1.4247           -0.3555958              -9.6763
       127        1.0000           -0.2712899              -7.3822 (HOMO)
       128                         -0.2384890              -6.4896 (LUMO)
       129                         -0.2377546              -6.4696
       130                         -0.2372457              -6.4558
       131                         -0.2367318              -6.4418
       132                         -0.2316720              -6.3041
       133                         -0.2312907              -6.2937
       134                         -0.2294581              -6.2439
       135                         -0.2284486              -6.2164
       136                         -0.2280160              -6.2046
       137                         -0.2269214              -6.1748
       138                         -0.2143467              -5.8327
       ...                                ...                  ...
       248                          0.7131515              19.4058
      -------------------------------------------------------------
                  HL-Gap            0.0328009 Eh            0.8926 eV

     #   Z          covCN         q      C6AA      α(0)
     1   6 C        2.919    -0.033    28.827     8.804
     2   6 C        2.919    -0.027    28.683     8.782
     3   6 C        2.922    -0.044    29.099     8.846
     4   6 C        2.924     0.066    26.533     8.447
     5   7 N        2.754    -0.049    22.197     6.997
     6   6 C        2.925     0.065    26.544     8.449
     7   6 C        2.921    -0.043    29.079     8.843
     8   6 C        2.919    -0.027    28.688     8.783
     9   6 C        2.919    -0.033    28.827     8.804
    10   6 C        2.919    -0.027    28.673     8.781
    11   6 C        2.922    -0.043    29.056     8.840
    12   6 C        2.919     0.063    26.592     8.456
    13   6 C        2.925    -0.058    29.450     8.899
    14   6 C        2.966     0.005    27.905     8.665
    15   6 C        2.970    -0.009    28.228     8.715
    16   6 C        2.914    -0.042    29.040     8.837
    17   6 C        2.919    -0.038    28.952     8.824
    18   6 C        2.968    -0.021    28.528     8.761
    19   6 C        3.131     0.134    24.888     8.167
    20   7 N        1.878    -0.345    29.820     8.095
    21   6 C        3.152     0.082    25.898     8.323
    22   6 C        2.909    -0.060    29.491     8.905
    23   6 C        2.918    -0.044    29.082     8.843
    24   6 C        2.924    -0.043    29.080     8.843
    25   6 C        2.906    -0.065    29.606     8.922
    26   6 C        3.061     0.045    26.924     8.509
    27   7 N        2.809    -0.082    22.827     7.096
    28   6 C        2.912     0.067    26.496     8.441
    29   6 C        2.921    -0.041    29.015     8.833
    30   6 C        2.919    -0.029    28.713     8.787
    31   6 C        2.919    -0.036    28.892     8.814
    32   6 C        2.919    -0.030    28.746     8.792
    33   6 C        2.921    -0.045    29.112     8.848
    34   6 C        2.911    -0.045    29.112     8.847
    35   6 C        2.915    -0.041    29.017     8.833
    36   6 C        2.925    -0.057    29.421     8.895
    37   6 C        2.918     0.063    26.589     8.456
    38   7 N        2.754    -0.053    22.255     7.007
    39   6 C        2.925     0.065    26.540     8.448
    40   6 C        2.922    -0.043    29.070     8.842
    41   6 C        2.919    -0.027    28.678     8.782
    42   6 C        2.919    -0.034    28.837     8.806
    43   6 C        2.919    -0.028    28.692     8.784
    44   6 C        2.921    -0.044    29.090     8.845
    45   6 C        2.924     0.066    26.532     8.447
    46   6 C        2.922    -0.043    29.077     8.843
    47   6 C        2.919    -0.027    28.686     8.783
    48   6 C        2.919    -0.034    28.842     8.807
    49   6 C        2.919    -0.028    28.692     8.784
    50   6 C        2.922    -0.045    29.106     8.847
    51   6 C        2.922    -0.077    29.913     8.969
    52   6 C        2.922    -0.043    29.073     8.842
    53   6 C        2.919    -0.027    28.681     8.782
    54   1 H        0.926     0.039     2.467     2.456
    55   1 H        0.926     0.040     2.442     2.444
    56   1 H        0.926     0.040     2.454     2.450
    57   1 H        0.926     0.039     2.458     2.451
    58   1 H        0.926     0.041     2.440     2.443
    59   1 H        0.926     0.040     2.453     2.449
    60   1 H        0.926     0.041     2.433     2.439
    61   1 H        0.926     0.039     2.465     2.455
    62   1 H        0.926     0.038     2.476     2.461
    63   1 H        0.926     0.027     2.633     2.538
    64   1 H        0.926     0.036     2.506     2.475
    65   1 H        0.926     0.028     2.609     2.526
    66   1 H        0.926     0.026     2.641     2.541
    67   1 H        0.926     0.027     2.629     2.535
    68   1 H        0.926     0.022     2.705     2.572
    69   1 H        0.926     0.031     2.567     2.505
    70   1 H        0.926     0.040     2.449     2.447
    71   1 H        0.926     0.040     2.452     2.449
    72   1 H        0.926     0.039     2.461     2.453
    73   1 H        0.926     0.035     2.517     2.481
    74   1 H        0.926     0.014     2.830     2.631
    75   1 H        0.926     0.024     2.675     2.558
    76   1 H        0.926     0.038     2.477     2.461
    77   1 H        0.926     0.038     2.473     2.459
    78   1 H        0.926     0.041     2.439     2.442
    79   1 H        0.926     0.039     2.460     2.453
    80   1 H        0.926     0.040     2.448     2.447
    81   1 H        0.926     0.039     2.468     2.457
    82   1 H        0.926     0.038     2.469     2.457
    83   1 H        0.926     0.039     2.464     2.455
    84   1 H        0.926     0.038     2.474     2.460
    85   1 H        0.926     0.040     2.449     2.447
    86   1 H        0.926     0.039     2.464     2.455
    87   1 H        0.926     0.035     2.518     2.481
    88   1 H        0.926     0.039     2.459     2.452
    89   1 H        0.926     0.040     2.455     2.450

molecular dipole:
                 x           y           z       tot (Debye)
 q only:       -5.244       1.521      -0.340
   full:       -4.905       1.804      -0.312      13.307

 projected vibrational frequencies (cm⁻¹)
eigval :       -0.00    -0.00    -0.00     0.00     0.00     0.00
eigval :        8.87    12.03    13.55    15.64    21.04    28.76
eigval :       34.05    43.16    47.29    54.65    56.42    58.50
eigval :       62.46    67.32    73.51    74.73    79.62    88.06
eigval :       89.97   104.16   109.70   128.21   160.66   174.86
eigval :      200.46   207.67   215.62   226.80   230.28   232.44
eigval :      236.21   247.25   249.09   253.24   272.25   297.36
eigval :      305.14   315.86   323.81   356.93   364.44   373.44
eigval :      376.88   378.51   380.02   383.42   385.35   386.96
eigval :      393.77   398.96   405.80   416.76   432.69   468.56
eigval :      472.00   472.54   483.35   494.66   496.72   523.70
eigval :      534.60   546.94   550.83   571.90   580.13   582.11
eigval :      584.44   586.71   587.65   588.50   592.96   600.96
eigval :      604.91   606.66   621.96   624.38   632.62   655.14
eigval :      659.68   660.07   662.92   664.61   667.51   671.72
eigval :      699.27   705.58   739.66   747.88   754.68   755.13
eigval :      756.53   757.13   765.64   777.10   784.41   792.21
eigval :      805.63   821.52   838.67   843.42   858.84   868.17
eigval :      868.68   870.13   872.07   873.87   874.60   875.50
eigval :      892.46   894.25   894.82   895.30   897.65   898.39
eigval :      902.63   903.84   905.68   910.56   913.13   923.12
eigval :      923.85   926.76   927.57   927.91   928.01   929.32
eigval :      929.42   929.86   930.59   934.82   961.11   972.91
eigval :      975.53   993.90  1001.59  1002.56  1004.02  1053.75
eigval :     1063.18  1077.42  1079.67  1080.07  1081.18  1081.77
eigval :     1087.75  1089.78  1118.52  1118.89  1120.40  1122.52
eigval :     1123.52  1124.10  1137.82  1160.73  1161.72  1176.12
eigval :     1177.69  1177.93  1178.48  1179.02  1183.12  1184.92
eigval :     1188.36  1188.85  1192.68  1195.28  1203.18  1206.43
eigval :     1224.21  1243.36  1256.65  1258.26  1262.06  1268.19
eigval :     1273.77  1274.79  1278.34  1282.16  1284.63  1303.50
eigval :     1304.18  1306.88  1314.10  1316.88  1317.41  1317.79
eigval :     1324.58  1324.75  1338.86  1350.16  1354.43  1366.56
eigval :     1371.99  1391.71  1397.00  1406.93  1430.38  1431.02
eigval :     1432.90  1438.61  1439.46  1440.72  1450.96  1458.53
eigval :     1460.24  1460.75  1463.19  1472.65  1473.69  1481.69
eigval :     1489.88  1524.23  1548.66  1567.10  1567.70  1567.96
eigval :     1572.03  1572.31  1573.94  1581.55  1581.95  1582.59
eigval :     1587.80  1587.93  1592.13  3066.89  3071.28  3072.26
eigval :     3075.07  3075.63  3077.01  3077.52  3077.70  3078.18
eigval :     3078.23  3078.48  3079.20  3080.97  3081.98  3083.74
eigval :     3084.54  3086.22  3087.06  3087.90  3088.28  3088.94
eigval :     3089.05  3090.77  3090.96  3091.52  3092.77  3094.39
eigval :     3096.18  3097.53  3097.97  3098.58  3098.79  3100.25
eigval :     3107.76  3109.41  3111.30

   temp. (K)  partition function   enthalpy   heat capacity  entropy
                                   cal/mol     cal/K/mol   cal/K/mol   J/K/mol
 298.15  VIB  0.766E+21            25608.674    160.155    161.672
         ROT  0.127E+09              888.752      2.981     40.064
         INT  0.974E+29            26497.426    163.136    201.736
         TR   0.172E+29             1481.254      4.968     45.415
         TOT                       27978.6803   168.1040   247.1509  1034.0795

       T/K    H(0)-H(T)+PV         H(T)/Eh          T*S/Eh         G(T)/Eh
   ------------------------------------------------------------------------
    298.15    0.445869E-01    0.733163E+00    0.117429E+00    0.615733E+00
   ------------------------------------------------------------------------

         :::::::::::::::::::::::::::::::::::::::::::::::::::::
         ::                  THERMODYNAMIC                  ::
         :::::::::::::::::::::::::::::::::::::::::::::::::::::
         :: total free energy        -134.367190935410 Eh   ::
         ::.................................................::
         :: total energy             -134.982924159945 Eh   ::
         :: zero point energy           0.688575744528 Eh   ::
         :: G(RRHO) w/o ZPVE           -0.072842519993 Eh   ::
         :: G(RRHO) contrib.            0.615733224536 Eh   ::
         :::::::::::::::::::::::::::::::::::::::::::::::::::::

           -------------------------------------------------
          | TOTAL ENERGY             -134.982924159945 Eh   |
          | TOTAL ENTHALPY           -134.249761550296 Eh   |
          | TOTAL FREE ENERGY        -134.367190935410 Eh   |
          | GRADIENT NORM               0.000031493017 Eh/α |
          | HOMO-LUMO GAP               0.892558650559 eV   |
           -------------------------------------------------

 * finished run on 2025/08/29 at 13:59:27.829
