   * xtb version 6.7.1 (edcfbbe) compiled by 'albert@albert-system' on 2024-07-22

   ID    Z sym.   atoms
    1    6 C      1-58
    2    1 H      59-118

          program call               : xtb data2507/toluene/TBRb/TBRb_toluene_S0_crest.xyz --gfn 2 --gbsa toluene --ohess vtight --parallel 40 --molden --ceasefiles --namespace data2507/toluene/TBRb/TBRb_toluene_S0_finalOpt
      * Solvation model:               GBSA
        Solvent                        toluene
        Solvent mass                       9.2140E+01 g/mol
          :  Hamiltonian                  GFN2-xTB          :
 * total energy  :  -154.9161525 Eh     change       -0.1002263E-08 Eh
 * total energy  :  -154.9162085 Eh     change       -0.5592123E-04 Eh
 * total energy  :  -154.9162587 Eh     change       -0.5022326E-04 Eh
 * total energy  :  -154.9162816 Eh     change       -0.2294074E-04 Eh
 * total energy  :  -154.9163079 Eh     change       -0.2628693E-04 Eh
 * total energy  :  -154.9163256 Eh     change       -0.1771598E-04 Eh
 * total energy  :  -154.9163436 Eh     change       -0.1794826E-04 Eh
 * total energy  :  -154.9163551 Eh     change       -0.1149131E-04 Eh
 * total energy  :  -154.9163614 Eh     change       -0.6380144E-05 Eh
 * total energy  :  -154.9163678 Eh     change       -0.6324135E-05 Eh
 * total energy  :  -154.9164010 Eh     change       -0.2905473E-06 Eh
 * total energy  :  -154.9164012 Eh     change       -0.2610001E-06 Eh
 * total energy  :  -154.9164014 Eh     change       -0.1990086E-06 Eh
 * total energy  :  -154.9164016 Eh     change       -0.1819076E-06 Eh
 * total energy  :  -154.9164018 Eh     change       -0.2114319E-06 Eh
 * total energy  :  -154.9164021 Eh     change       -0.2452633E-06 Eh
 * total energy  :  -154.9164023 Eh     change       -0.2340798E-06 Eh
 * total energy  :  -154.9164024 Eh     change       -0.1539124E-06 Eh
 * total energy  :  -154.9164024 Eh     change       -0.2025416E-08 Eh
   *** GEOMETRY OPTIMIZATION CONVERGED AFTER 44 ITERATIONS ***

 final structure:
================
118
 xtb: 6.7.1 (edcfbbe)
C           -7.45673633280558        2.84582451355385       -1.61024406723190
C           -7.04310903585677        1.36783153704263       -1.54450060968832
C           -7.32741113929332        0.73139340245900       -2.90837346704645
C           -7.88871478966771        0.63778358599733       -0.49112696564326
C           -5.57666097579556        1.28019315953143       -1.15013707673077
C           -4.60417813182105        0.70998855010154       -1.96209575824665
C           -3.27984807578109        0.65445812428324       -1.56703608486664
C           -2.87564254433333        1.16956998125458       -0.34194211508284
C           -1.44032267462122        1.17737675546422        0.00493039413665
C           -0.77768918844526        2.40599536498225        0.03942011098042
C           -1.44361694371766        3.64283896729457       -0.18342151396620
C           -0.81020514699782        4.83105803314796       -0.01789173040963
C            0.54705023319943        4.90004259462653        0.39825198273247
C            1.17435048649010        6.26504464061584        0.62998645699359
C            0.37512041146056        7.00568801820405        1.71270663158809
C            1.13628575743916        7.06375490293911       -0.68168333852897
C            2.63204710010082        6.17322453084107        1.09165194883422
C            1.22323273757670        3.72729476709607        0.55633707365840
C            0.62147777682155        2.45682590198686        0.33229798903429
C            1.36088193657873        1.27093686767085        0.37002670370764
C            2.79432342175451        1.35307081778153        0.72233487173389
C            3.72129045737353        1.98953641225978       -0.09779119530535
C            5.03575147274884        2.12969362781443        0.30556700254583
C            5.44136116930553        1.65056042293818        1.53992209474461
C            4.52488394694539        1.02356200053748        2.36650939065811
C            3.21111979479552        0.87667633977411        1.96186280228056
C            0.71981226123815        0.02297527510570        0.19208951810500
C            1.44052950723889       -1.18168475222180        0.01764935003644
C            2.87622887862207       -1.17523557195976       -0.32757175616020
C            3.84180015331051       -1.75395793992823        0.48945201114671
C            5.16315996988445       -1.79868242236457        0.09547898768700
C            5.57817041477741       -1.28784924728131       -1.13245538636568
C            7.04512838027653       -1.37609232207407       -1.52479867323783
C            7.45944445592059       -2.85415726247288       -1.58433935760159
C            7.33056412512359       -0.74463149139620       -2.89075095048606
C            7.88933520374778       -0.64156818443726       -0.47340010181745
C            4.60575692748566       -0.72432844379888       -1.94916336015429
C            3.28099105408881       -0.66787704544635       -1.55575469702916
C            0.77820988169010       -2.41017395973867        0.06057750005221
C            1.44510951747406       -3.64866726132848       -0.14982047549845
C            0.81148849488650       -4.83561310359793        0.02385609285620
C           -0.54713256860993       -4.90144325393251        0.43602975824728
C           -1.17513039171993       -6.26461623116101        0.67651749062243
C           -2.63424189520651       -6.16920931717406        1.13296190191621
C           -0.37927334674231       -6.99694261635667        1.76734049432929
C           -1.13310199382156       -7.07344761021427       -0.62881893409324
C           -1.22405156226187       -3.72756655160583        0.58219177986296
C           -0.62180217549334       -2.45883089545874        0.34978782117733
C           -1.36167642399163       -1.27288649670065        0.37562896348013
C           -2.79654343932965       -1.35326717859636        0.72254256154666
C           -3.71954943398340       -1.99594230293912       -0.09721879667685
C           -5.03571894226899       -2.13395641156752        0.30125815592833
C           -5.44700158004462       -1.64645116052874        1.53044960465684
C           -4.53449159338457       -1.01327729453473        2.35671211408628
C           -3.21902411224575       -0.86850187999723        1.95685914833144
C           -0.72038094950992       -0.02611016963190        0.19031226932104
C           -3.84131400272477        1.75477769863377        0.47035568614736
C           -5.16225258421803        1.79839198985982        0.07491738283088
H           -6.85285867196028        3.37369224335291       -2.34615210755820
H           -7.32702322770471        3.33589923552792       -0.64905223853761
H           -8.50289280794857        2.92985569958105       -1.89776821996389
H           -8.38903051324354        0.81516845465944       -3.13329980704631
H           -7.06544947772315       -0.32422323703658       -2.90892241102712
H           -6.77661036442493        1.23592214203551       -3.69914527908087
H           -8.94023735949469        0.66347845536104       -0.77021201296803
H           -7.78459989375172        1.09685434744144        0.48802450038303
H           -7.57322576412256       -0.40029161551407       -0.41477877862100
H           -4.86305060358423        0.29902083227385       -2.92455123824391
H           -2.54281509307172        0.21007047195240       -2.22208813291608
H           -2.48017441855064        3.62469830604401       -0.48548836786399
H           -1.35862229216771        5.74360253564192       -0.19700940811421
H           -0.65943003623394        7.15192062889965        1.41409852534361
H            0.38522592582249        6.43777076241035        2.64120980247693
H            0.81642267137449        7.98240725874515        1.90056829821469
H            0.11674846884424        7.21730614952123       -1.02497980940557
H            1.68195886321634        6.53378310306896       -1.46022148292500
H            1.59776602649274        8.03875477959271       -0.53874217060682
H            2.71386165520985        5.61931367299705        2.02435177798485
H            3.25196619454347        5.69125386035233        0.33915089958292
H            3.02299350933199        7.17509660254794        1.25857300943967
H            2.25784568310867        3.72925715735291        0.85400561242906
H            3.40482969735150        2.36782369288715       -1.05961250617951
H            5.74480369638596        2.62534844622914       -0.34251077382249
H            6.46683437937047        1.76841383941630        1.85846664683354
H            4.83394341514806        0.65151407515534        3.33303156890394
H            2.49250482229767        0.39472226317564        2.61037870814951
H            3.55155959010440       -2.16205053542011        1.44766208396440
H            5.88099164064091       -2.24981123008178        0.76438362101737
H            7.32892865162008       -3.34039925743280       -0.62129435619979
H            8.50590591136958       -2.93894296186224       -1.87052863445302
H            6.85647834869013       -3.38522277837695       -2.31870033346591
H            6.78177446316823       -1.25306775082249       -3.68040231640463
H            7.06699067869481        0.31057501850189       -2.89582698638175
H            8.39264932740727       -0.82768954687097       -3.11373558487752
H            7.78619689879932       -1.09813092521812        0.50701907498142
H            7.57191463982972        0.39612339984583       -0.39988672278147
H            8.94090594798967       -0.66606667439597       -0.75241001337819
H            4.86505604755133       -0.31933371636742       -2.91403476905002
H            2.54402436704672       -0.22874049752853       -2.21442185161943
H            2.48258354023285       -3.63277098024012       -0.44884476254665
H            1.36071793067712       -5.74950583716561       -0.14564669009872
H           -2.71895931056265       -5.60785982718164        2.06094103268112
H           -3.25184018112831       -5.69331596121434        0.37470035335055
H           -3.02566121180723       -7.16974043895715        1.30669068310754
H           -0.39170513789264       -6.42166687656193        2.69127681657497
H           -0.82155160234091       -7.97194235514459        1.96172300557334
H            0.65603909855856       -7.14604018075118        1.47281218381977
H           -0.11258597847911       -7.22867401207309       -0.96844567598202
H           -1.67738487474436       -6.55009314379940       -1.41278503700741
H           -1.59403588748395       -8.04774625779182       -0.47945680649410
H           -2.25957420791807       -3.72732847025911        0.87668105358712
H           -3.39861425296605       -2.38082960895806       -1.05493190996531
H           -5.74166996242794       -2.63443727616730       -0.34649682752106
H           -6.47379299078036       -1.76265415477568        1.84532358616919
H           -4.84800510431001       -0.63476508224302        3.31927818646464
H           -2.50351876307606       -0.38166428071576        2.60515724466412
H           -3.55141291476407        2.16899276285589        1.42603289763452
H           -5.88019902616823        2.25463173144674        0.74022824744399

          :  Hamiltonian                  GFN2-xTB          :
         :: gradient norm              0.000028698402 Eh/a0 ::
         :: HOMO-LUMO gap              1.448688070852 eV    ::
         :: SCC energy              -157.730162351157 Eh    ::
         :: -> dispersion             -0.172664637620 Eh    ::
         :: -> Gsolv                  -0.052096892698 Eh    ::
         :: repulsion energy           2.813759906499 Eh    ::

    * Orbital Energies and Occupations

         #    Occupation            Energy/Eh            Energy/eV
      -------------------------------------------------------------
         1        2.0000           -0.6495965             -17.6764
       ...           ...                  ...                  ...
       134        2.0000           -0.4056797             -11.0391
       135        2.0000           -0.4051107             -11.0236
       136        2.0000           -0.3997954             -10.8790
       137        2.0000           -0.3985290             -10.8445
       138        2.0000           -0.3984830             -10.8433
       139        2.0000           -0.3931100             -10.6971
       140        2.0000           -0.3911206             -10.6429
       141        2.0000           -0.3877432             -10.5510
       142        2.0000           -0.3854720             -10.4892
       143        2.0000           -0.3818884             -10.3917
       144        2.0000           -0.3736492             -10.1675
       145        2.0000           -0.3728242             -10.1451
       146        2.0000           -0.3379018              -9.1948 (HOMO)
       147                         -0.2846635              -7.7461 (LUMO)
       148                         -0.2373723              -6.4592
       149                         -0.2281220              -6.2075
       150                         -0.2262903              -6.1577
       151                         -0.2260624              -6.1515
       152                         -0.2231620              -6.0725
       153                         -0.2227431              -6.0611
       154                         -0.2105404              -5.7291
       155                         -0.2103689              -5.7244
       156                         -0.2087645              -5.6808
       157                         -0.2085644              -5.6753
       ...                                ...                  ...
       292                          0.7213731              19.6296
      -------------------------------------------------------------
                  HL-Gap            0.0532383 Eh            1.4487 eV

     #   Z          covCN         q      C6AA      α(0)
     1   6 C        3.761    -0.104    22.533     6.767
     2   6 C        3.902     0.025    20.101     6.373
     3   6 C        3.761    -0.106    22.572     6.773
     4   6 C        3.762    -0.104    22.526     6.766
     5   6 C        2.973     0.006    27.889     8.662
     6   6 C        2.924    -0.041    29.022     8.835
     7   6 C        2.926    -0.035    28.871     8.812
     8   6 C        2.977     0.010    27.781     8.646
     9   6 C        2.975    -0.007    28.193     8.710
    10   6 C        2.985     0.000    28.011     8.682
    11   6 C        2.914    -0.040    28.990     8.829
    12   6 C        2.921    -0.036    28.901     8.816
    13   6 C        2.968     0.006    27.879     8.661
    14   6 C        3.902     0.025    20.102     6.373
    15   6 C        3.761    -0.104    22.527     6.766
    16   6 C        3.761    -0.103    22.523     6.765
    17   6 C        3.761    -0.106    22.570     6.772
    18   6 C        2.923    -0.050    29.239     8.867
    19   6 C        2.983     0.002    27.987     8.678
    20   6 C        2.976    -0.009    28.231     8.715
    21   6 C        2.977     0.017    27.626     8.622
    22   6 C        2.924    -0.030    28.760     8.795
    23   6 C        2.919    -0.030    28.750     8.793
    24   6 C        2.920    -0.033    28.810     8.802
    25   6 C        2.919    -0.030    28.760     8.794
    26   6 C        2.927    -0.031    28.782     8.798
    27   6 C        2.979    -0.003    28.087     8.693
    28   6 C        2.975    -0.007    28.192     8.710
    29   6 C        2.977     0.010    27.781     8.646
    30   6 C        2.923    -0.034    28.858     8.809
    31   6 C        2.927    -0.037    28.925     8.820
    32   6 C        2.973     0.006    27.889     8.662
    33   6 C        3.902     0.025    20.101     6.373
    34   6 C        3.761    -0.104    22.532     6.767
    35   6 C        3.761    -0.106    22.572     6.773
    36   6 C        3.762    -0.104    22.527     6.766
    37   6 C        2.924    -0.041    29.022     8.835
    38   6 C        2.926    -0.035    28.871     8.812
    39   6 C        2.985     0.000    28.011     8.682
    40   6 C        2.914    -0.040    28.990     8.829
    41   6 C        2.921    -0.036    28.901     8.816
    42   6 C        2.968     0.006    27.879     8.661
    43   6 C        3.902     0.025    20.102     6.373
    44   6 C        3.761    -0.106    22.570     6.772
    45   6 C        3.761    -0.104    22.527     6.766
    46   6 C        3.761    -0.103    22.523     6.765
    47   6 C        2.923    -0.050    29.239     8.867
    48   6 C        2.983     0.002    27.987     8.678
    49   6 C        2.976    -0.009    28.231     8.715
    50   6 C        2.977     0.017    27.626     8.622
    51   6 C        2.924    -0.030    28.760     8.795
    52   6 C        2.919    -0.030    28.750     8.793
    53   6 C        2.920    -0.033    28.810     8.802
    54   6 C        2.919    -0.030    28.760     8.794
    55   6 C        2.927    -0.031    28.782     8.798
    56   6 C        2.979    -0.003    28.087     8.693
    57   6 C        2.923    -0.034    28.858     8.809
    58   6 C        2.927    -0.037    28.925     8.820
    59   1 H        0.925     0.032     2.560     2.502
    60   1 H        0.925     0.036     2.505     2.475
    61   1 H        0.925     0.039     2.466     2.456
    62   1 H        0.925     0.037     2.485     2.465
    63   1 H        0.925     0.035     2.512     2.479
    64   1 H        0.925     0.035     2.515     2.480
    65   1 H        0.925     0.038     2.471     2.458
    66   1 H        0.925     0.035     2.513     2.479
    67   1 H        0.925     0.034     2.534     2.489
    68   1 H        0.926     0.036     2.502     2.474
    69   1 H        0.925     0.021     2.711     2.575
    70   1 H        0.926     0.027     2.623     2.533
    71   1 H        0.926     0.028     2.611     2.527
    72   1 H        0.925     0.037     2.492     2.469
    73   1 H        0.925     0.032     2.562     2.503
    74   1 H        0.925     0.038     2.470     2.458
    75   1 H        0.925     0.037     2.495     2.470
    76   1 H        0.925     0.032     2.558     2.501
    77   1 H        0.925     0.039     2.467     2.456
    78   1 H        0.925     0.034     2.533     2.489
    79   1 H        0.925     0.035     2.519     2.482
    80   1 H        0.925     0.038     2.476     2.461
    81   1 H        0.926     0.037     2.493     2.469
    82   1 H        0.926     0.028     2.614     2.529
    83   1 H        0.926     0.027     2.628     2.535
    84   1 H        0.926     0.030     2.587     2.515
    85   1 H        0.926     0.029     2.599     2.521
    86   1 H        0.925     0.024     2.672     2.556
    87   1 H        0.926     0.024     2.670     2.555
    88   1 H        0.926     0.028     2.611     2.527
    89   1 H        0.925     0.036     2.505     2.475
    90   1 H        0.925     0.039     2.466     2.456
    91   1 H        0.925     0.032     2.560     2.502
    92   1 H        0.925     0.035     2.515     2.480
    93   1 H        0.925     0.035     2.512     2.479
    94   1 H        0.925     0.037     2.485     2.465
    95   1 H        0.925     0.035     2.513     2.479
    96   1 H        0.925     0.034     2.534     2.489
    97   1 H        0.925     0.038     2.471     2.458
    98   1 H        0.926     0.036     2.502     2.474
    99   1 H        0.925     0.021     2.711     2.575
   100   1 H        0.926     0.027     2.622     2.532
   101   1 H        0.926     0.028     2.611     2.527
   102   1 H        0.925     0.034     2.533     2.489
   103   1 H        0.925     0.035     2.519     2.482
   104   1 H        0.925     0.038     2.476     2.461
   105   1 H        0.925     0.032     2.562     2.503
   106   1 H        0.925     0.038     2.471     2.458
   107   1 H        0.925     0.037     2.492     2.469
   108   1 H        0.925     0.037     2.495     2.470
   109   1 H        0.925     0.032     2.558     2.501
   110   1 H        0.925     0.039     2.467     2.456
   111   1 H        0.926     0.037     2.494     2.469
   112   1 H        0.926     0.028     2.615     2.529
   113   1 H        0.926     0.027     2.628     2.535
   114   1 H        0.926     0.030     2.587     2.515
   115   1 H        0.926     0.029     2.599     2.521
   116   1 H        0.925     0.024     2.672     2.556
   117   1 H        0.926     0.024     2.670     2.555
   118   1 H        0.926     0.028     2.611     2.527

molecular dipole:
                 x           y           z       tot (Debye)
 q only:        0.000      -0.000      -0.128
   full:        0.000      -0.000      -0.091       0.231

 projected vibrational frequencies (cm⁻¹)
eigval :       -0.00    -0.00    -0.00    -0.00     0.00     0.00
eigval :       10.73    15.22    17.71    23.50    27.90    28.93
eigval :       32.38    33.74    36.69    40.51    42.07    54.07
eigval :       54.60    66.27    67.06    74.93    81.20    87.39
eigval :       97.16   101.49   102.96   109.64   112.37   119.95
eigval :      126.96   153.83   158.27   160.13   161.34   175.05
eigval :      176.32   184.43   188.55   190.45   197.60   204.40
eigval :      209.09   216.80   219.83   222.07   224.43   224.96
eigval :      237.82   245.70   252.16   254.07   260.88   261.15
eigval :      286.61   288.13   311.74   313.31   314.99   317.71
eigval :      318.40   321.78   332.29   337.50   346.32   348.38
eigval :      351.32   354.73   366.87   369.62   373.30   373.96
eigval :      380.31   381.77   394.27   398.40   400.87   405.35
eigval :      407.14   412.66   432.96   439.94   444.55   444.80
eigval :      455.31   458.38   469.55   472.78   481.61   487.89
eigval :      517.34   521.67   531.02   533.83   554.84   556.99
eigval :      569.52   574.42   585.87   586.98   591.22   599.11
eigval :      602.04   611.06   612.67   629.21   633.84   640.24
eigval :      664.77   664.90   672.16   674.62   678.93   683.51
eigval :      698.37   700.90   720.46   720.93   732.68   738.64
eigval :      760.19   768.15   775.01   782.74   813.28   817.72
eigval :      826.85   827.39   844.58   873.60   874.02   877.81
eigval :      878.03   879.13   879.60   879.79   885.91   886.70
eigval :      900.74   903.99   904.36   915.95   916.02   920.17
eigval :      926.70   927.29   929.14   929.61   933.53   933.96
eigval :      934.18   934.94   935.52   942.91   958.16   958.30
eigval :      958.65   959.32   959.57   961.81   961.92   962.35
eigval :      962.78   963.45   964.14   964.32   965.18   991.52
eigval :      999.04  1013.56  1016.86  1033.99  1034.09  1034.30
eigval :     1034.72  1034.98  1035.61  1035.71  1035.76  1048.15
eigval :     1083.43  1083.89  1118.54  1119.30  1132.12  1133.11
eigval :     1143.50  1143.66  1151.45  1152.07  1153.54  1157.44
eigval :     1178.65  1182.14  1182.27  1196.09  1197.04  1208.54
eigval :     1211.91  1216.96  1224.26  1224.49  1224.72  1224.86
eigval :     1226.27  1226.31  1230.31  1232.73  1232.77  1237.93
eigval :     1249.15  1260.31  1264.17  1278.19  1281.18  1281.46
eigval :     1282.12  1282.40  1283.72  1289.74  1293.53  1309.86
eigval :     1310.37  1316.10  1316.49  1322.31  1326.36  1342.20
eigval :     1355.31  1377.23  1378.84  1393.93  1394.23  1401.81
eigval :     1402.34  1402.66  1402.78  1402.95  1403.43  1405.61
eigval :     1405.78  1421.21  1426.53  1426.81  1426.82  1427.10
eigval :     1428.90  1429.54  1436.00  1448.93  1452.43  1474.63
eigval :     1483.19  1487.63  1487.87  1488.12  1488.19  1488.67
eigval :     1491.55  1491.72  1492.37  1492.54  1493.10  1493.64
eigval :     1497.35  1498.25  1498.56  1500.15  1500.30  1501.74
eigval :     1502.43  1506.49  1507.61  1510.40  1510.40  1511.16
eigval :     1511.20  1515.88  1517.97  1518.01  1518.15  1522.06
eigval :     1523.72  1523.84  1564.73  1564.98  1580.05  1580.20
eigval :     1599.08  1599.32  1605.67  1605.77  1619.57  1620.16
eigval :     3017.97  3018.02  3019.61  3019.62  3019.86  3019.91
eigval :     3019.92  3020.17  3022.80  3022.83  3023.16  3023.29
eigval :     3024.39  3024.95  3025.99  3026.04  3027.17  3027.30
eigval :     3029.51  3029.56  3030.31  3030.40  3033.86  3033.90
eigval :     3036.21  3036.23  3036.30  3036.34  3043.12  3043.24
eigval :     3044.04  3044.28  3046.33  3046.42  3047.43  3047.52
eigval :     3061.44  3062.32  3062.58  3062.84  3063.53  3063.69
eigval :     3066.13  3066.18  3071.24  3071.69  3075.43  3075.62
eigval :     3076.09  3076.23  3081.20  3081.21  3085.94  3085.96
eigval :     3089.80  3090.36  3106.64  3106.76  3128.32  3128.52

   temp. (K)  partition function   enthalpy   heat capacity  entropy
                                   cal/mol     cal/K/mol   cal/K/mol   J/K/mol
 298.15  VIB  0.242E+26            33528.435    205.932    207.875
         ROT  0.635E+08              888.752      2.981     38.686
         INT  0.153E+34            34417.187    208.913    246.561
         TR   0.202E+29             1481.254      4.968     45.731
         TOT                       35898.4413   213.8811   292.2924  1222.9514

       T/K    H(0)-H(T)+PV         H(T)/Eh          T*S/Eh         G(T)/Eh
   ------------------------------------------------------------------------
    298.15    0.572078E-01    0.104686E+01    0.138878E+00    0.907985E+00
   ------------------------------------------------------------------------

         :::::::::::::::::::::::::::::::::::::::::::::::::::::
         ::                  THERMODYNAMIC                  ::
         :::::::::::::::::::::::::::::::::::::::::::::::::::::
         :: total free energy        -154.008417867671 Eh   ::
         ::.................................................::
         :: total energy             -154.916402441902 Eh   ::
         :: zero point energy           0.989654315900 Eh   ::
         :: G(RRHO) w/o ZPVE           -0.081669741670 Eh   ::
         :: G(RRHO) contrib.            0.907984574230 Eh   ::
         :::::::::::::::::::::::::::::::::::::::::::::::::::::

           -------------------------------------------------
          | TOTAL ENERGY             -154.916402441902 Eh   |
          | TOTAL ENTHALPY           -153.869540318373 Eh   |
          | TOTAL FREE ENERGY        -154.008417867671 Eh   |
          | GRADIENT NORM               0.000028699189 Eh/α |
          | HOMO-LUMO GAP               1.448688112729 eV   |
           -------------------------------------------------

 * finished run on 2025/07/16 at 11:09:14.521
