   * xtb version 6.7.1 (edcfbbe) compiled by 'albert@albert-system' on 2024-07-22

   ID    Z sym.   atoms
    1    6 C      1-58
    2    1 H      59-118

          program call               : xtb data2507/toluene/TBRb/TBRb_toluene_T1_crest.xyz --gfn 2 --uhf 2 --gbsa toluene --ohess vtight --parallel 40 --molden --ceasefiles --namespace data2507/toluene/TBRb/TBRb_toluene_T1_finalOpt
      * Solvation model:               GBSA
        Solvent                        toluene
        Solvent mass                       9.2140E+01 g/mol
          :  Hamiltonian                  GFN2-xTB          :
 * total energy  :  -154.8695631 Eh     change       -0.2643787E-08 Eh
 * total energy  :  -154.8696274 Eh     change       -0.6428174E-04 Eh
 * total energy  :  -154.8696928 Eh     change       -0.6541449E-04 Eh
 * total energy  :  -154.8697170 Eh     change       -0.2417940E-04 Eh
 * total energy  :  -154.8697720 Eh     change       -0.5506267E-04 Eh
 * total energy  :  -154.8697964 Eh     change       -0.2435251E-04 Eh
 * total energy  :  -154.8698320 Eh     change       -0.3559207E-04 Eh
 * total energy  :  -154.8698487 Eh     change       -0.1675044E-04 Eh
 * total energy  :  -154.8698583 Eh     change       -0.9616182E-05 Eh
 * total energy  :  -154.8698694 Eh     change       -0.1102745E-04 Eh
 * total energy  :  -154.8698959 Eh     change       -0.3726970E-05 Eh
 * total energy  :  -154.8698995 Eh     change       -0.3628379E-05 Eh
 * total energy  :  -154.8699020 Eh     change       -0.2488125E-05 Eh
 * total energy  :  -154.8699036 Eh     change       -0.1614357E-05 Eh
 * total energy  :  -154.8699047 Eh     change       -0.1137094E-05 Eh
 * total energy  :  -154.8699055 Eh     change       -0.8234957E-06 Eh
 * total energy  :  -154.8699062 Eh     change       -0.7000322E-06 Eh
 * total energy  :  -154.8699068 Eh     change       -0.5646289E-06 Eh
 * total energy  :  -154.8699068 Eh     change       -0.8383608E-08 Eh
   *** GEOMETRY OPTIMIZATION CONVERGED AFTER 22 ITERATIONS ***

 final structure:
================
118
 xtb: 6.7.1 (edcfbbe)
C           -7.15203723841266        3.11345117935087       -2.14634512265478
C           -6.85266514351846        1.64145317829977       -1.82479222954576
C           -7.14963606305621        0.80854525070026       -3.07538047509120
C           -7.77633948017672        1.15699437182611       -0.69764784655760
C           -5.40775726279515        1.51806497168378       -1.36775755857150
C           -4.46019776087502        0.75214412782361       -2.03696599836784
C           -3.15715627701802        0.66496185718957       -1.58602705968690
C           -2.74048452862722        1.34858177217095       -0.44706667777249
C           -1.33718967239350        1.27871641450529       -0.02604864184874
C           -0.57103044547175        2.47866965261153        0.03934706670714
C           -1.11369726915152        3.74254255460510       -0.22186628784710
C           -0.39660882588839        4.90269846527515        0.00106546295623
C            0.89869718678592        4.85972407163163        0.51313964729743
C            1.70140282614775        6.10478829291554        0.85398174263403
C            2.98293129039496        6.12848911767314        0.00716854574636
C            2.06809176373174        6.06603791838464        2.34539366153176
C            0.92604620846729        7.39795228234454        0.58439471491979
C            1.47381974647168        3.60736271143861        0.69856486362418
C            0.80096666130822        2.41461730201810        0.41520204411110
C            1.45118572970745        1.14316197594576        0.45867505344064
C            2.85814284963610        1.07773373274853        0.87694633357358
C            3.86490425289174        1.76372552629806        0.19788111999518
C            5.16926659253671        1.73062181699516        0.65177532059203
C            5.49335194007103        1.02382633103696        1.79798120674612
C            4.50199049053572        0.33971464964010        2.48186970939210
C            3.19842005520113        0.36411382575589        2.02563853386600
C            0.72201667853901       -0.03496892113279        0.21163345582410
C            1.33717260757717       -1.28025809379164       -0.03099558144964
C            2.74004774795918       -1.34650391129024       -0.45394383920404
C            3.68683867022670       -2.12462125888104        0.21049669643574
C            4.98803282459284       -2.19215237638519       -0.24050882848594
C            5.40680199931174       -1.50516371366457       -1.37817832096223
C            6.85155948466692       -1.62265057092650       -1.83725237987172
C            7.15352323031037       -3.09199679448161       -2.16834394075488
C            7.14565025003893       -0.78120403734168       -3.08279896205696
C            7.77546782940546       -1.14345760216680       -0.70806179199654
C            4.45665406108264       -0.73856192416744       -2.04293453233193
C            3.15390162109259       -0.65671276904280       -1.59025395854939
C            0.57175323942718       -2.48075662711122        0.03090859343713
C            1.11516628628887       -3.74363927803513       -0.23346376969816
C            0.39877264057828       -4.90473217509294       -0.01317873850918
C           -0.89654551155224       -4.86366575178824        0.49903688319911
C           -1.69838356136132       -6.10995779056937        0.83745197967873
C           -0.92162467699421       -7.40204855455685        0.56673715017922
C           -2.97918502400287       -6.13356818840541       -0.01045676839817
C           -2.06636785433578       -6.07373621418474        2.32861481815424
C           -1.47256553036225       -3.61207731840396        0.68697477868692
C           -0.80036922790648       -2.41824932679573        0.40659488556609
C           -1.45139326031064       -1.14723142345864        0.45322909162531
C           -2.85931149279112       -1.08480670867005        0.86867865263406
C           -3.86341009953792       -1.76966314763351        0.18451665067093
C           -5.16900647184755       -1.73988993977553        0.63505550185363
C           -5.49697082482183       -1.03766762598180        1.78297066629449
C           -4.50824956392960       -0.35490697856679        2.47201006139654
C           -3.20344956943764       -0.37593693632814        2.01913093938445
C           -0.72251717532693        0.03220162432138        0.21147357787639
C           -3.68477860549625        2.12572406515342        0.22210378300751
C           -4.98625113921723        2.19854295508533       -0.22718782860862
H           -6.49179478893236        3.46793643575623       -2.93584577442429
H           -7.00906348647945        3.74561433519712       -1.27404934656866
H           -8.18139498997501        3.22217213462681       -2.48206078739534
H           -8.19593796129486        0.92775137527751       -3.35039117534843
H           -6.96754062822998       -0.24811518803539       -2.89280658420142
H           -6.54263468140707        1.13503995352398       -3.91691559177725
H           -8.81514187456134        1.19998075285859       -1.01900177589066
H           -7.66992025482166        1.76986920772032        0.19312401849755
H           -7.53503362982033        0.12962674805420       -0.43384287041991
H           -4.72451197911540        0.20752894683012       -2.92907804276377
H           -2.44090065487210        0.06549494642257       -2.13135523754493
H           -2.12200253498768        3.81620662732335       -0.60041255918047
H           -0.87421125402611        5.84423504593189       -0.21553808556464
H            3.61698340329900        5.27390883831587        0.22658073668725
H            2.73453136488684        6.10895337813781       -1.05248684355130
H            3.54970098544344        7.03440216282912        0.21244916791070
H            2.66586276714517        5.18995513477226        2.58343283060956
H            1.16608357415854        6.03869924823699        2.95403704097084
H            2.63936577041285        6.95239844459523        2.61379724256463
H            0.67530485639559        7.49144990073739       -0.47001063046958
H            0.01220412293377        7.43669346312960        1.17316744137875
H            1.54021410316620        8.25297704964541        0.86034362115086
H            2.48444846953125        3.54082301901470        1.06847322086427
H            3.61984361436043        2.30541004643689       -0.70460732290681
H            5.93741123455005        2.26484780828488        0.11008561239179
H            6.51234848214422        1.00526635020563        2.15610981140692
H            4.74619176945855       -0.21262150789333        3.37822893221093
H            2.42419271874098       -0.16358208992625        2.56531639079441
H            3.40196015663524       -2.65666133586715        1.10734481277241
H            5.68978810101403       -2.79738593606714        0.31418969851747
H            7.01216106910849       -3.72990651359575       -1.29996904260958
H            8.18290082475012       -3.19666872309152       -2.50528225791748
H            6.49351097956641       -3.44267854318087       -2.95973204033170
H            6.53894617856687       -1.10389337589781       -3.92600900658501
H            6.96105169710784        0.27383302763171       -2.89345963374464
H            8.19206472529141       -0.89608295098396       -3.35922908106593
H            7.67175844296083       -1.76248915325712        0.17875418537133
H            7.53202539155644       -0.11846184268580       -0.43711849944319
H            8.81394779671003       -1.18177515922647       -1.03104158037002
H            4.71868156495346       -0.18909345285006       -2.93274409245485
H            2.43565062406215       -0.05641179399502       -2.13202108385522
H            2.12352928685840       -3.81571280862886       -0.61216981677266
H            0.87691254822028       -5.84550935121938       -0.23189211555223
H           -0.67017260024692       -7.49408430602792       -0.48762543384971
H           -0.00809082566080       -7.44059733839161        1.15600724643187
H           -1.53513535924014       -8.25799325907275        0.84130484336348
H           -2.72991882457585       -6.11245884153743       -1.06987763644416
H           -3.54542261702443       -7.04018582385558        0.19317530145054
H           -3.61405101530169       -5.27974015931006        0.20954661157272
H           -2.66512226544614       -5.19855876976203        2.56748806718694
H           -1.16490605024831       -6.04653455157404        2.93807275187088
H           -2.63709212396437       -6.96100185513977        2.59518965542659
H           -2.48335230670446       -3.54705130864789        1.05674113772994
H           -3.61520680681983       -2.30796071668810       -0.71915018900079
H           -5.93505374796584       -2.27301250010013        0.08932825098541
H           -6.51693502972568       -1.02168233600008        2.13847310874788
H           -4.75549509497662        0.19371785260851        3.36981115934641
H           -2.43129908871112        0.15067732823766        2.56282303516800
H           -3.39756364604062        2.65307565348165        1.12097770141553
H           -5.68597292707611        2.80289244848327        0.33104011691341

          :  Hamiltonian                  GFN2-xTB          :
         :: gradient norm              0.000063167667 Eh/a0 ::
         :: HOMO-LUMO gap              1.360306086379 eV    ::
         :: SCC energy              -157.671042834678 Eh    ::
         :: -> dispersion             -0.172179729288 Eh    ::
         :: -> Gsolv                  -0.052166447795 Eh    ::
         :: repulsion energy           2.801136018554 Eh    ::

    * Orbital Energies and Occupations

         #    Occupation            Energy/Eh            Energy/eV
      -------------------------------------------------------------
         1        2.0000           -0.6497642             -17.6810
       ...           ...                  ...                  ...
       135        2.0000           -0.4047451             -11.0137
       136        2.0000           -0.3996807             -10.8759
       137        2.0000           -0.3983577             -10.8399
       138        2.0000           -0.3976894             -10.8217
       139        2.0000           -0.3941029             -10.7241
       140        2.0000           -0.3913456             -10.6491
       141        2.0000           -0.3879866             -10.5577
       142        2.0000           -0.3867056             -10.5228
       143        2.0000           -0.3822281             -10.4010
       144        2.0000           -0.3744518             -10.1894
       145        2.0000           -0.3700224             -10.0688
       146        1.0000           -0.3318644              -9.0305
       147        1.0000           -0.2923123              -7.9542 (HOMO)
       148                         -0.2423220              -6.5939 (LUMO)
       149                         -0.2269408              -6.1754
       150                         -0.2254274              -6.1342
       151                         -0.2252733              -6.1300
       152                         -0.2234618              -6.0807
       153                         -0.2220671              -6.0428
       154                         -0.2117938              -5.7632
       155                         -0.2110095              -5.7419
       156                         -0.2103782              -5.7247
       157                         -0.2097992              -5.7089
       158                         -0.1910613              -5.1990
       ...                                ...                  ...
       292                          0.7223567              19.6563
      -------------------------------------------------------------
                  HL-Gap            0.0499903 Eh            1.3603 eV

     #   Z          covCN         q      C6AA      α(0)
     1   6 C        3.761    -0.104    22.534     6.767
     2   6 C        3.902     0.025    20.100     6.373
     3   6 C        3.761    -0.106    22.573     6.773
     4   6 C        3.762    -0.103    22.523     6.765
     5   6 C        2.973     0.006    27.894     8.663
     6   6 C        2.924    -0.041    29.019     8.834
     7   6 C        2.926    -0.035    28.871     8.812
     8   6 C        2.975     0.010    27.795     8.648
     9   6 C        2.973    -0.009    28.248     8.718
    10   6 C        2.981     0.001    27.992     8.679
    11   6 C        2.918    -0.041    29.026     8.835
    12   6 C        2.920    -0.043    29.065     8.841
    13   6 C        2.969     0.007    27.872     8.660
    14   6 C        3.903     0.025    20.099     6.373
    15   6 C        3.761    -0.103    22.522     6.765
    16   6 C        3.761    -0.104    22.526     6.766
    17   6 C        3.761    -0.106    22.578     6.774
    18   6 C        2.928    -0.045    29.117     8.849
    19   6 C        2.980     0.003    27.952     8.672
    20   6 C        2.974    -0.010    28.268     8.721
    21   6 C        2.975     0.016    27.657     8.626
    22   6 C        2.924    -0.032    28.802     8.801
    23   6 C        2.918    -0.031    28.771     8.796
    24   6 C        2.920    -0.034    28.838     8.806
    25   6 C        2.918    -0.031    28.766     8.795
    26   6 C        2.926    -0.032    28.794     8.800
    27   6 C        2.978     0.000    28.015     8.682
    28   6 C        2.974    -0.009    28.248     8.718
    29   6 C        2.975     0.010    27.795     8.648
    30   6 C        2.923    -0.035    28.879     8.813
    31   6 C        2.926    -0.037    28.927     8.820
    32   6 C        2.973     0.006    27.893     8.663
    33   6 C        3.902     0.025    20.100     6.373
    34   6 C        3.761    -0.104    22.534     6.767
    35   6 C        3.761    -0.106    22.573     6.773
    36   6 C        3.762    -0.104    22.523     6.765
    37   6 C        2.924    -0.041    29.019     8.834
    38   6 C        2.926    -0.035    28.871     8.812
    39   6 C        2.981     0.001    27.992     8.679
    40   6 C        2.918    -0.041    29.027     8.835
    41   6 C        2.920    -0.043    29.065     8.841
    42   6 C        2.969     0.007    27.872     8.660
    43   6 C        3.903     0.025    20.099     6.373
    44   6 C        3.761    -0.106    22.578     6.774
    45   6 C        3.761    -0.103    22.522     6.765
    46   6 C        3.761    -0.104    22.526     6.766
    47   6 C        2.928    -0.045    29.116     8.849
    48   6 C        2.980     0.003    27.952     8.672
    49   6 C        2.974    -0.010    28.268     8.721
    50   6 C        2.975     0.016    27.657     8.626
    51   6 C        2.924    -0.032    28.802     8.801
    52   6 C        2.918    -0.031    28.771     8.796
    53   6 C        2.920    -0.034    28.838     8.806
    54   6 C        2.918    -0.031    28.766     8.795
    55   6 C        2.926    -0.032    28.793     8.800
    56   6 C        2.978     0.000    28.015     8.682
    57   6 C        2.923    -0.035    28.878     8.813
    58   6 C        2.926    -0.037    28.927     8.820
    59   1 H        0.925     0.032     2.557     2.501
    60   1 H        0.925     0.036     2.504     2.474
    61   1 H        0.925     0.039     2.465     2.455
    62   1 H        0.925     0.037     2.484     2.465
    63   1 H        0.925     0.035     2.511     2.478
    64   1 H        0.925     0.035     2.514     2.479
    65   1 H        0.925     0.038     2.469     2.457
    66   1 H        0.925     0.035     2.512     2.479
    67   1 H        0.925     0.033     2.541     2.493
    68   1 H        0.926     0.036     2.502     2.473
    69   1 H        0.925     0.022     2.710     2.574
    70   1 H        0.926     0.030     2.592     2.518
    71   1 H        0.926     0.035     2.520     2.482
    72   1 H        0.925     0.037     2.495     2.470
    73   1 H        0.925     0.032     2.555     2.500
    74   1 H        0.925     0.039     2.467     2.456
    75   1 H        0.925     0.035     2.511     2.478
    76   1 H        0.925     0.032     2.556     2.500
    77   1 H        0.925     0.039     2.463     2.454
    78   1 H        0.925     0.036     2.505     2.475
    79   1 H        0.925     0.036     2.509     2.477
    80   1 H        0.925     0.037     2.486     2.465
    81   1 H        0.926     0.033     2.546     2.495
    82   1 H        0.926     0.030     2.587     2.515
    83   1 H        0.926     0.027     2.630     2.536
    84   1 H        0.926     0.029     2.601     2.522
    85   1 H        0.926     0.029     2.607     2.525
    86   1 H        0.925     0.024     2.678     2.559
    87   1 H        0.926     0.026     2.648     2.545
    88   1 H        0.926     0.028     2.608     2.525
    89   1 H        0.925     0.036     2.504     2.474
    90   1 H        0.925     0.039     2.465     2.455
    91   1 H        0.925     0.032     2.557     2.501
    92   1 H        0.925     0.035     2.514     2.479
    93   1 H        0.925     0.035     2.510     2.478
    94   1 H        0.925     0.037     2.484     2.465
    95   1 H        0.925     0.035     2.512     2.479
    96   1 H        0.925     0.033     2.541     2.493
    97   1 H        0.925     0.038     2.469     2.457
    98   1 H        0.926     0.036     2.502     2.473
    99   1 H        0.925     0.022     2.710     2.574
   100   1 H        0.926     0.030     2.592     2.517
   101   1 H        0.926     0.035     2.519     2.482
   102   1 H        0.925     0.036     2.505     2.475
   103   1 H        0.925     0.036     2.509     2.477
   104   1 H        0.925     0.037     2.486     2.465
   105   1 H        0.925     0.032     2.555     2.500
   106   1 H        0.925     0.039     2.467     2.456
   107   1 H        0.925     0.037     2.495     2.470
   108   1 H        0.925     0.035     2.511     2.478
   109   1 H        0.925     0.032     2.556     2.500
   110   1 H        0.925     0.039     2.463     2.454
   111   1 H        0.926     0.033     2.547     2.496
   112   1 H        0.926     0.030     2.587     2.515
   113   1 H        0.926     0.027     2.630     2.536
   114   1 H        0.926     0.029     2.601     2.522
   115   1 H        0.926     0.029     2.607     2.525
   116   1 H        0.925     0.024     2.678     2.559
   117   1 H        0.926     0.026     2.648     2.545
   118   1 H        0.926     0.028     2.608     2.525

molecular dipole:
                 x           y           z       tot (Debye)
 q only:        0.001       0.001      -0.150
   full:        0.001       0.001      -0.100       0.253

 projected vibrational frequencies (cm⁻¹)
eigval :       -0.00    -0.00    -0.00     0.00     0.00     0.00
eigval :       10.43    14.85    17.67    21.32    26.71    27.96
eigval :       30.06    32.32    33.51    35.41    44.35    57.32
eigval :       59.70    63.83    65.96    76.61    80.75    94.87
eigval :       95.46    99.80   102.95   111.03   113.92   123.88
eigval :      130.85   153.54   154.25   161.06   164.19   175.32
eigval :      177.39   178.99   184.16   191.33   191.65   213.17
eigval :      216.67   219.07   222.77   224.67   226.02   229.86
eigval :      250.37   250.55   252.73   260.03   264.84   267.21
eigval :      287.26   303.80   306.76   309.53   309.67   315.28
eigval :      320.52   321.88   323.03   329.77   345.35   345.59
eigval :      350.15   355.35   363.52   372.30   374.40   377.02
eigval :      379.83   383.31   394.09   394.38   398.38   401.29
eigval :      406.45   409.43   422.66   430.65   442.02   443.09
eigval :      454.73   458.77   468.08   471.00   477.35   489.04
eigval :      511.47   523.20   527.08   532.72   553.75   554.34
eigval :      565.12   571.55   583.43   585.68   590.32   595.73
eigval :      600.35   607.32   611.68   618.40   627.71   634.70
eigval :      652.15   663.02   668.62   670.00   674.63   678.03
eigval :      696.97   697.96   710.09   719.52   726.64   730.71
eigval :      758.67   767.01   775.03   782.31   810.32   812.42
eigval :      817.71   820.49   844.64   862.86   863.94   873.52
eigval :      875.14   876.28   878.13   879.82   883.37   884.18
eigval :      900.75   902.99   903.94   906.68   907.19   918.64
eigval :      918.68   924.46   929.70   929.90   932.26   935.97
eigval :      936.28   938.46   938.53   943.31   957.53   957.59
eigval :      959.35   959.45   959.71   960.53   960.75   962.26
eigval :      962.84   962.88   963.05   963.27   963.68   991.98
eigval :      999.02  1012.60  1017.60  1032.38  1032.47  1034.00
eigval :     1034.13  1034.27  1034.37  1035.41  1035.82  1054.27
eigval :     1083.98  1084.47  1120.15  1121.05  1139.41  1142.13
eigval :     1143.45  1143.56  1152.97  1153.87  1155.52  1157.62
eigval :     1180.86  1181.03  1181.70  1199.51  1199.92  1207.98
eigval :     1211.44  1220.37  1223.22  1223.81  1223.84  1225.22
eigval :     1225.23  1231.71  1232.33  1232.39  1232.67  1253.80
eigval :     1254.23  1260.76  1277.05  1280.45  1282.81  1283.40
eigval :     1283.62  1285.08  1290.30  1292.22  1308.37  1312.60
eigval :     1312.81  1315.58  1316.41  1316.85  1326.22  1336.85
eigval :     1339.86  1352.60  1359.12  1364.13  1374.92  1380.59
eigval :     1393.75  1394.34  1397.71  1401.61  1401.90  1402.07
eigval :     1402.33  1402.43  1404.94  1405.28  1406.49  1425.19
eigval :     1425.37  1425.55  1426.49  1426.90  1427.98  1435.27
eigval :     1451.97  1470.06  1473.39  1482.35  1486.76  1486.89
eigval :     1488.46  1488.47  1488.47  1490.15  1492.17  1492.50
eigval :     1492.87  1492.90  1498.38  1499.34  1499.72  1499.84
eigval :     1501.63  1501.94  1503.01  1503.26  1508.78  1508.85
eigval :     1511.50  1512.02  1516.56  1517.30  1517.52  1517.60
eigval :     1520.25  1526.81  1548.13  1552.87  1555.68  1556.14
eigval :     1571.75  1571.99  1592.30  1592.85  1598.27  1598.51
eigval :     3017.70  3017.73  3018.95  3019.08  3019.48  3019.61
eigval :     3019.62  3020.24  3022.52  3022.53  3022.58  3022.60
eigval :     3023.57  3023.60  3025.32  3025.37  3026.25  3026.40
eigval :     3029.38  3029.45  3029.88  3029.96  3032.87  3032.95
eigval :     3035.56  3035.62  3035.66  3035.83  3040.63  3040.69
eigval :     3043.11  3043.29  3045.87  3045.91  3047.22  3047.30
eigval :     3061.82  3061.88  3062.30  3062.42  3062.90  3063.05
eigval :     3066.19  3066.35  3072.34  3072.41  3076.69  3076.91
eigval :     3080.39  3080.69  3086.04  3086.08  3086.40  3086.69
eigval :     3100.64  3100.86  3105.88  3106.01  3111.35  3111.75

   temp. (K)  partition function   enthalpy   heat capacity  entropy
                                   cal/mol     cal/K/mol   cal/K/mol   J/K/mol
 298.15  VIB  0.316E+26            33570.922    206.406    207.936
         ROT  0.629E+08              888.752      2.981     38.665
         INT  0.199E+34            34459.675    209.387    246.601
         TR   0.202E+29             1481.254      4.968     45.731
         TOT                       35940.9286   214.3554   292.3321  1223.1177

       T/K    H(0)-H(T)+PV         H(T)/Eh          T*S/Eh         G(T)/Eh
   ------------------------------------------------------------------------
    298.15    0.572755E-01    0.104508E+01    0.138896E+00    0.906181E+00
   ------------------------------------------------------------------------

         :::::::::::::::::::::::::::::::::::::::::::::::::::::
         ::                  THERMODYNAMIC                  ::
         :::::::::::::::::::::::::::::::::::::::::::::::::::::
         :: total free energy        -153.963725675874 Eh   ::
         ::.................................................::
         :: total energy             -154.869906814065 Eh   ::
         :: zero point energy           0.987802056673 Eh   ::
         :: G(RRHO) w/o ZPVE           -0.081620918481 Eh   ::
         :: G(RRHO) contrib.            0.906181138192 Eh   ::
         :::::::::::::::::::::::::::::::::::::::::::::::::::::

           -------------------------------------------------
          | TOTAL ENERGY             -154.869906814065 Eh   |
          | TOTAL ENTHALPY           -153.824829241877 Eh   |
          | TOTAL FREE ENERGY        -153.963725675874 Eh   |
          | GRADIENT NORM               0.000063166786 Eh/α |
          | HOMO-LUMO GAP               1.360306248554 eV   |
           -------------------------------------------------

 * finished run on 2025/07/16 at 11:26:12.554
