   * xtb version 6.7.1 (edcfbbe) compiled by 'albert@albert-system' on 2024-07-22

   ID    Z sym.   atoms
    1    6 C      1-58
    2    1 H      59-118

          program call               : xtb data2507/toluene/TBRb/TBRb_toluene_S0_finalOpt.xtbopt.xyz --gfn 2 --uhf 2 --gbsa toluene --ohess vtight --parallel 40 --molden --ceasefiles --namespace data2507/toluene/TBRb/TBRb_toluene_T1_preOpt
      * Solvation model:               GBSA
        Solvent                        toluene
        Solvent mass                       9.2140E+01 g/mol
          :  Hamiltonian                  GFN2-xTB          :
 * total energy  :  -154.8630641 Eh     change       -0.1291775E-07 Eh
 * total energy  :  -154.8670929 Eh     change       -0.4028833E-02 Eh
 * total energy  :  -154.8683549 Eh     change       -0.1261912E-02 Eh
 * total energy  :  -154.8684477 Eh     change       -0.9283956E-04 Eh
 * total energy  :  -154.8685262 Eh     change       -0.7846097E-04 Eh
 * total energy  :  -154.8685694 Eh     change       -0.4327300E-04 Eh
 * total energy  :  -154.8686297 Eh     change       -0.6024496E-04 Eh
 * total energy  :  -154.8687020 Eh     change       -0.7235296E-04 Eh
 * total energy  :  -154.8687742 Eh     change       -0.7217659E-04 Eh
 * total energy  :  -154.8688292 Eh     change       -0.5497728E-04 Eh
 * total energy  :  -154.8696028 Eh     change       -0.1032852E-05 Eh
 * total energy  :  -154.8696039 Eh     change       -0.1045387E-05 Eh
 * total energy  :  -154.8696047 Eh     change       -0.8135168E-06 Eh
 * total energy  :  -154.8696053 Eh     change       -0.6001722E-06 Eh
 * total energy  :  -154.8696057 Eh     change       -0.4827608E-06 Eh
 * total energy  :  -154.8696062 Eh     change       -0.4558728E-06 Eh
 * total energy  :  -154.8696067 Eh     change       -0.4805930E-06 Eh
 * total energy  :  -154.8696071 Eh     change       -0.4655551E-06 Eh
 * total energy  :  -154.8696072 Eh     change       -0.3618766E-08 Eh
   *** GEOMETRY OPTIMIZATION CONVERGED AFTER 68 ITERATIONS ***

 final structure:
================
118
 xtb: 6.7.1 (edcfbbe)
C           -7.36712838932396        2.62120902510280       -2.08724118055124
C           -6.96961064761257        1.17491178877943       -1.75546039708033
C           -7.22916102932095        0.31103550245342       -2.99328572811619
C           -7.84557669033649        0.64441293827505       -0.61103808275208
C           -5.51370114721152        1.14942956074085       -1.31762843100925
C           -4.52651418727001        0.44455520854069       -1.99663398756238
C           -3.21475425508834        0.44473572340944       -1.56265667661448
C           -2.82941359544179        1.15916965423871       -0.43181190697554
C           -1.42040327689362        1.18355354529136       -0.02474166328559
C           -0.73562075717672        2.43323754095877        0.02234766648534
C           -1.36371552878197        3.65376296100272       -0.25881382489272
C           -0.72140275876137        4.85754117080864       -0.05856648798743
C            0.57682840621797        4.91161423118235        0.45475111265028
C            1.21897263714785        6.26053148694730        0.73560821886581
C            0.34556400684325        7.03196277573129        1.73676311355415
C            1.31916405876371        7.04879880308018       -0.57937047046871
C            2.62604190021454        6.13686976771753        1.32839224501766
C            1.23321833574004        3.70788012046007        0.66303421740633
C            0.63631824617468        2.46779961504206        0.39676713781903
C            1.36989787461627        1.24348758894948        0.45919389947180
C            2.77488317068153        1.27512774664946        0.88730468878536
C            3.74014964957718        2.01903470648932        0.20881576008811
C            5.04024754800184        2.07550031849925        0.67224163541287
C            5.40102902678991        1.40143854500268        1.82705515668743
C            4.45132221862912        0.66012539390928        2.51033774771176
C            3.15244312329433        0.59546989116660        2.04498574033015
C            0.72279434468137        0.01532764025048        0.22012033852826
C            1.42120413226211       -1.18634911268965       -0.01281629709177
C            2.83085639935515       -1.16476669191175       -0.41772362383578
C            3.81397190736471       -1.87857638024306        0.26603162227765
C            5.12377067528438       -1.86674602673821       -0.16424662738202
C            5.51638841874137       -1.16110113165168       -1.29987493042637
C            6.97280718547495       -1.18995975623036       -1.73580913002493
C            7.36946476731658       -2.63838239414657       -2.05925921088648
C            7.23441484431398       -0.33298108820068       -2.97799374760495
C            7.84799642712624       -0.65392198845327       -0.59337361393814
C            4.53018326138059       -0.46074325584722       -1.98496989625303
C            3.21783711691158       -0.45795366941465       -1.55281842641598
C            0.73626569217824       -2.43567204315189        0.04213842687093
C            1.36464684425523       -3.65833449301935       -0.22892047708481
C            0.72140242123028       -4.86052973701441       -0.02204127294746
C           -0.57801346193893       -4.91070551674966        0.48866287868387
C           -1.22219751820959       -6.25743475871067        0.77541293057833
C           -2.62861464780485       -6.12898686855035        1.36875726086236
C           -0.34983091541198       -7.02728569632173        1.77865274364688
C           -1.32468543281283       -7.05000989222174       -0.53681756883429
C           -1.23433773636931       -3.70535017308308        0.68745422732636
C           -0.63649002211442       -2.46734421958626        0.41381963943353
C           -1.37012467512426       -1.24261407814632        0.46566969740521
C           -2.77611413498163       -1.27114518674446        0.89075178211421
C           -3.73981425582639       -2.01968468327723        0.21514183559725
C           -5.04098681999429       -2.07295203870126        0.67590605707273
C           -5.40443972410415       -1.39105736452900        1.82527266984593
C           -4.45636216342414       -0.64491489967022        2.50553837013761
C           -3.15640974087547       -0.58342162141929        2.04274564966442
C           -0.72251022910014       -0.01630478304504        0.21870799321663
C           -3.81348552853495        1.87758846846578        0.24570733671725
C           -5.12269474066735        1.86274001430838       -0.18623688437681
H           -6.74080478435155        3.00960435747706       -2.88834411362525
H           -7.25466693553395        3.26994093347375       -1.22265599702661
H           -8.40537245488515        2.66009199752832       -2.41077038912797
H           -8.28508025113057        0.35758404144948       -3.25306018080889
H           -6.97451320185153       -0.72919459945707       -2.80334965166458
H           -6.65800079230360        0.66786004446157       -3.84749158827818
H           -8.88890763569965        0.61617223150452       -0.91911457737977
H           -7.76843308294414        1.27289284594780        0.27183268498650
H           -7.53459937873519       -0.36199489940781       -0.33960074709015
H           -4.76604756666812       -0.11996165138793       -2.88335520519460
H           -2.46781367916163       -0.10917854776673       -2.11494435518557
H           -2.37512083991439        3.65389168915110       -0.63639389802668
H           -1.25362774741189        5.76765271385201       -0.29084892877725
H           -0.65290125902958        7.20273737468559        1.34366148903678
H            0.25563126096989        6.47200091183113        2.66579866696665
H            0.79429362906380        7.99825879283488        1.95801788914722
H            0.33797470509438        7.22027541782698       -1.01379302709740
H            1.92085082691354        6.50041482970911       -1.30185994889344
H            1.78763155296013        8.01474229796137       -0.40188838218486
H            2.61049362652394        5.58207101341093        2.26406196229678
H            3.30309821098925        5.64292915438061        0.63534113461631
H            3.02091018711015        7.13040207254512        1.53210180225766
H            2.24344988848310        3.70579420157796        1.03433363689766
H            3.46763176987639        2.53405688602199       -0.70138482962884
H            5.77610900958237        2.65366454766560        0.13101913579720
H            6.41619259707408        1.45298091690628        2.19262778951898
H            4.72436051896644        0.13286685441166        3.41347064075851
H            2.41022610147525        0.02314033859120        2.58415712251982
H            3.54834448938460       -2.42357579832497        1.16102607376306
H            5.85313137344002       -2.42413023925005        0.40476988543903
H            7.25518032537240       -3.28231686501841       -1.19132900050956
H            8.40810546441688       -2.67998673854965       -2.38118657884317
H            6.74384215197201       -3.03050804377527       -2.85909182580079
H            6.66433524700537       -0.69423649884587       -3.83105230802562
H            6.97986413772946        0.70835017267865       -2.79404490934274
H            8.29067376745051       -0.38135413080269       -3.23604934720399
H            7.77000025115872       -1.27784215956282        0.29264792003273
H            7.53718422023658        0.35398593807169       -0.32736057822791
H            8.89158234025216       -0.62763615467606       -0.90075812933412
H            4.77096709206816        0.09773762433574       -2.87516802406692
H            2.47167854344454        0.09226363334423       -2.10985174284029
H            2.37691918752368       -3.66143912705572       -0.60415350404503
H            1.25374575748238       -5.77237211069024       -0.24716039899954
H           -2.61149492101106       -5.56935661726197        2.30152475501516
H           -3.30572021670664       -5.63781877955730        0.67379984317468
H           -3.02455510868600       -7.12096575257647        1.57790260820142
H           -0.25750147948581       -6.46413706286291        2.70551345151781
H           -0.80098697300892       -7.99151591452882        2.00398325197733
H            0.64776355598550       -7.20242159111296        1.38531138456679
H           -0.34408481424898       -7.22365800321681       -0.97173819861601
H           -1.92669171925779       -6.50345398067982       -1.26042446120915
H           -1.79383082138272       -8.01494415934598       -0.35565437683119
H           -2.24535838684193       -3.70033865270881        1.05656989130319
H           -3.46516497776378       -2.54098364440113       -0.69083672709955
H           -5.77559662008450       -2.65479435073265        0.13692788000266
H           -6.42043063647673       -1.44016068052423        2.18886870811330
H           -4.73147405300665       -0.11136849952163        3.40434087775892
H           -2.41551537954475       -0.00729721754397        2.57967851669687
H           -3.54903633593264        2.42872871762513        1.13728007128150
H           -5.85286729814665        2.42387963822327        0.37803100778684

          :  Hamiltonian                  GFN2-xTB          :
         :: gradient norm              0.000043852211 Eh/a0 ::
         :: HOMO-LUMO gap              1.362824996836 eV    ::
         :: SCC energy              -157.670850126063 Eh    ::
         :: -> dispersion             -0.172134232919 Eh    ::
         :: -> Gsolv                  -0.052271993681 Eh    ::
         :: repulsion energy           2.801242973431 Eh    ::

    * Orbital Energies and Occupations

         #    Occupation            Energy/Eh            Energy/eV
      -------------------------------------------------------------
         1        2.0000           -0.6496466             -17.6778
       ...           ...                  ...                  ...
       135        2.0000           -0.4045558             -11.0085
       136        2.0000           -0.3999735             -10.8838
       137        2.0000           -0.3977550             -10.8235
       138        2.0000           -0.3976904             -10.8217
       139        2.0000           -0.3939973             -10.7212
       140        2.0000           -0.3910129             -10.6400
       141        2.0000           -0.3876382             -10.5482
       142        2.0000           -0.3862104             -10.5093
       143        2.0000           -0.3827406             -10.4149
       144        2.0000           -0.3741722             -10.1817
       145        2.0000           -0.3703672             -10.0782
       146        1.0000           -0.3325417              -9.0489
       147        1.0000           -0.2914378              -7.9304 (HOMO)
       148                         -0.2413549              -6.5676 (LUMO)
       149                         -0.2272135              -6.1828
       150                         -0.2253354              -6.1317
       151                         -0.2251988              -6.1280
       152                         -0.2232559              -6.0751
       153                         -0.2217783              -6.0349
       154                         -0.2112984              -5.7497
       155                         -0.2107135              -5.7338
       156                         -0.2101551              -5.7186
       157                         -0.2095973              -5.7034
       158                         -0.1906956              -5.1891
       ...                                ...                  ...
       292                          0.7206179              19.6090
      -------------------------------------------------------------
                  HL-Gap            0.0500829 Eh            1.3628 eV

     #   Z          covCN         q      C6AA      α(0)
     1   6 C        3.761    -0.104    22.533     6.767
     2   6 C        3.902     0.025    20.100     6.373
     3   6 C        3.761    -0.106    22.572     6.773
     4   6 C        3.762    -0.104    22.525     6.766
     5   6 C        2.973     0.006    27.895     8.663
     6   6 C        2.924    -0.041    29.019     8.834
     7   6 C        2.926    -0.035    28.872     8.812
     8   6 C        2.975     0.010    27.793     8.648
     9   6 C        2.973    -0.009    28.247     8.718
    10   6 C        2.982     0.001    27.992     8.679
    11   6 C        2.918    -0.041    29.021     8.834
    12   6 C        2.922    -0.039    28.962     8.825
    13   6 C        2.969     0.007    27.871     8.660
    14   6 C        3.902     0.025    20.097     6.372
    15   6 C        3.761    -0.104    22.535     6.767
    16   6 C        3.761    -0.104    22.527     6.766
    17   6 C        3.761    -0.106    22.564     6.772
    18   6 C        2.926    -0.050    29.229     8.866
    19   6 C        2.980     0.003    27.952     8.672
    20   6 C        2.974    -0.010    28.267     8.721
    21   6 C        2.975     0.016    27.655     8.626
    22   6 C        2.924    -0.032    28.789     8.799
    23   6 C        2.918    -0.030    28.760     8.794
    24   6 C        2.920    -0.033    28.833     8.805
    25   6 C        2.918    -0.031    28.764     8.795
    26   6 C        2.926    -0.032    28.792     8.800
    27   6 C        2.978     0.000    28.017     8.682
    28   6 C        2.973    -0.009    28.247     8.718
    29   6 C        2.975     0.010    27.793     8.648
    30   6 C        2.923    -0.035    28.876     8.812
    31   6 C        2.926    -0.037    28.927     8.820
    32   6 C        2.973     0.006    27.895     8.663
    33   6 C        3.902     0.025    20.100     6.373
    34   6 C        3.761    -0.104    22.533     6.767
    35   6 C        3.761    -0.106    22.572     6.773
    36   6 C        3.762    -0.104    22.525     6.766
    37   6 C        2.924    -0.041    29.019     8.834
    38   6 C        2.926    -0.035    28.872     8.812
    39   6 C        2.982     0.001    27.992     8.679
    40   6 C        2.918    -0.041    29.021     8.834
    41   6 C        2.922    -0.039    28.962     8.825
    42   6 C        2.969     0.007    27.871     8.660
    43   6 C        3.902     0.025    20.097     6.372
    44   6 C        3.761    -0.106    22.564     6.772
    45   6 C        3.761    -0.104    22.535     6.767
    46   6 C        3.761    -0.104    22.527     6.766
    47   6 C        2.926    -0.049    29.229     8.866
    48   6 C        2.980     0.003    27.952     8.672
    49   6 C        2.974    -0.010    28.267     8.721
    50   6 C        2.975     0.016    27.655     8.626
    51   6 C        2.924    -0.032    28.789     8.799
    52   6 C        2.918    -0.030    28.760     8.794
    53   6 C        2.920    -0.033    28.833     8.805
    54   6 C        2.918    -0.031    28.764     8.795
    55   6 C        2.926    -0.032    28.792     8.800
    56   6 C        2.978     0.000    28.017     8.682
    57   6 C        2.923    -0.035    28.876     8.812
    58   6 C        2.926    -0.037    28.927     8.820
    59   1 H        0.925     0.032     2.559     2.501
    60   1 H        0.925     0.036     2.504     2.475
    61   1 H        0.925     0.039     2.465     2.455
    62   1 H        0.925     0.037     2.485     2.465
    63   1 H        0.925     0.035     2.512     2.478
    64   1 H        0.925     0.035     2.515     2.480
    65   1 H        0.925     0.038     2.470     2.457
    66   1 H        0.925     0.035     2.512     2.478
    67   1 H        0.925     0.033     2.539     2.492
    68   1 H        0.926     0.036     2.504     2.475
    69   1 H        0.925     0.022     2.710     2.575
    70   1 H        0.926     0.029     2.598     2.521
    71   1 H        0.926     0.028     2.621     2.531
    72   1 H        0.925     0.037     2.492     2.469
    73   1 H        0.925     0.032     2.558     2.501
    74   1 H        0.925     0.039     2.468     2.457
    75   1 H        0.925     0.037     2.495     2.470
    76   1 H        0.925     0.032     2.555     2.500
    77   1 H        0.925     0.039     2.462     2.454
    78   1 H        0.925     0.034     2.528     2.487
    79   1 H        0.925     0.035     2.512     2.479
    80   1 H        0.925     0.038     2.479     2.462
    81   1 H        0.926     0.040     2.444     2.445
    82   1 H        0.926     0.029     2.597     2.520
    83   1 H        0.926     0.027     2.630     2.536
    84   1 H        0.926     0.029     2.600     2.522
    85   1 H        0.926     0.029     2.607     2.525
    86   1 H        0.925     0.024     2.680     2.560
    87   1 H        0.926     0.026     2.648     2.545
    88   1 H        0.926     0.029     2.607     2.525
    89   1 H        0.925     0.036     2.505     2.475
    90   1 H        0.925     0.039     2.465     2.455
    91   1 H        0.925     0.032     2.559     2.501
    92   1 H        0.925     0.035     2.515     2.480
    93   1 H        0.925     0.035     2.512     2.478
    94   1 H        0.925     0.037     2.485     2.465
    95   1 H        0.925     0.035     2.512     2.478
    96   1 H        0.925     0.033     2.539     2.492
    97   1 H        0.925     0.038     2.470     2.458
    98   1 H        0.926     0.036     2.504     2.475
    99   1 H        0.925     0.022     2.710     2.575
   100   1 H        0.926     0.029     2.598     2.521
   101   1 H        0.926     0.028     2.621     2.532
   102   1 H        0.925     0.034     2.528     2.487
   103   1 H        0.925     0.035     2.512     2.479
   104   1 H        0.925     0.038     2.479     2.462
   105   1 H        0.925     0.032     2.558     2.501
   106   1 H        0.925     0.039     2.468     2.457
   107   1 H        0.925     0.037     2.492     2.469
   108   1 H        0.925     0.037     2.495     2.470
   109   1 H        0.925     0.032     2.555     2.500
   110   1 H        0.925     0.039     2.462     2.454
   111   1 H        0.926     0.040     2.444     2.445
   112   1 H        0.926     0.029     2.597     2.520
   113   1 H        0.926     0.027     2.630     2.536
   114   1 H        0.926     0.029     2.600     2.521
   115   1 H        0.926     0.029     2.607     2.525
   116   1 H        0.925     0.024     2.680     2.560
   117   1 H        0.926     0.026     2.649     2.545
   118   1 H        0.926     0.029     2.607     2.525

molecular dipole:
                 x           y           z       tot (Debye)
 q only:       -0.000      -0.001      -0.148
   full:       -0.000      -0.000      -0.109       0.278

 projected vibrational frequencies (cm⁻¹)
eigval :       -0.00    -0.00    -0.00     0.00     0.00     0.00
eigval :       10.67    15.35    18.28    24.78    29.66    32.16
eigval :       33.90    35.19    37.61    39.65    41.71    58.72
eigval :       61.59    66.34    67.47    79.19    79.72    94.36
eigval :       96.39   101.32   102.99   112.91   118.94   122.23
eigval :      130.96   155.37   158.30   161.88   163.60   178.70
eigval :      180.48   183.59   188.89   190.88   198.40   211.93
eigval :      212.10   220.66   222.50   224.02   228.53   230.75
eigval :      239.68   248.27   252.45   256.56   262.18   262.44
eigval :      283.58   291.91   311.16   311.30   311.93   320.72
eigval :      321.66   322.68   332.32   336.82   347.37   348.67
eigval :      348.73   353.07   366.02   371.45   375.16   377.71
eigval :      379.20   382.99   393.29   396.08   400.05   401.91
eigval :      405.60   409.25   421.80   429.85   439.04   443.67
eigval :      454.94   458.13   467.78   470.47   479.54   489.08
eigval :      512.44   522.71   526.73   532.67   553.99   554.63
eigval :      565.85   571.79   583.77   585.81   590.42   596.02
eigval :      600.63   607.48   612.70   618.35   628.62   634.44
eigval :      652.45   663.01   669.23   670.60   674.73   678.23
eigval :      697.44   698.47   709.92   719.54   726.58   731.01
eigval :      757.70   766.39   775.38   781.78   812.05   815.39
eigval :      821.23   822.76   843.43   860.65   861.38   873.35
eigval :      874.61   876.97   878.87   880.19   882.67   883.30
eigval :      901.22   903.59   904.39   909.13   909.56   918.83
eigval :      919.53   924.86   928.17   928.34   933.07   935.96
eigval :      936.64   937.81   937.99   943.67   958.46   958.82
eigval :      959.07   959.66   959.83   961.72   961.98   962.09
eigval :      962.65   963.12   963.57   964.04   964.73   992.35
eigval :      998.98  1012.85  1018.17  1033.79  1034.00  1034.33
eigval :     1034.56  1035.12  1035.30  1035.90  1035.97  1055.64
eigval :     1083.90  1084.36  1120.16  1121.06  1137.82  1142.08
eigval :     1143.86  1143.99  1153.03  1154.13  1155.24  1156.25
eigval :     1175.87  1181.29  1181.51  1198.95  1199.17  1208.09
eigval :     1209.82  1220.43  1220.59  1223.86  1223.91  1225.48
eigval :     1225.60  1229.31  1229.56  1232.52  1232.71  1256.14
eigval :     1257.37  1260.97  1275.65  1279.86  1282.69  1283.24
eigval :     1283.32  1284.62  1290.23  1292.21  1307.46  1312.54
eigval :     1312.73  1316.25  1316.58  1318.44  1325.03  1335.60
eigval :     1337.39  1350.58  1356.69  1363.77  1376.55  1383.57
eigval :     1394.35  1394.87  1398.89  1402.03  1402.10  1402.25
eigval :     1402.37  1403.25  1405.66  1405.97  1407.20  1425.51
eigval :     1425.94  1426.25  1427.49  1427.62  1428.03  1433.86
eigval :     1453.94  1469.66  1473.03  1481.57  1486.97  1487.37
eigval :     1488.84  1488.90  1489.48  1490.04  1491.23  1491.34
eigval :     1492.67  1493.04  1497.92  1499.11  1499.92  1500.09
eigval :     1500.55  1502.24  1503.99  1504.22  1509.59  1509.68
eigval :     1511.91  1511.95  1514.22  1517.84  1517.87  1518.00
eigval :     1520.15  1526.39  1550.45  1554.32  1555.62  1557.27
eigval :     1571.77  1571.99  1592.13  1592.72  1598.23  1598.49
eigval :     3018.25  3018.34  3019.49  3019.53  3020.18  3020.21
eigval :     3020.26  3020.30  3023.12  3023.27  3023.51  3023.55
eigval :     3024.69  3024.76  3025.68  3025.73  3027.48  3027.56
eigval :     3029.95  3029.96  3030.52  3030.54  3033.41  3033.44
eigval :     3036.17  3036.18  3037.35  3037.39  3042.86  3042.95
eigval :     3043.27  3043.48  3046.76  3046.77  3047.31  3047.36
eigval :     3061.84  3061.89  3062.46  3062.56  3062.69  3062.88
eigval :     3066.66  3066.75  3072.31  3072.35  3076.10  3076.15
eigval :     3077.10  3077.17  3080.78  3080.83  3086.56  3086.60
eigval :     3090.78  3091.40  3106.08  3106.19  3130.16  3130.38

   temp. (K)  partition function   enthalpy   heat capacity  entropy
                                   cal/mol     cal/K/mol   cal/K/mol   J/K/mol
 298.15  VIB  0.112E+26            33493.720    206.770    207.102
         ROT  0.632E+08              888.752      2.981     38.674
         INT  0.708E+33            34382.473    209.751    245.776
         TR   0.202E+29             1481.254      4.968     45.731
         TOT                       35863.7266   214.7194   291.5074  1219.6669

       T/K    H(0)-H(T)+PV         H(T)/Eh          T*S/Eh         G(T)/Eh
   ------------------------------------------------------------------------
    298.15    0.571525E-01    0.104522E+01    0.138505E+00    0.906716E+00
   ------------------------------------------------------------------------

         :::::::::::::::::::::::::::::::::::::::::::::::::::::
         ::                  THERMODYNAMIC                  ::
         :::::::::::::::::::::::::::::::::::::::::::::::::::::
         :: total free energy        -153.962891575126 Eh   ::
         ::.................................................::
         :: total energy             -154.869607152481 Eh   ::
         :: zero point energy           0.988067651112 Eh   ::
         :: G(RRHO) w/o ZPVE           -0.081352073757 Eh   ::
         :: G(RRHO) contrib.            0.906715577355 Eh   ::
         :::::::::::::::::::::::::::::::::::::::::::::::::::::

           -------------------------------------------------
          | TOTAL ENERGY             -154.869607152481 Eh   |
          | TOTAL ENTHALPY           -153.824387015092 Eh   |
          | TOTAL FREE ENERGY        -153.962891575126 Eh   |
          | GRADIENT NORM               0.000043854826 Eh/α |
          | HOMO-LUMO GAP               1.362824956955 eV   |
           -------------------------------------------------

 * finished run on 2025/07/16 at 11:09:31.197
