   * xtb version 6.7.1 (edcfbbe) compiled by 'albert@albert-system' on 2024-07-22

   ID    Z sym.   atoms
    1    6 C      1-58
    2    1 H      59-118

          program call               : xtb data2507/toluene/TBRb/TBRb.xyz --gfn 2 --gbsa toluene --ohess vtight --parallel 40 --molden --ceasefiles --namespace data2507/toluene/TBRb/TBRb_toluene_S0_preOpt
      * Solvation model:               GBSA
        Solvent                        toluene
        Solvent mass                       9.2140E+01 g/mol
          :  Hamiltonian                  GFN2-xTB          :
 * total energy  :  -154.8722371 Eh     change       -0.3957297E-08 Eh
 * total energy  :  -154.8949036 Eh     change       -0.2266647E-01 Eh
 * total energy  :  -154.9050916 Eh     change       -0.1018805E-01 Eh
 * total energy  :  -154.9096495 Eh     change       -0.4557928E-02 Eh
 * total energy  :  -154.9125339 Eh     change       -0.2884336E-02 Eh
 * total energy  :  -154.9138153 Eh     change       -0.1281402E-02 Eh
 * total energy  :  -154.9143072 Eh     change       -0.4919158E-03 Eh
 * total energy  :  -154.9145882 Eh     change       -0.2810465E-03 Eh
 * total energy  :  -154.9148982 Eh     change       -0.3099669E-03 Eh
 * total energy  :  -154.9152290 Eh     change       -0.3307477E-03 Eh
 * total energy  :  -154.9163450 Eh     change       -0.3715233E-06 Eh
 * total energy  :  -154.9163452 Eh     change       -0.2737645E-06 Eh
 * total energy  :  -154.9163455 Eh     change       -0.2256438E-06 Eh
 * total energy  :  -154.9163457 Eh     change       -0.1888926E-06 Eh
 * total energy  :  -154.9163458 Eh     change       -0.1473531E-06 Eh
 * total energy  :  -154.9163459 Eh     change       -0.1395154E-06 Eh
 * total energy  :  -154.9163461 Eh     change       -0.1441767E-06 Eh
 * total energy  :  -154.9163462 Eh     change       -0.1540792E-06 Eh
 * total energy  :  -154.9163462 Eh     change       -0.3513094E-08 Eh
   *** GEOMETRY OPTIMIZATION CONVERGED AFTER 68 ITERATIONS ***

 final structure:
================
118
 xtb: 6.7.1 (edcfbbe)
C           -8.03380098117504        1.68158920316738       -0.47360745344223
C           -7.06829319091919        1.10275932299884       -1.51228663902637
C           -7.16019134867845        1.95982989858175       -2.78402274031744
C           -7.50900601913994       -0.33493784698444       -1.82181642478402
C           -5.62561626933460        1.09146910333357       -1.03012195775166
C           -4.62973193305937        0.56397078469577       -1.84872487212459
C           -3.30646939192845        0.54516354774060       -1.45796955849676
C           -2.92153254097679        1.06028687933492       -0.22441622378538
C           -1.48672476282815        1.12117145178082        0.12025325307290
C           -0.87370062387740        2.37521638202741        0.15910149443253
C           -1.58890413982409        3.58551821334452       -0.05679437122219
C           -1.00310190547840        4.79734911208321        0.11263259361200
C            0.35112410225524        4.91864249857039        0.52664154460027
C            0.92369858876593        6.30645318706979        0.76452616701528
C            2.38328314252261        6.27037775207492        1.22796021791100
C            0.09465296438758        7.01092972382526        1.84898697495538
C            0.85553697243904        7.10827794222563       -0.54402293237701
C            1.07413374932638        3.77314230915835        0.67701586765591
C            0.52304382096785        2.48069066860830        0.44833566433867
C            1.30960661224713        1.32530152975253        0.47849297922018
C            2.74115807784360        1.46636727882311        0.81984287316472
C            3.63292818535189        2.14077896316285       -0.00889644428640
C            4.94385388584445        2.33733748706270        0.38219496248864
C            5.38054419853232        1.87556412838735        1.61254807968123
C            4.49899774859506        1.21128072520767        2.44814862845343
C            3.18871329886524        1.00950149622821        2.05593034942863
C            0.71864640384363        0.05323446600248        0.29880672270681
C            1.48663003651884       -1.12117450651886        0.12042222390616
C            2.92156991721476       -1.06020831314195       -0.22368041335863
C            3.90679386031339       -1.59933350631321        0.59353080217986
C            5.23292479396629       -1.60480683862488        0.20161023229238
C            5.62596681405782       -1.09123653607791       -1.02835252331043
C            7.06882842421995       -1.10243044383291       -1.50996072086887
C            8.03391952124827       -1.68155327829198       -0.47105676546312
C            7.16118257450823       -1.95917046872754       -2.78188680472257
C            7.50969656723596        0.33533957685075       -1.81893502947097
C            4.63042767280548       -0.56337855574465       -1.84714269830832
C            3.30701404208822       -0.54464888780738       -1.45689302400771
C            0.87358477928008       -2.37522979264603        0.15867019296489
C            1.58886794401096       -3.58547106058000       -0.05730332728468
C            1.00302803117279       -4.79735120156745        0.11164485763517
C           -0.35134729612662       -4.91876084942821        0.52512893159284
C           -0.92393191195284       -6.30662931360421        0.76264320868724
C           -2.38384136089280       -6.27070023138242        1.22506086067884
C           -0.09552578180734       -7.01090857563946        1.84772483168759
C           -0.85478743388453       -7.10855209398046       -0.54579277337521
C           -1.07443200721233       -3.77330706279841        0.67549802503063
C           -0.52326176294787       -2.48079029484618        0.44737836598751
C           -1.30982722664505       -1.32540626869187        0.47762372334145
C           -2.74148703168511       -1.46655150955534        0.81848616844815
C           -3.63302402935256       -2.14068143758728       -0.01072859467727
C           -4.94406826363421       -2.33733304881750        0.37991782279554
C           -5.38110731651618       -1.87594921980356        1.61029224498760
C           -4.49979184339928       -1.21195227585573        2.44636301346278
C           -3.18939259910626       -1.01006853046353        2.05458736605823
C           -0.71879752584738       -0.05328705225853        0.29854361465730
C           -3.90709510792136        1.59906659060606        0.59261195859789
C           -5.23307671340207        1.60460063517998        0.20018562322223
H           -7.79383778263268        2.71852750465747       -0.24933017596081
H           -8.00924219854191        1.10253142177384        0.44685275925605
H           -9.04895510293747        1.64985661708925       -0.86492682626850
H           -8.18811812991273        1.99517569878557       -3.13934226132600
H           -6.53816076469149        1.55570408760592       -3.57822968573460
H           -6.83086113678916        2.97671851621691       -2.57806044366385
H           -8.54726288260631       -0.34680265957283       -2.14769967325904
H           -7.41705321285206       -0.95168396171628       -0.93057437086413
H           -6.90138747035657       -0.77630211783117       -2.60691657527421
H           -4.88291505939773        0.16140508924271       -2.81838580158809
H           -2.55405082976293        0.13527628099601       -2.11792039822418
H           -2.62436517677193        3.52710180774041       -0.35729015955779
H           -1.58784389894565        5.68801609934599       -0.06172306808411
H            2.48586647748067        5.71483152954295        2.15762840395410
H            3.02304404359999        5.81789988135860        0.47377919751327
H            2.73355625121543        7.28614354731925        1.40116013327457
H            0.12406320310739        6.43929396028796        2.77479401196206
H           -0.94400361183663        7.11971514337676        1.54867873269594
H            0.49842044645527        8.00263494586441        2.04264513427789
H            1.42543940536322        6.60536009317974       -1.32313169453391
H           -0.16868953029924        7.21976761089644       -0.88965086522861
H            1.27471732287303        8.10140088817984       -0.39575692618067
H            2.10854481214161        3.81503646835104        0.97237744949838
H            3.29197511667212        2.50541887813105       -0.96755904425620
H            5.62469895685603        2.86254868825424       -0.27227161912144
H            6.40334710224717        2.03675002940670        1.92153056356345
H            4.83237267409275        0.85288530138718        3.41177430803501
H            2.49699529583238        0.49878045847010        2.71156288633666
H            3.63176407719531       -2.01204302656826        1.55431177964692
H            5.95809556064872       -2.02782327353469        0.87780716743127
H            8.00895677230600       -1.10277572136836        0.44956902659532
H            9.04923593021499       -1.64967165087333       -0.86194157176028
H            7.79389537497657       -2.71856726729432       -0.24719623486865
H            6.83174578799310       -2.97610497165988       -2.57631724169082
H            6.53946000858632       -1.55481664423587       -3.57621994293827
H            8.18924240020686       -1.99445032465752       -3.13682421997299
H            7.41731897839874        0.95187313744410       -0.92758910287083
H            6.90246197127734        0.77689743956039       -2.60422315058431
H            8.54810939024014        0.34727439144413       -2.14431703960780
H            4.88400814899476       -0.16047223932585       -2.81655837170270
H            2.55487490583185       -0.13447482684554       -2.11698507149624
H            2.62442700303824       -3.52697734168531       -0.35744638892055
H            1.58785791644771       -5.68796728971164       -0.06267153331463
H           -2.48713144706433       -5.71525299667866        2.15471039712036
H           -3.02309403826248       -5.81819589779983        0.47046305106034
H           -2.73415849064869       -7.28650796532303        1.39791981913401
H           -0.12566598268448       -6.43921004165276        2.77347025747811
H           -0.49926017897378       -8.00266851350924        2.04117818520789
H            0.94335521880738       -7.11952771011028        1.54812871870989
H            0.16967629459180       -7.21995254073151       -0.89074290932403
H           -1.42424324518167       -6.60577693041305       -1.32531967440000
H           -1.27393606359361       -8.10171712640673       -0.39771707357239
H           -2.10894890776369       -3.81528227144987        0.97047428943576
H           -3.29179540273310       -2.50503148344873       -0.96940338576375
H           -5.62473139716318       -2.86233031205166       -0.27491008407877
H           -6.40400755659788       -2.03720580747434        1.91892021511777
H           -4.83344508428032       -0.85383227081525        3.40999544957890
H           -2.49785630469016       -0.49955240176790        2.71057022815389
H           -3.63245817988052        2.01142908467266        1.55365428871586
H           -5.95853319070756        2.02731912963169        0.87626198372867

          :  Hamiltonian                  GFN2-xTB          :
         :: gradient norm              0.000026408549 Eh/a0 ::
         :: HOMO-LUMO gap              1.451326750295 eV    ::
         :: SCC energy              -157.730001430646 Eh    ::
         :: -> dispersion             -0.172311666189 Eh    ::
         :: -> Gsolv                  -0.052316923059 Eh    ::
         :: repulsion energy           2.813655188950 Eh    ::

    * Orbital Energies and Occupations

         #    Occupation            Energy/Eh            Energy/eV
      -------------------------------------------------------------
         1        2.0000           -0.6495966             -17.6764
       ...           ...                  ...                  ...
       134        2.0000           -0.4055555             -11.0357
       135        2.0000           -0.4052555             -11.0276
       136        2.0000           -0.3996747             -10.8757
       137        2.0000           -0.3988750             -10.8539
       138        2.0000           -0.3987288             -10.8500
       139        2.0000           -0.3931150             -10.6972
       140        2.0000           -0.3909040             -10.6370
       141        2.0000           -0.3876025             -10.5472
       142        2.0000           -0.3855138             -10.4904
       143        2.0000           -0.3819666             -10.3938
       144        2.0000           -0.3737015             -10.1689
       145        2.0000           -0.3729095             -10.1474
       146        2.0000           -0.3379622              -9.1964 (HOMO)
       147                         -0.2846269              -7.7451 (LUMO)
       148                         -0.2372520              -6.4560
       149                         -0.2281164              -6.2074
       150                         -0.2265935              -6.1659
       151                         -0.2262570              -6.1568
       152                         -0.2229000              -6.0654
       153                         -0.2227180              -6.0605
       154                         -0.2102630              -5.7215
       155                         -0.2099950              -5.7143
       156                         -0.2091315              -5.6908
       157                         -0.2087626              -5.6807
       ...                                ...                  ...
       292                          0.7213676              19.6294
      -------------------------------------------------------------
                  HL-Gap            0.0533353 Eh            1.4513 eV

     #   Z          covCN         q      C6AA      α(0)
     1   6 C        3.761    -0.106    22.572     6.773
     2   6 C        3.902     0.025    20.101     6.373
     3   6 C        3.761    -0.104    22.531     6.767
     4   6 C        3.761    -0.104    22.527     6.766
     5   6 C        2.973     0.006    27.890     8.663
     6   6 C        2.927    -0.037    28.917     8.819
     7   6 C        2.925    -0.035    28.867     8.811
     8   6 C        2.977     0.010    27.780     8.646
     9   6 C        2.975    -0.007    28.192     8.709
    10   6 C        2.985     0.000    28.011     8.682
    11   6 C        2.914    -0.040    28.990     8.829
    12   6 C        2.921    -0.036    28.900     8.816
    13   6 C        2.968     0.006    27.878     8.661
    14   6 C        3.902     0.025    20.102     6.373
    15   6 C        3.761    -0.106    22.571     6.773
    16   6 C        3.761    -0.104    22.527     6.766
    17   6 C        3.761    -0.103    22.523     6.765
    18   6 C        2.923    -0.050    29.238     8.867
    19   6 C        2.983     0.002    27.986     8.678
    20   6 C        2.976    -0.009    28.230     8.715
    21   6 C        2.977     0.017    27.625     8.622
    22   6 C        2.924    -0.030    28.755     8.794
    23   6 C        2.919    -0.030    28.757     8.794
    24   6 C        2.920    -0.033    28.819     8.803
    25   6 C        2.919    -0.031    28.764     8.795
    26   6 C        2.927    -0.031    28.782     8.798
    27   6 C        2.979    -0.003    28.087     8.693
    28   6 C        2.975    -0.007    28.192     8.709
    29   6 C        2.977     0.010    27.780     8.646
    30   6 C        2.923    -0.035    28.862     8.810
    31   6 C        2.925    -0.042    29.033     8.836
    32   6 C        2.973     0.006    27.890     8.663
    33   6 C        3.902     0.025    20.101     6.373
    34   6 C        3.761    -0.106    22.572     6.773
    35   6 C        3.761    -0.104    22.531     6.767
    36   6 C        3.761    -0.104    22.527     6.766
    37   6 C        2.927    -0.037    28.917     8.819
    38   6 C        2.925    -0.035    28.867     8.811
    39   6 C        2.985     0.000    28.011     8.682
    40   6 C        2.914    -0.040    28.990     8.829
    41   6 C        2.921    -0.036    28.900     8.816
    42   6 C        2.968     0.006    27.878     8.661
    43   6 C        3.902     0.025    20.102     6.373
    44   6 C        3.761    -0.106    22.571     6.773
    45   6 C        3.761    -0.104    22.527     6.766
    46   6 C        3.761    -0.103    22.523     6.765
    47   6 C        2.923    -0.050    29.238     8.867
    48   6 C        2.983     0.002    27.986     8.678
    49   6 C        2.976    -0.009    28.230     8.715
    50   6 C        2.977     0.017    27.625     8.622
    51   6 C        2.924    -0.030    28.755     8.794
    52   6 C        2.919    -0.030    28.757     8.794
    53   6 C        2.920    -0.033    28.819     8.803
    54   6 C        2.919    -0.031    28.764     8.795
    55   6 C        2.927    -0.031    28.782     8.798
    56   6 C        2.979    -0.003    28.087     8.693
    57   6 C        2.923    -0.035    28.862     8.810
    58   6 C        2.925    -0.042    29.033     8.836
    59   1 H        0.925     0.035     2.516     2.480
    60   1 H        0.925     0.035     2.512     2.479
    61   1 H        0.925     0.037     2.484     2.465
    62   1 H        0.925     0.039     2.464     2.455
    63   1 H        0.925     0.036     2.504     2.474
    64   1 H        0.925     0.032     2.562     2.503
    65   1 H        0.925     0.038     2.474     2.460
    66   1 H        0.925     0.034     2.534     2.489
    67   1 H        0.925     0.035     2.510     2.478
    68   1 H        0.926     0.029     2.602     2.523
    69   1 H        0.925     0.021     2.714     2.576
    70   1 H        0.926     0.027     2.625     2.534
    71   1 H        0.926     0.028     2.612     2.527
    72   1 H        0.925     0.034     2.533     2.489
    73   1 H        0.925     0.035     2.518     2.481
    74   1 H        0.925     0.038     2.476     2.461
    75   1 H        0.925     0.032     2.562     2.503
    76   1 H        0.925     0.037     2.492     2.469
    77   1 H        0.925     0.038     2.471     2.458
    78   1 H        0.925     0.032     2.557     2.501
    79   1 H        0.925     0.037     2.496     2.470
    80   1 H        0.925     0.039     2.467     2.456
    81   1 H        0.926     0.037     2.493     2.469
    82   1 H        0.926     0.028     2.612     2.527
    83   1 H        0.926     0.030     2.588     2.516
    84   1 H        0.926     0.028     2.620     2.531
    85   1 H        0.926     0.029     2.602     2.523
    86   1 H        0.925     0.024     2.670     2.555
    87   1 H        0.925     0.024     2.668     2.554
    88   1 H        0.926     0.035     2.510     2.478
    89   1 H        0.925     0.035     2.512     2.479
    90   1 H        0.925     0.037     2.484     2.465
    91   1 H        0.925     0.035     2.516     2.480
    92   1 H        0.925     0.032     2.562     2.503
    93   1 H        0.925     0.036     2.504     2.474
    94   1 H        0.925     0.039     2.464     2.455
    95   1 H        0.925     0.034     2.534     2.489
    96   1 H        0.925     0.035     2.510     2.478
    97   1 H        0.925     0.038     2.474     2.460
    98   1 H        0.926     0.029     2.602     2.523
    99   1 H        0.925     0.021     2.714     2.576
   100   1 H        0.926     0.027     2.625     2.534
   101   1 H        0.926     0.028     2.612     2.527
   102   1 H        0.925     0.034     2.533     2.489
   103   1 H        0.925     0.035     2.518     2.481
   104   1 H        0.925     0.038     2.476     2.461
   105   1 H        0.925     0.032     2.562     2.503
   106   1 H        0.925     0.038     2.471     2.458
   107   1 H        0.925     0.037     2.492     2.469
   108   1 H        0.925     0.037     2.496     2.470
   109   1 H        0.925     0.032     2.557     2.501
   110   1 H        0.925     0.039     2.467     2.456
   111   1 H        0.926     0.037     2.493     2.469
   112   1 H        0.926     0.028     2.612     2.527
   113   1 H        0.926     0.030     2.588     2.516
   114   1 H        0.926     0.028     2.620     2.531
   115   1 H        0.926     0.029     2.602     2.523
   116   1 H        0.925     0.024     2.670     2.555
   117   1 H        0.925     0.024     2.668     2.554
   118   1 H        0.926     0.035     2.510     2.478

molecular dipole:
                 x           y           z       tot (Debye)
 q only:        0.000       0.000      -0.150
   full:        0.000       0.000      -0.139       0.353

 projected vibrational frequencies (cm⁻¹)
eigval :       -0.00    -0.00    -0.00    -0.00    -0.00     0.00
eigval :       10.98    14.80    14.90    22.74    26.46    28.07
eigval :       28.90    32.47    33.07    36.26    41.27    54.33
eigval :       54.40    69.06    69.14    75.04    80.61    88.27
eigval :       95.08   100.13   109.66   111.73   113.08   120.70
eigval :      128.59   153.24   157.80   162.57   164.16   180.86
eigval :      180.99   185.20   187.15   189.51   197.99   203.94
eigval :      208.08   216.99   219.12   222.06   227.02   227.42
eigval :      236.81   245.13   247.69   252.54   261.14   261.64
eigval :      286.71   293.28   314.80   317.75   317.81   319.44
eigval :      319.54   324.59   326.23   338.53   344.42   348.13
eigval :      351.44   354.94   368.64   371.32   373.23   373.52
eigval :      381.73   382.25   393.46   397.90   399.87   404.50
eigval :      407.02   411.90   434.18   440.18   443.25   444.54
eigval :      454.70   460.00   468.23   472.93   481.72   488.43
eigval :      517.53   521.48   531.10   534.08   555.25   557.13
eigval :      569.32   574.36   585.82   586.85   591.22   599.01
eigval :      602.14   611.01   612.91   629.11   633.88   640.35
eigval :      664.56   665.01   672.27   674.94   678.88   683.24
eigval :      698.43   701.48   720.15   721.14   732.36   738.49
eigval :      760.77   768.59   775.25   782.82   814.55   818.75
eigval :      827.19   827.29   844.51   873.80   874.32   877.63
eigval :      877.95   878.56   879.19   880.09   885.71   886.33
eigval :      900.84   904.81   905.18   918.68   918.72   920.21
eigval :      927.49   927.56   930.16   930.32   932.90   933.61
eigval :      933.85   934.33   934.73   942.65   957.96   958.03
eigval :      958.18   959.48   959.49   962.44   962.88   963.09
eigval :      963.12   963.17   964.40   964.45   965.27   991.48
eigval :      999.03  1013.60  1016.84  1033.95  1034.00  1034.06
eigval :     1034.36  1035.25  1035.52  1035.94  1035.98  1048.60
eigval :     1083.50  1083.93  1118.70  1119.39  1131.82  1132.83
eigval :     1143.70  1143.85  1151.52  1152.25  1153.63  1156.95
eigval :     1177.55  1181.89  1181.92  1196.64  1197.38  1208.49
eigval :     1211.69  1216.88  1223.89  1224.15  1224.18  1224.69
eigval :     1226.26  1226.26  1230.36  1232.60  1232.61  1237.76
eigval :     1249.17  1260.10  1263.93  1278.06  1281.30  1281.39
eigval :     1282.30  1282.38  1283.52  1290.15  1292.88  1309.02
eigval :     1311.30  1316.29  1316.45  1322.40  1327.02  1341.69
eigval :     1355.30  1377.83  1378.52  1393.92  1394.32  1401.78
eigval :     1402.10  1402.26  1402.33  1402.34  1402.39  1405.94
eigval :     1406.00  1421.37  1426.11  1426.28  1426.28  1426.31
eigval :     1428.76  1429.41  1436.09  1448.87  1452.53  1474.86
eigval :     1483.39  1487.46  1488.18  1488.24  1488.50  1488.54
eigval :     1491.56  1491.58  1492.47  1492.95  1492.97  1493.21
eigval :     1497.79  1498.39  1498.71  1500.54  1500.60  1502.14
eigval :     1502.41  1506.51  1507.50  1510.12  1510.15  1511.17
eigval :     1511.19  1515.69  1517.95  1518.56  1518.58  1521.99
eigval :     1523.71  1523.93  1565.10  1565.31  1579.99  1580.14
eigval :     1599.11  1599.35  1605.67  1605.77  1619.55  1620.15
eigval :     3018.87  3018.88  3018.99  3018.99  3020.13  3020.16
eigval :     3020.30  3020.33  3023.23  3023.24  3023.59  3023.60
eigval :     3024.68  3024.72  3025.79  3025.84  3027.29  3027.37
eigval :     3029.47  3029.48  3030.37  3030.39  3033.57  3033.59
eigval :     3036.09  3036.11  3036.39  3036.42  3043.02  3043.05
eigval :     3043.28  3043.29  3046.22  3046.25  3046.55  3046.56
eigval :     3061.44  3061.51  3061.79  3061.96  3065.30  3065.35
eigval :     3067.71  3067.74  3070.77  3070.83  3076.02  3076.03
eigval :     3076.12  3076.17  3079.93  3079.97  3085.80  3085.83
eigval :     3090.14  3090.66  3107.68  3107.69  3128.37  3128.58

   temp. (K)  partition function   enthalpy   heat capacity  entropy
                                   cal/mol     cal/K/mol   cal/K/mol   J/K/mol
 298.15  VIB  0.379E+26            33513.537    205.657    207.744
         ROT  0.636E+08              888.752      2.981     38.687
         INT  0.241E+34            34402.290    208.637    246.431
         TR   0.202E+29             1481.254      4.968     45.731
         TOT                       35883.5436   213.6056   292.1625  1222.4079

       T/K    H(0)-H(T)+PV         H(T)/Eh          T*S/Eh         G(T)/Eh
   ------------------------------------------------------------------------
    298.15    0.571841E-01    0.104691E+01    0.138816E+00    0.908091E+00
   ------------------------------------------------------------------------

         :::::::::::::::::::::::::::::::::::::::::::::::::::::
         ::                  THERMODYNAMIC                  ::
         :::::::::::::::::::::::::::::::::::::::::::::::::::::
         :: total free energy        -154.008255129315 Eh   ::
         ::.................................................::
         :: total energy             -154.916346242349 Eh   ::
         :: zero point energy           0.989722882365 Eh   ::
         :: G(RRHO) w/o ZPVE           -0.081631769331 Eh   ::
         :: G(RRHO) contrib.            0.908091113034 Eh   ::
         :::::::::::::::::::::::::::::::::::::::::::::::::::::

           -------------------------------------------------
          | TOTAL ENERGY             -154.916346242349 Eh   |
          | TOTAL ENTHALPY           -153.869439293369 Eh   |
          | TOTAL FREE ENERGY        -154.008255129315 Eh   |
          | GRADIENT NORM               0.000026412798 Eh/α |
          | HOMO-LUMO GAP               1.451326788129 eV   |
           -------------------------------------------------

 * finished run on 2025/07/16 at 10:51:13.285
