   * xtb version 6.7.1 (edcfbbe) compiled by 'albert@albert-system' on 2024-07-22

   ID    Z sym.   atoms
    1    6 C      1-6, 8-47
    2    7 N      7
    3    1 H      48-80

          program call               : xtb data2507/gas/9CzTPE/9CzTPE.xyz --gfn 2 --ohess vtight --parallel 40 --molden --ceasefiles --namespace data2507/gas/9CzTPE/9CzTPE_gas_S0_preOpt
          :  Hamiltonian                  GFN2-xTB          :
 * total energy  :  -118.2046978 Eh     change       -0.1568253E-08 Eh
 * total energy  :  -118.2165645 Eh     change       -0.1186675E-01 Eh
 * total energy  :  -118.2193859 Eh     change       -0.2821380E-02 Eh
 * total energy  :  -118.2205670 Eh     change       -0.1181126E-02 Eh
 * total energy  :  -118.2220723 Eh     change       -0.1505263E-02 Eh
 * total energy  :  -118.2232017 Eh     change       -0.1129438E-02 Eh
 * total energy  :  -118.2242069 Eh     change       -0.1005205E-02 Eh
 * total energy  :  -118.2251664 Eh     change       -0.9594578E-03 Eh
 * total energy  :  -118.2260391 Eh     change       -0.8726601E-03 Eh
 * total energy  :  -118.2267921 Eh     change       -0.7530782E-03 Eh
 * total energy  :  -118.2298547 Eh     change       -0.7721712E-06 Eh
 * total energy  :  -118.2298554 Eh     change       -0.6936112E-06 Eh
 * total energy  :  -118.2298561 Eh     change       -0.7049315E-06 Eh
 * total energy  :  -118.2298569 Eh     change       -0.8141632E-06 Eh
 * total energy  :  -118.2298577 Eh     change       -0.8334349E-06 Eh
 * total energy  :  -118.2298584 Eh     change       -0.7300166E-06 Eh
 * total energy  :  -118.2298591 Eh     change       -0.6817025E-06 Eh
 * total energy  :  -118.2298600 Eh     change       -0.8844563E-06 Eh
 * total energy  :  -118.2298600 Eh     change       -0.4898496E-08 Eh
   *** GEOMETRY OPTIMIZATION CONVERGED AFTER 94 ITERATIONS ***

 final structure:
================
80
 xtb: 6.7.1 (edcfbbe)
C            0.80101488274500       -0.44654540442821        0.58003297126849
C            1.69211002713776       -0.12590933721304       -0.37102935606947
C            3.13459565193971       -0.15020809685213       -0.24353842548198
C            3.91481472604647        0.12183158609173       -1.37292015012613
C            5.29155897379587        0.11691824388144       -1.31611800411721
C            5.93916772722479       -0.16618188388692       -0.11600965271961
N            7.33741741160842       -0.17545153619610       -0.04939205257450
C            8.18236475183141       -0.85486576618003       -0.90465572764676
C            7.87712186911371       -1.69831750195346       -1.96334859273229
C            8.92678052158631       -2.28162123821168       -2.64666439838410
C           10.25144615207355       -2.04386150569263       -2.28654577598856
C           10.56061228406511       -1.22511213949596       -1.21898584019380
C            9.52272931898201       -0.62731345735699       -0.51637035160385
C            9.47451892583037        0.23893632288210        0.62798677628769
C           10.44946301964364        0.81825843855968        1.42930044494410
C           10.05230380387916        1.64189080809419        2.46347271955952
C            8.70327905685630        1.90314482575653        2.69327265261317
C            7.71499095752007        1.33883863179251        1.90980221833507
C            8.10690093804402        0.48985564916448        0.88456141259589
C            5.17743165103045       -0.43884288621644        1.01847919358971
C            3.80108662177283       -0.42729048136937        0.95429018867268
C           -0.64102257017130       -0.41997269767721        0.45218376324443
C           -1.30889845583999        0.02249612027834       -0.69465230404536
C           -2.68409405184608        0.03953062907179       -0.75475948372876
C           -3.45549755879210       -0.38646808852739        0.32747586257351
C           -4.92315397131498       -0.38671488355645        0.26596584942892
C           -5.62874835788329        0.65472040596842       -0.23101742722544
C           -5.00377141496975        1.94625533841199       -0.56054368669372
C           -5.33193017146538        2.59956289316124       -1.74704366990395
C           -4.76156190388852        3.81941622862393       -2.05832417057946
C           -3.86654063349917        4.41290318986008       -1.18380335408484
C           -3.54913426628640        3.78098891216674        0.00751859094182
C           -4.11255930683921        2.55859555874872        0.31883981825487
C           -7.07835194826076        0.57971845550042       -0.47514652247827
C           -7.64250279175828       -0.51808647652689       -1.12230470305223
C           -9.00185813110737       -0.56641803615136       -1.36408691024010
C           -9.81959222481678        0.47827874755802       -0.96520484055016
C           -9.26703818966112        1.57956780054191       -0.33277290805042
C           -7.90655623532755        1.63453979954539       -0.09605456665465
C           -5.57377744765491       -1.60067794979058        0.78790678220298
C           -6.66059055448029       -1.51666340179635        1.65589853501292
C           -7.24952776434007       -2.66287297920184        2.15407642210124
C           -6.76383587558437       -3.90975762192145        1.79555251005476
C           -5.67584650657390       -4.00375463896237        0.94383987385343
C           -5.07991448422680       -2.85894586410512        0.44930283033625
C           -2.79711096319781       -0.85357859063351        1.46496347394531
C           -1.42114635227533       -0.85932114362870        1.52755168752732
H            1.15434704771570       -0.76956642569341        1.55069063905742
H            1.33838170897315        0.17672409747269       -1.34777262587802
H            3.42512417917835        0.34693234804748       -2.30990827989521
H            5.87572904637178        0.34895053915573       -2.19426582952795
H            6.85357582238673       -1.90386098038673       -2.23849605582056
H            8.71514327934486       -2.94009584927963       -3.47633245930527
H           11.04367538887188       -2.51690256036575       -2.84762169917173
H           11.58641077137392       -1.05381483812267       -0.92915121852176
H           11.49541961985107        0.62893641876173        1.24026889925109
H           10.79434899494927        2.10031136930619        3.10019990240159
H            8.42349417010802        2.56495649297120        3.49978364337909
H            6.67334243831179        1.56275681261735        2.08424967630543
H            5.67645129330843       -0.67481461276589        1.94678735828722
H            3.23706860458891       -0.64054894139965        1.84884978940865
H           -0.74599920780843        0.35980324490231       -1.55118329292075
H           -3.17686563743717        0.37596279669660       -1.65524306195727
H           -6.02899494018508        2.13626631689896       -2.43126501357493
H           -5.01752454625604        4.31035063122230       -2.98615667188038
H           -3.42254164850644        5.36706042822225       -1.42667740467330
H           -2.86111770711020        4.24528526667619        0.69904514669887
H           -3.87266565449505        2.07517249680184        1.25456682045120
H           -7.00643113625485       -1.32902519676203       -1.44560823376430
H           -9.42589482582090       -1.42223171520030       -1.86898750266711
H          -10.88261382490007        0.43665358958656       -1.15162819666530
H           -9.89905068929985        2.39983919372032       -0.02438518048123
H           -7.47634119753718        2.49388634362965        0.39911451546430
H           -7.03456102563116       -0.54596521297029        1.94683121294475
H           -8.09022627085714       -2.58356808894394        2.82791391272582
H           -7.22821725850492       -4.80461534375034        2.18298177010333
H           -5.28925023088706       -4.97342563788598        0.66509666674225
H           -4.23164373732167       -2.93334160762491       -0.21683136075074
H           -3.37815296223185       -1.19680592543253        2.30955765691216
H           -0.93157100497398       -1.21276142822982        2.42459177487262

          :  Hamiltonian                  GFN2-xTB          :
         :: gradient norm              0.000054393238 Eh/a0 ::
         :: HOMO-LUMO gap              2.149050066616 eV    ::
         :: SCC energy              -120.541876460834 Eh    ::
         :: -> dispersion             -0.109077914622 Eh    ::
         :: repulsion energy           2.312016448766 Eh    ::

    * Orbital Energies and Occupations

         #    Occupation            Energy/Eh            Energy/eV
      -------------------------------------------------------------
         1        2.0000           -0.6733969             -18.3241
       ...           ...                  ...                  ...
        99        2.0000           -0.4116945             -11.2028
       100        2.0000           -0.4080737             -11.1043
       101        2.0000           -0.4072618             -11.0822
       102        2.0000           -0.4066554             -11.0657
       103        2.0000           -0.4035049             -10.9799
       104        2.0000           -0.4020988             -10.9417
       105        2.0000           -0.4016976             -10.9307
       106        2.0000           -0.4005417             -10.8993
       107        2.0000           -0.3979001             -10.8274
       108        2.0000           -0.3805801             -10.3561
       109        2.0000           -0.3755078             -10.2181
       110        2.0000           -0.3632211              -9.8837
       111        2.0000           -0.3554023              -9.6710 (HOMO)
       112                         -0.2764262              -7.5219 (LUMO)
       113                         -0.2567082              -6.9854
       114                         -0.2416091              -6.5745
       115                         -0.2292208              -6.2374
       116                         -0.2265155              -6.1638
       117                         -0.2256288              -6.1397
       118                         -0.2223332              -6.0500
       119                         -0.2202753              -5.9940
       120                         -0.2195239              -5.9735
       121                         -0.2187641              -5.9529
       122                         -0.2172532              -5.9118
       ...                                ...                  ...
       221                          0.7491741              20.3861
      -------------------------------------------------------------
                  HL-Gap            0.0789761 Eh            2.1491 eV

     #   Z          covCN         q      C6AA      α(0)
     1   6 C        2.901    -0.038    28.953     8.823
     2   6 C        2.901    -0.040    29.004     8.830
     3   6 C        2.969     0.011    27.760     8.642
     4   6 C        2.929    -0.034    28.858     8.810
     5   6 C        2.919    -0.044    29.084     8.844
     6   6 C        2.913     0.062    26.610     8.459
     7   7 N        2.802    -0.043    22.069     6.977
     8   6 C        3.076     0.047    26.874     8.499
     9   6 C        2.910    -0.051    29.261     8.870
    10   6 C        2.924    -0.034    28.837     8.806
    11   6 C        2.920    -0.041    29.019     8.834
    12   6 C        2.913    -0.033    28.821     8.803
    13   6 C        3.068    -0.017    28.366     8.733
    14   6 C        3.068    -0.017    28.366     8.733
    15   6 C        2.913    -0.033    28.821     8.803
    16   6 C        2.920    -0.041    29.019     8.834
    17   6 C        2.924    -0.034    28.838     8.806
    18   6 C        2.910    -0.051    29.262     8.870
    19   6 C        3.076     0.047    26.874     8.499
    20   6 C        2.920    -0.044    29.081     8.843
    21   6 C        2.923    -0.034    28.837     8.806
    22   6 C        2.970     0.012    27.743     8.640
    23   6 C        2.922    -0.034    28.848     8.808
    24   6 C        2.921    -0.033    28.813     8.803
    25   6 C        2.979     0.014    27.685     8.631
    26   6 C        2.967    -0.006    28.173     8.706
    27   6 C        2.968    -0.006    28.168     8.706
    28   6 C        2.978     0.015    27.662     8.627
    29   6 C        2.925    -0.032    28.807     8.802
    30   6 C        2.918    -0.030    28.745     8.792
    31   6 C        2.920    -0.031    28.776     8.797
    32   6 C        2.919    -0.029    28.734     8.790
    33   6 C        2.924    -0.032    28.792     8.800
    34   6 C        2.979     0.015    27.663     8.628
    35   6 C        2.924    -0.032    28.794     8.800
    36   6 C        2.919    -0.029    28.734     8.790
    37   6 C        2.920    -0.031    28.775     8.797
    38   6 C        2.918    -0.030    28.745     8.792
    39   6 C        2.925    -0.032    28.805     8.801
    40   6 C        2.979     0.015    27.664     8.628
    41   6 C        2.924    -0.032    28.794     8.800
    42   6 C        2.919    -0.029    28.734     8.790
    43   6 C        2.920    -0.031    28.776     8.797
    44   6 C        2.918    -0.030    28.746     8.792
    45   6 C        2.925    -0.032    28.806     8.802
    46   6 C        2.921    -0.033    28.829     8.805
    47   6 C        2.927    -0.035    28.875     8.812
    48   1 H        0.925     0.035     2.519     2.482
    49   1 H        0.925     0.036     2.509     2.477
    50   1 H        0.926     0.035     2.517     2.481
    51   1 H        0.926     0.039     2.457     2.451
    52   1 H        0.926     0.027     2.625     2.534
    53   1 H        0.926     0.028     2.610     2.526
    54   1 H        0.926     0.027     2.624     2.533
    55   1 H        0.926     0.030     2.581     2.512
    56   1 H        0.926     0.030     2.581     2.512
    57   1 H        0.926     0.027     2.624     2.533
    58   1 H        0.926     0.028     2.610     2.526
    59   1 H        0.926     0.027     2.625     2.534
    60   1 H        0.926     0.040     2.454     2.450
    61   1 H        0.926     0.038     2.481     2.463
    62   1 H        0.926     0.032     2.558     2.501
    63   1 H        0.926     0.029     2.595     2.519
    64   1 H        0.926     0.028     2.615     2.529
    65   1 H        0.926     0.029     2.599     2.521
    66   1 H        0.926     0.029     2.597     2.520
    67   1 H        0.926     0.029     2.598     2.520
    68   1 H        0.926     0.028     2.610     2.526
    69   1 H        0.926     0.029     2.606     2.524
    70   1 H        0.926     0.029     2.598     2.520
    71   1 H        0.926     0.029     2.597     2.520
    72   1 H        0.926     0.029     2.599     2.521
    73   1 H        0.926     0.028     2.617     2.530
    74   1 H        0.926     0.029     2.606     2.525
    75   1 H        0.926     0.029     2.598     2.520
    76   1 H        0.926     0.029     2.597     2.520
    77   1 H        0.926     0.029     2.600     2.521
    78   1 H        0.926     0.028     2.620     2.531
    79   1 H        0.926     0.028     2.609     2.526
    80   1 H        0.925     0.029     2.595     2.519

molecular dipole:
                 x           y           z       tot (Debye)
 q only:       -0.625       0.010      -0.019
   full:       -0.703       0.010      -0.022       1.788

 projected vibrational frequencies (cm⁻¹)
eigval :       -0.00    -0.00     0.00     0.00     0.00     0.00
eigval :        2.47     8.50    16.23    19.95    27.50    35.54
eigval :       44.59    50.53    55.22    60.29    62.77    67.58
eigval :       68.95    71.07    77.03    82.82    92.01   105.76
eigval :      139.53   145.26   153.33   165.58   186.32   201.79
eigval :      210.31   225.39   241.20   247.16   259.33   271.54
eigval :      279.24   285.40   312.76   322.71   363.14   370.88
eigval :      373.19   374.74   376.90   378.23   381.35   387.63
eigval :      400.66   421.77   424.60   436.92   448.79   457.56
eigval :      466.57   494.59   517.34   522.16   534.45   539.96
eigval :      541.17   556.55   580.28   581.61   585.03   589.40
eigval :      593.35   595.17   599.94   613.21   618.07   624.99
eigval :      639.58   669.01   673.00   673.89   676.06   680.78
eigval :      683.54   698.27   704.48   711.72   749.78   756.81
eigval :      759.34   762.50   769.28   773.86   780.75   813.55
eigval :      821.10   828.60   851.05   860.96   862.75   865.63
eigval :      873.10   874.33   877.29   877.90   878.05   895.70
eigval :      897.86   901.52   901.88   902.45   902.87   903.07
eigval :      915.37   917.00   920.24   925.17   925.36   929.77
eigval :      930.02   930.12   931.29   931.61   931.85   932.22
eigval :      942.68   944.95   981.40   986.66   993.41  1011.00
eigval :     1012.11  1019.55  1033.66  1070.33  1073.81  1084.09
eigval :     1084.95  1085.81  1118.33  1121.82  1122.67  1124.10
eigval :     1137.85  1146.02  1152.93  1165.07  1177.01  1181.42
eigval :     1182.06  1182.10  1182.13  1184.02  1193.65  1198.94
eigval :     1199.49  1201.42  1204.56  1218.48  1232.87  1236.91
eigval :     1246.58  1252.69  1269.61  1276.87  1281.31  1282.81
eigval :     1284.32  1292.50  1299.65  1301.88  1303.26  1311.29
eigval :     1315.67  1317.88  1319.40  1322.07  1336.50  1344.63
eigval :     1357.95  1362.34  1371.27  1408.98  1413.87  1428.45
eigval :     1429.90  1431.18  1431.98  1432.35  1466.92  1474.41
eigval :     1476.32  1476.42  1484.91  1488.48  1497.89  1550.18
eigval :     1555.87  1572.24  1575.00  1578.00  1578.82  1579.93
eigval :     1588.26  1589.24  1594.63  1595.32  1598.89  1599.75
eigval :     1612.62  1615.07  1641.46  3054.06  3062.98  3066.91
eigval :     3069.16  3069.27  3069.99  3072.82  3072.87  3073.01
eigval :     3073.34  3075.49  3075.86  3078.27  3079.40  3079.64
eigval :     3079.99  3080.69  3081.44  3081.89  3085.41  3085.92
eigval :     3086.05  3086.71  3088.10  3089.56  3091.46  3092.18
eigval :     3092.59  3092.83  3094.74  3096.23  3096.37  3100.07

   temp. (K)  partition function   enthalpy   heat capacity  entropy
                                   cal/mol     cal/K/mol   cal/K/mol   J/K/mol
 298.15  VIB  0.842E+19            22456.468    140.442    143.637
         ROT  0.119E+09              888.752      2.981     39.929
         INT  0.100E+28            23345.220    143.423    183.566
         TR   0.142E+29             1481.254      4.968     45.037
         TOT                       24826.4741   148.3908   228.6032   956.4758

       T/K    H(0)-H(T)+PV         H(T)/Eh          T*S/Eh         G(T)/Eh
   ------------------------------------------------------------------------
    298.15    0.395635E-01    0.666742E+00    0.108617E+00    0.558125E+00
   ------------------------------------------------------------------------

         :::::::::::::::::::::::::::::::::::::::::::::::::::::
         ::                  THERMODYNAMIC                  ::
         :::::::::::::::::::::::::::::::::::::::::::::::::::::
         :: total free energy        -117.671734745145 Eh   ::
         ::.................................................::
         :: total energy             -118.229860012067 Eh   ::
         :: zero point energy           0.627178515699 Eh   ::
         :: G(RRHO) w/o ZPVE           -0.069053248777 Eh   ::
         :: G(RRHO) contrib.            0.558125266922 Eh   ::
         :::::::::::::::::::::::::::::::::::::::::::::::::::::

           -------------------------------------------------
          | TOTAL ENERGY             -118.229860012067 Eh   |
          | TOTAL ENTHALPY           -117.563117991557 Eh   |
          | TOTAL FREE ENERGY        -117.671734745145 Eh   |
          | GRADIENT NORM               0.000054390028 Eh/α |
          | HOMO-LUMO GAP               2.149050282733 eV   |
           -------------------------------------------------

 * finished run on 2025/08/24 at 17:50:47.641
