   * xtb version 6.7.1 (edcfbbe) compiled by 'albert@albert-system' on 2024-07-22

   ID    Z sym.   atoms
    1    6 C      1-6, 8-47
    2    7 N      7
    3    1 H      48-80

          program call               : xtb data2507/gas/9CzTPE/9CzTPE_gas_S0_finalOpt.xtbopt.xyz --gfn 2 --spinpol --tblite --uhf 2 --ohess vtight --parallel 40 --molden --ceasefiles --namespace data2507/gas/9CzTPE/9CzTPE_gas_T1_preOpt
 * total energy  :  -118.1507682 Eh     change       -0.8646796E-07 Eh
 * total energy  :  -118.1586224 Eh     change       -0.7854226E-02 Eh
 * total energy  :  -118.1612933 Eh     change       -0.2670838E-02 Eh
 * total energy  :  -118.1617463 Eh     change       -0.4529939E-03 Eh
 * total energy  :  -118.1623762 Eh     change       -0.6299506E-03 Eh
 * total energy  :  -118.1628970 Eh     change       -0.5208295E-03 Eh
 * total energy  :  -118.1635803 Eh     change       -0.6832804E-03 Eh
 * total energy  :  -118.1643257 Eh     change       -0.7454149E-03 Eh
 * total energy  :  -118.1649290 Eh     change       -0.6032712E-03 Eh
 * total energy  :  -118.1653100 Eh     change       -0.3810322E-03 Eh
 * total energy  :  -118.1704937 Eh     change       -0.7155021E-06 Eh
 * total energy  :  -118.1704943 Eh     change       -0.6403204E-06 Eh
 * total energy  :  -118.1704948 Eh     change       -0.5503503E-06 Eh
 * total energy  :  -118.1704953 Eh     change       -0.4740344E-06 Eh
 * total energy  :  -118.1704960 Eh     change       -0.6770903E-06 Eh
 * total energy  :  -118.1704967 Eh     change       -0.6567763E-06 Eh
 * total energy  :  -118.1704975 Eh     change       -0.8694788E-06 Eh
 * total energy  :  -118.1704983 Eh     change       -0.8051526E-06 Eh
 * total energy  :  -118.1704983 Eh     change       -0.1833993E-07 Eh
   *** GEOMETRY OPTIMIZATION CONVERGED AFTER 122 ITERATIONS ***

 final structure:
================
80
 xtb: 6.7.1 (edcfbbe)
C            0.60930710250821       -0.71826283386682        0.36544371790655
C            1.45459875660716        0.07211262911117       -0.33592977570234
C            2.89374402232839        0.02302644865845       -0.31093459993607
C            3.61464182263111        0.92579449342760       -1.10630253916052
C            4.99097220072692        0.93491562956648       -1.12148267736839
C            5.70490487292218        0.02951290083101       -0.33816045124168
N            7.10412412474791        0.03241295960811       -0.34711970983133
C            7.90580272490528        0.01855249388578       -1.47165133838965
C            7.54946051177845       -0.05516396417663       -2.81075467541045
C            8.56443113224565       -0.08426566001800       -3.74783365132531
C            9.90501729913520       -0.05048337433169       -3.37029023571809
C           10.26613732769468       -0.00267871870207       -2.03868202300900
C            9.26390307108566        0.02751359059567       -1.07820200959263
C            9.27254509228115        0.05452127562035        0.35763634372908
C           10.28614586406393        0.09239786173348        1.30584599258681
C            9.94093382292472        0.13695024858614        2.64177844195241
C            8.60483343124940        0.16029892658173        3.03562555774345
C            7.57876922955420        0.12373048335781        2.11097193503089
C            7.91932054175286        0.05287917883006        0.76760083516793
C            5.00560503405109       -0.87902620645219        0.45554233403771
C            3.62904875835796       -0.87945634419624        0.46965981894899
C           -0.81961759366015       -0.66657586828236        0.34539159670373
C           -1.56520321301135        0.24067651658523       -0.43527489132972
C           -2.92917063591797        0.25501664815447       -0.40447164590456
C           -3.66853629656229       -0.65716287980205        0.39412453078394
C           -5.07586027474133       -0.60257852913473        0.44221765761168
C           -5.77505769135993        0.61586692710019        0.00539000348328
C           -5.38863057772107        1.87187715982956        0.57181777668057
C           -5.57194935082565        3.08580911777640       -0.11962108663839
C           -5.15357542715278        4.27968625757036        0.42419349881150
C           -4.54337013394404        4.31266699361963        1.67074683991663
C           -4.34077564737679        3.12609810943300        2.36285846671851
C           -4.74650288396089        1.92615145647152        1.82486742352497
C           -6.83378498436216        0.47771906592583       -0.94981148449859
C           -6.84317961817085       -0.60499934537035       -1.85000474312880
C           -7.87103293196911       -0.77022404267161       -2.75021164714463
C           -8.93288446020108        0.12393923361633       -2.77750447926011
C           -8.95454436578154        1.18513727621646       -1.88325137390931
C           -7.92617541896630        1.36509594926973       -0.98485148846506
C           -5.89834415384419       -1.69245927521772        0.91203183726118
C           -7.12623686187479       -1.43138071661546        1.54027657279325
C           -7.94029199485864       -2.46082948394098        1.95956816103119
C           -7.56639541558515       -3.78047690833652        1.75025217799518
C           -6.36836246403989       -4.05750325234205        1.10899997629245
C           -5.54291334784847       -3.03318798883244        0.69578687504227
C           -2.91474435600677       -1.56556863902245        1.18202699387315
C           -1.54982161880379       -1.55847497125444        1.15877326373880
H            1.02249829725768       -1.47612391195023        1.01866192809745
H            1.04387873991479        0.82971000203106       -0.98989664934530
H            3.07403238742397        1.63762953999504       -1.71406506132663
H            5.52609643967971        1.65397096868766       -1.72391634652740
H            6.51413080448838       -0.10127858671192       -3.11318440280094
H            8.31250396876558       -0.13862527197962       -4.79677026923409
H           10.66880421958284       -0.07231076003574       -4.13341298286205
H           11.30495772339980        0.00614066836644       -1.74475631253417
H           11.32133977350530        0.09191916925238        0.99928190576152
H           10.71377339821586        0.16437702925310        3.39554806137176
H            8.36526132727885        0.21234855366832        4.08757137791601
H            6.54690388475835        0.16215195530403        2.42602972204043
H            5.55527974927819       -1.59623213616169        1.04721334739230
H            3.11614922767251       -1.59772853310888        1.08995453845712
H           -1.05020708797700        0.94082706479095       -1.07507784078718
H           -3.47070531206974        0.95310786871840       -1.02587831207704
H           -6.00226680675698        3.06889310668254       -1.11017924799959
H           -5.29403835819968        5.19704310431914       -0.12964654521942
H           -4.22052961956790        5.25199668492169        2.09377683117656
H           -3.86162296647898        3.14377070220694        3.33113888838471
H           -4.59743550926871        1.01001102577979        2.37747410077496
H           -6.01326648831304       -1.29641848153370       -1.84588850999020
H           -7.85031876850949       -1.60139583217763       -3.44029071755379
H           -9.73990119939464       -0.01035033147861       -3.48197742386987
H           -9.78903944579785        1.87187862533594       -1.88443528133977
H           -7.97821610586767        2.16756707510613       -0.26371243851098
H           -7.41854201728529       -0.40609028013192        1.71571494044761
H           -8.87529477898171       -2.23777847169826        2.45285150113025
H           -8.20808902125412       -4.58584387665596        2.07493068741283
H           -6.08169367180309       -5.08273984433029        0.92306535526359
H           -4.63404606476246       -3.25992134827894        0.15759345150249
H           -3.43502451962293       -2.23264232205911        1.85337238957107
H           -1.00489677779976       -2.24765738058062        1.78985037346179

 projected vibrational frequencies (cm⁻¹)
eigval :       -0.00    -0.00    -0.00    -0.00     0.00     0.00
eigval :        4.61     7.43    12.20    17.66    26.41    30.80
eigval :       42.31    47.86    55.30    59.21    63.40    70.27
eigval :       74.81    88.19    92.43    94.11   100.52   107.81
eigval :      138.16   145.44   162.97   180.14   194.74   202.71
eigval :      205.16   215.05   239.39   260.12   270.72   271.91
eigval :      287.73   294.40   303.54   323.37   351.84   367.11
eigval :      368.81   377.96   379.07   384.68   387.41   389.89
eigval :      391.65   403.31   423.09   435.69   440.56   452.66
eigval :      461.92   468.73   502.84   514.81   519.37   534.18
eigval :      535.75   540.89   578.69   580.28   583.74   586.28
eigval :      587.47   594.09   596.07   610.01   616.29   618.37
eigval :      621.85   658.59   660.41   666.01   673.01   674.53
eigval :      679.50   689.66   704.18   711.63   746.40   748.76
eigval :      752.72   756.78   769.16   773.25   780.51   811.84
eigval :      817.84   821.99   841.40   848.70   857.74   858.94
eigval :      866.63   869.11   871.50   872.78   873.39   885.38
eigval :      896.13   897.52   898.92   901.71   902.28   903.58
eigval :      911.80   916.41   919.73   920.78   923.53   924.66
eigval :      924.74   924.93   926.48   928.56   930.87   941.55
eigval :      942.07   943.97   964.56   971.06   983.84   992.99
eigval :     1005.46  1011.82  1017.66  1070.40  1074.09  1080.34
eigval :     1080.87  1082.53  1105.54  1118.05  1121.73  1125.29
eigval :     1132.36  1137.79  1148.31  1152.60  1173.01  1177.03
eigval :     1180.00  1180.38  1180.86  1181.25  1183.36  1192.81
eigval :     1196.08  1197.71  1207.16  1222.31  1236.46  1237.38
eigval :     1247.50  1252.56  1268.83  1274.25  1275.28  1279.75
eigval :     1287.31  1295.25  1300.66  1302.19  1311.72  1313.65
eigval :     1317.07  1324.28  1325.92  1328.26  1339.88  1344.27
eigval :     1357.61  1359.77  1361.79  1372.53  1412.90  1420.68
eigval :     1426.82  1427.53  1430.79  1431.17  1439.37  1446.09
eigval :     1449.75  1454.88  1468.59  1475.48  1483.03  1488.88
eigval :     1493.78  1512.54  1542.14  1545.41  1547.51  1554.12
eigval :     1568.84  1574.34  1578.37  1580.00  1588.08  1589.11
eigval :     1598.03  1611.87  1614.83  3052.78  3060.69  3066.62
eigval :     3070.08  3070.63  3070.90  3072.45  3072.67  3072.90
eigval :     3072.99  3075.96  3076.31  3080.22  3081.06  3081.80
eigval :     3082.45  3082.96  3084.34  3084.61  3084.90  3085.95
eigval :     3086.72  3087.46  3088.48  3090.22  3091.22  3093.17
eigval :     3093.26  3094.33  3094.49  3094.57  3096.99  3100.07

   temp. (K)  partition function   enthalpy   heat capacity  entropy
                                   cal/mol     cal/K/mol   cal/K/mol   J/K/mol
 298.15  VIB  0.532E+19            22494.518    141.474    142.738
         ROT  0.122E+09              888.752      2.981     39.987
         INT  0.651E+27            23383.270    144.455    182.726
         TR   0.142E+29             1481.254      4.968     45.037
         TOT                       24864.5243   149.4227   227.7629   952.9598

       T/K    H(0)-H(T)+PV         H(T)/Eh          T*S/Eh         G(T)/Eh
   ------------------------------------------------------------------------
    298.15    0.396241E-01    0.664369E+00    0.108217E+00    0.556152E+00
   ------------------------------------------------------------------------

         :::::::::::::::::::::::::::::::::::::::::::::::::::::
         ::                  THERMODYNAMIC                  ::
         :::::::::::::::::::::::::::::::::::::::::::::::::::::
         :: total free energy        -117.614346624595 Eh   ::
         ::.................................................::
         :: total energy             -118.170498350542 Eh   ::
         :: zero point energy           0.624745072258 Eh   ::
         :: G(RRHO) w/o ZPVE           -0.068593346310 Eh   ::
         :: G(RRHO) contrib.            0.556151725948 Eh   ::
         :::::::::::::::::::::::::::::::::::::::::::::::::::::

           -------------------------------------------------
          | TOTAL ENERGY             -118.170498350542 Eh   |
          | TOTAL ENTHALPY           -117.506129136635 Eh   |
          | TOTAL FREE ENERGY        -117.614346624595 Eh   |
          | GRADIENT NORM               0.000047639253 Eh/α |
           -------------------------------------------------

 * finished run on 2025/08/24 at 17:56:31.225
