   * xtb version 6.7.1 (edcfbbe) compiled by 'albert@albert-system' on 2024-07-22

   ID    Z sym.   atoms
    1    6 C      1-6, 8-47
    2    7 N      7
    3    1 H      48-80

          program call               : xtb data2507/gas/9CzTPE/9CzTPE_gas_T1_crest.xyz --gfn 2 --spinpol --tblite --uhf 2 --ohess vtight --parallel 40 --molden --ceasefiles --namespace data2507/gas/9CzTPE/9CzTPE_gas_T1_finalOpt
 * total energy  :  -118.1702247 Eh     change        0.5246292E-08 Eh
 * total energy  :  -118.1702672 Eh     change       -0.4252067E-04 Eh
 * total energy  :  -118.1702856 Eh     change       -0.1842592E-04 Eh
 * total energy  :  -118.1702900 Eh     change       -0.4438889E-05 Eh
 * total energy  :  -118.1702950 Eh     change       -0.4929674E-05 Eh
 * total energy  :  -118.1703006 Eh     change       -0.5581202E-05 Eh
 * total energy  :  -118.1703093 Eh     change       -0.8773181E-05 Eh
 * total energy  :  -118.1703209 Eh     change       -0.1155287E-04 Eh
 * total energy  :  -118.1703305 Eh     change       -0.9600045E-05 Eh
 * total energy  :  -118.1703393 Eh     change       -0.8839746E-05 Eh
 * total energy  :  -118.1704739 Eh     change       -0.5030510E-06 Eh
 * total energy  :  -118.1704745 Eh     change       -0.5957453E-06 Eh
 * total energy  :  -118.1704752 Eh     change       -0.6855118E-06 Eh
 * total energy  :  -118.1704758 Eh     change       -0.6110979E-06 Eh
 * total energy  :  -118.1704763 Eh     change       -0.5686813E-06 Eh
 * total energy  :  -118.1704771 Eh     change       -0.7791101E-06 Eh
 * total energy  :  -118.1704780 Eh     change       -0.8744107E-06 Eh
 * total energy  :  -118.1704790 Eh     change       -0.9666726E-06 Eh
 * total energy  :  -118.1704790 Eh     change       -0.5070214E-07 Eh
   *** GEOMETRY OPTIMIZATION CONVERGED AFTER 44 ITERATIONS ***

 final structure:
================
80
 xtb: 6.7.1 (edcfbbe)
C            0.59111253055559       -0.82560193697559        0.08279036998565
C            1.45966269266566        0.13263724282276       -0.31625191542032
C            2.89712093857208        0.05355669162908       -0.28264086965051
C            3.64536195999782        1.15705376208761       -0.71844198518606
C            5.02157718684282        1.15017861277920       -0.69660024423880
C            5.70809896138394        0.02635467888049       -0.23961387525048
N            7.10686570515971        0.01307083408389       -0.20786421362633
C            7.94399915877716        0.36633586000385       -1.24791441353554
C            7.63043434387586        0.74788604641295       -2.54471827824439
C            8.67468622518381        1.02341916513080       -3.40654056885706
C           10.00254591223808        0.91524372363397       -2.99921515131625
C           10.32114663837576        0.51107714880638       -1.71817429812361
C            9.28888993835273        0.22892097776002       -0.83345864616584
C            9.25175107136666       -0.22424753181785        0.52882061154482
C           10.23444728491112       -0.51499190173141        1.46569741648789
C            9.84663332604091       -0.91303654602244        2.72945157915976
C            8.49864223255690       -1.00689304297364        3.06843326770453
C            7.50275315885698       -0.72293802734799        2.15373702864717
C            7.88613432459744       -0.34737089599174        0.87405472187608
C            4.98156453383901       -1.08418177585539        0.18866721040202
C            3.60521928450262       -1.06852234297696        0.16935573167477
C           -0.83606457534898       -0.74393625417286        0.06406388273903
C           -1.55678795042283        0.37701412594396       -0.39736059866697
C           -2.92052698809224        0.40760262684959       -0.37342780198644
C           -3.68518858351464       -0.69422718611276        0.09392307218161
C           -5.09150265233314       -0.62940228003390        0.15326630591838
C           -5.76588657252041        0.67704952147137        0.12271825716157
C           -5.34846563424384        1.69027054779763        1.04326515138760
C           -5.50593611093405        3.06116352213777        0.75826096587371
C           -5.05549821442965        4.02230920287934        1.63539277758159
C           -4.43824688784111        3.65939440986467        2.82479285818464
C           -4.26250530544121        2.31393796769172        3.11945068526229
C           -4.70038951425903        1.34492836367909        2.24580005783358
C           -6.83329554680640        0.86207579655029       -0.81491848763419
C           -6.87254957715988        0.11306540896686       -2.00659908753240
C           -7.91028827288829        0.25440831704961       -2.89949708281842
C           -8.95261516288382        1.13226697511797       -2.63360940629577
C           -8.94442486016104        1.86404811870328       -1.45430660462770
C           -7.90596931146216        1.73708653705637       -0.55847864096709
C           -5.93575001408095       -1.79706816550554        0.25339308892832
C           -7.16105045627155       -1.72796662939639        0.93458117526995
C           -7.99481612679018       -2.82263201978602        1.00509923097973
C           -7.64354512075405       -4.01302460220698        0.38495987711910
C           -6.44792871210744       -4.09268151571363       -0.31314488194451
C           -5.60292130103291       -3.00505939883845       -0.37943267909821
C           -2.95627041135917       -1.82028860437093        0.55813159455536
C           -1.59146317968386       -1.83320398718938        0.54748099380546
H            0.98257011270296       -1.75955172606088        0.46526425366214
H            1.07116141950455        1.06751910698697       -0.69754379239624
H            3.12613625355728        2.03801534448355       -1.06864550829078
H            5.57746601363778        2.02021407856975       -1.01336632297186
H            6.60523666852069        0.81604547740794       -2.87609301827509
H            8.45627811318627        1.32574128597060       -4.42024086084613
H           10.79024366360074        1.14238535886315       -3.70215959173536
H           11.35012503844175        0.41049034567022       -1.40722380982251
H           11.27896393070556       -0.42510957842701        1.20782612745312
H           10.59495590866286       -1.14615836879069        3.47232327953520
H            8.22551695374010       -1.30421355948390        4.07028207400245
H            6.46133118715049       -0.77957092666030        2.43248831993083
H            5.51032787231715       -1.96552338296110        0.52071470584147
H            3.07108169471158       -1.94463881452088        0.50230729188856
H           -1.02214175378613        1.23242938280253       -0.78108308284341
H           -3.44221226924458        1.27592187806126       -0.74830319980409
H           -5.94171337036692        3.35709514997315       -0.18471851488332
H           -5.17603614677772        5.06786500909215        1.38984333840546
H           -4.08965336964699        4.41722708495288        3.51014147563940
H           -3.77882901365673        2.02435919642841        4.04122173065321
H           -4.57209949977037        0.30077855899322        2.49105993388516
H           -6.05782852661652       -0.56040886905790       -2.22890391935710
H           -7.91263137214363       -0.32178232845233       -3.81353864664006
H           -9.76751495735891        1.23809088629854       -3.33384501321945
H           -9.76349754282569        2.53289659784080       -1.23126723852674
H           -7.93493047922471        2.27732748964082        0.37642620041619
H           -7.43590978202687       -0.80719919197028        1.42860356715741
H           -8.92759839878375       -2.75185161308207        1.54565780764160
H           -8.30065508324535       -4.86819836643475        0.43691594619895
H           -6.17848988005649       -5.01009685723006       -0.81673665074482
H           -4.69570508734098       -3.06463495280538       -0.96301067482424
H           -3.49593307831422       -2.65497535406994        0.98055088255352
H           -1.06609927490608       -2.69710849481639        0.93197159245987

 projected vibrational frequencies (cm⁻¹)
eigval :       -0.00    -0.00    -0.00     0.00     0.00     0.00
eigval :        5.27     7.49    12.43    17.55    26.73    30.84
eigval :       42.52    48.25    55.89    59.22    63.42    70.54
eigval :       75.10    88.66    92.80    94.38   101.06   107.90
eigval :      138.51   145.73   163.48   180.96   194.85   202.88
eigval :      205.46   215.11   239.62   260.31   270.61   271.98
eigval :      287.79   294.70   303.46   323.42   351.31   367.27
eigval :      368.96   378.46   379.33   384.64   387.45   390.15
eigval :      391.66   403.51   423.24   435.97   440.85   452.60
eigval :      462.11   468.60   502.75   514.78   519.35   534.21
eigval :      535.84   540.96   578.73   580.24   583.74   586.33
eigval :      587.49   594.10   595.99   610.06   616.24   618.38
eigval :      621.82   658.74   660.41   666.15   673.03   674.56
eigval :      680.05   689.61   704.22   711.59   746.36   748.77
eigval :      752.78   756.73   769.31   773.40   780.73   811.98
eigval :      817.97   822.23   841.32   848.63   857.91   858.99
eigval :      866.66   869.18   871.63   872.99   873.68   885.48
eigval :      896.30   897.34   898.84   901.94   902.51   903.23
eigval :      912.09   916.66   920.00   920.86   923.59   924.72
eigval :      924.82   925.25   926.53   928.69   931.10   941.64
eigval :      941.88   943.92   964.33   971.28   983.98   992.86
eigval :     1005.32  1011.80  1017.48  1070.32  1074.03  1080.41
eigval :     1080.91  1082.29  1104.21  1118.08  1121.67  1125.10
eigval :     1131.96  1137.75  1148.21  1152.61  1172.56  1177.00
eigval :     1180.05  1180.46  1180.93  1181.27  1183.37  1192.98
eigval :     1196.00  1197.85  1207.29  1222.26  1236.47  1237.35
eigval :     1247.58  1252.56  1268.81  1274.34  1275.29  1279.82
eigval :     1287.32  1294.84  1300.39  1301.96  1311.93  1313.73
eigval :     1316.99  1324.24  1325.79  1328.29  1339.98  1344.51
eigval :     1357.50  1359.87  1361.68  1372.47  1412.42  1420.40
eigval :     1426.42  1427.13  1430.60  1430.87  1439.38  1446.67
eigval :     1449.71  1454.76  1467.71  1475.17  1482.04  1488.20
eigval :     1493.53  1511.41  1541.79  1545.04  1547.02  1554.08
eigval :     1568.50  1574.18  1578.16  1579.83  1587.92  1588.92
eigval :     1597.72  1611.38  1614.49  3052.65  3060.57  3066.79
eigval :     3070.01  3070.52  3070.83  3072.48  3072.72  3072.89
eigval :     3072.97  3075.89  3076.25  3080.41  3081.08  3081.63
eigval :     3082.37  3083.01  3084.38  3084.57  3084.68  3086.01
eigval :     3086.65  3087.24  3088.44  3090.08  3091.04  3093.03
eigval :     3093.20  3094.31  3094.33  3094.59  3096.78  3099.98

   temp. (K)  partition function   enthalpy   heat capacity  entropy
                                   cal/mol     cal/K/mol   cal/K/mol   J/K/mol
 298.15  VIB  0.428E+19            22483.628    141.498    142.490
         ROT  0.122E+09              888.752      2.981     39.980
         INT  0.521E+27            23372.381    144.479    182.470
         TR   0.142E+29             1481.254      4.968     45.037
         TOT                       24853.6346   149.4472   227.5070   951.8895

       T/K    H(0)-H(T)+PV         H(T)/Eh          T*S/Eh         G(T)/Eh
   ------------------------------------------------------------------------
    298.15    0.396068E-01    0.664351E+00    0.108096E+00    0.556255E+00
   ------------------------------------------------------------------------

         :::::::::::::::::::::::::::::::::::::::::::::::::::::
         ::                  THERMODYNAMIC                  ::
         :::::::::::::::::::::::::::::::::::::::::::::::::::::
         :: total free energy        -117.614223684924 Eh   ::
         ::.................................................::
         :: total energy             -118.170478982698 Eh   ::
         :: zero point energy           0.624744449709 Eh   ::
         :: G(RRHO) w/o ZPVE           -0.068489151935 Eh   ::
         :: G(RRHO) contrib.            0.556255297774 Eh   ::
         :::::::::::::::::::::::::::::::::::::::::::::::::::::

           -------------------------------------------------
          | TOTAL ENERGY             -118.170478982698 Eh   |
          | TOTAL ENTHALPY           -117.506127745223 Eh   |
          | TOTAL FREE ENERGY        -117.614223684924 Eh   |
          | GRADIENT NORM               0.000097626919 Eh/α |
           -------------------------------------------------

 * finished run on 2025/08/24 at 18:01:11.640
