   * xtb version 6.7.1 (edcfbbe) compiled by 'albert@albert-system' on 2024-07-22

   ID    Z sym.   atoms
    1    6 C      1-6, 8-47
    2    7 N      7
    3    1 H      48-80

          program call               : xtb data2507/gas/9CzTPE/9CzTPE_gas_S0_crest.xyz --gfn 2 --ohess vtight --parallel 40 --molden --ceasefiles --namespace data2507/gas/9CzTPE/9CzTPE_gas_S0_finalOpt
          :  Hamiltonian                  GFN2-xTB          :
 * total energy  :  -118.2298760 Eh     change       -0.2590070E-08 Eh
 * total energy  :  -118.2298773 Eh     change       -0.1235813E-05 Eh
 * total energy  :  -118.2298787 Eh     change       -0.1409006E-05 Eh
 * total energy  :  -118.2298824 Eh     change       -0.3738299E-05 Eh
 * total energy  :  -118.2298846 Eh     change       -0.2231910E-05 Eh
 * total energy  :  -118.2298853 Eh     change       -0.6696109E-06 Eh
 * total energy  :  -118.2298859 Eh     change       -0.6050079E-06 Eh
 * total energy  :  -118.2298871 Eh     change       -0.1180484E-05 Eh
 * total energy  :  -118.2298884 Eh     change       -0.1340868E-05 Eh
 * total energy  :  -118.2298894 Eh     change       -0.9345918E-06 Eh
 * total energy  :  -118.2298924 Eh     change       -0.6552318E-06 Eh
 * total energy  :  -118.2298929 Eh     change       -0.5488194E-06 Eh
 * total energy  :  -118.2298935 Eh     change       -0.5528888E-06 Eh
 * total energy  :  -118.2298940 Eh     change       -0.5735746E-06 Eh
 * total energy  :  -118.2298945 Eh     change       -0.4792614E-06 Eh
 * total energy  :  -118.2298948 Eh     change       -0.3279488E-06 Eh
 * total energy  :  -118.2298951 Eh     change       -0.2508975E-06 Eh
 * total energy  :  -118.2298954 Eh     change       -0.2890579E-06 Eh
 * total energy  :  -118.2298954 Eh     change       -0.2201773E-08 Eh
   *** GEOMETRY OPTIMIZATION CONVERGED AFTER 22 ITERATIONS ***

 final structure:
================
80
 xtb: 6.7.1 (edcfbbe)
C            0.60657166195239       -0.61615281879489        0.39294558636285
C            1.48807274333703        0.06555011193756       -0.35528695136792
C            2.93145971273966        0.01487302019717       -0.24814232082181
C            3.69851113851679        0.79820804887816       -1.11789617073460
C            5.07547064327474        0.79561858961558       -1.06619589891524
C            5.73724596829984       -0.00424226302236       -0.13771706002224
N            7.13588055626226       -0.01744722024035       -0.08128943697728
C            7.98630708348233       -0.19819668327297       -1.15431161385106
C            7.68843891258504       -0.44881143835831       -2.48619767318388
C            8.74327258690880       -0.62134800912314       -3.36172923030455
C           10.06612552460124       -0.55684593937918       -2.92951993310240
C           10.36847420492529       -0.33234445094162       -1.60144754505108
C            9.32529655792538       -0.15542829682997       -0.70218079366775
C            9.27042776464020        0.06909983351349        0.71512605413530
C           10.24113547783822        0.22185293012223        1.69624580624427
C            9.83746846555025        0.45503188724655        2.99558492939557
C            8.48584086988482        0.55195400603784        3.31905696144742
C            7.50168066802496        0.40362765212068        2.36070544188547
C            7.90059309611287        0.14415368961240        1.05723376752485
C            4.98889145853592       -0.79263219462725        0.73419490129549
C            3.61216221855672       -0.77907153170446        0.68048481268205
C           -0.83632437959657       -0.56489731808365        0.28425095113436
C           -1.51544028868437        0.20048140420167       -0.66980759971272
C           -2.89107261471536        0.21858630731082       -0.71920204175353
C           -3.65205059755344       -0.52797789320300        0.18161459899262
C           -5.11989791551631       -0.52986583489716        0.12398785662342
C           -5.84193220737889        0.60325710412988       -0.03209005706350
C           -5.23578123194253        1.94246004725672        0.04709378093166
C           -5.57893380308324        2.92164847384160       -0.88338068710601
C           -5.02598199660104        4.18614279579009       -0.80890595891167
C           -4.13361410823572        4.49725467480417        0.20350233011294
C           -3.80150520389204        3.53686643403055        1.14514302390245
C           -4.34762290021302        2.27008988100281        1.07003213502072
C           -7.29136161901893        0.58584862120335       -0.28795225791629
C           -7.84334884112946       -0.27114535082815       -1.23831293501952
C           -9.20273459048038       -0.26197049293858       -1.48455298422151
C          -10.03270272871647        0.60144808914319       -0.78823645330925
C           -9.49247416045767        1.46599258004470        0.14922559841183
C           -8.13208678035512        1.46455367655863        0.39280526571791
C           -5.75109907178648       -1.85453538620105        0.25173567160098
C           -6.83654401967966       -2.05463117685644        1.10228665935362
C           -7.40591601644257       -3.30710101323219        1.22878320449433
C           -6.90158116555088       -4.37911895036532        0.51074748206710
C           -5.81494285078684       -4.19344207282387       -0.32752523977066
C           -5.23885257991683       -2.94323584347915       -0.45131356533208
C           -2.98217047651599       -1.31453689059897        1.11877873429851
C           -1.60589138883339       -1.32480811869125        1.17220914259571
H            0.96912864157582       -1.27911131885672        1.16776183167139
H            1.12420968503728        0.73106195309268       -1.12693613988980
H            3.19803262873302        1.42633860218025       -1.84134332881654
H            5.64857583712913        1.42378245837260       -1.73190458307552
H            6.66679869518596       -0.51967806178871       -2.82795755951626
H            8.53725162680465       -0.81462459164348       -4.40428663826461
H           10.86247651600030       -0.69474949733666       -3.64576585493360
H           11.39311452211260       -0.29896132370733       -1.26291080976499
H           11.28876996118824        0.16339054676134        1.44198244758050
H           10.57616477794874        0.57445548487518        3.77421776682996
H            8.20061816807861        0.75159072882398        4.34156726242279
H            6.45763970530106        0.49947132877977        2.61836126437892
H            5.49897711580967       -1.42860172437140        1.44258444970991
H            3.05939350264881       -1.40310535522214        1.36518175010610
H           -0.96100622997831        0.78577293877495       -1.38696227251309
H           -3.39224545220849        0.80751555651392       -1.47344157333679
H           -6.27384265013185        2.67927250773761       -1.67524604692839
H           -5.29350700627169        4.93288014849650       -1.54254196420369
H           -3.70315666440549        5.48609203732012        0.26225654964961
H           -3.11555482486855        3.77782778376723        1.94424150016713
H           -4.09640628479783        1.52796918348497        1.81365486569264
H           -7.19785496438228       -0.93708378075590       -1.79202118606009
H           -9.61720941050391       -0.92968456111372       -2.22584917277935
H          -11.09565646134228        0.60435598924740       -0.97962652081290
H          -10.13409113619669        2.14549373337984        0.69144351413926
H           -7.71161275610404        2.13871465241287        1.12592135971063
H           -7.22485760252499       -1.22380587944668        1.67296495465913
H           -8.24577571176352       -3.44891998578426        1.89333951686583
H           -7.35032908982670       -5.35665496491529        0.60854076194992
H           -5.41372853225406       -5.02693409029365       -0.88585359953082
H           -4.39165642014138       -2.79898779589446       -1.10726374017162
H           -3.55462124128899       -1.90801549466854        1.81793314342284
H           -1.10774443083610       -1.93215819172571        1.91534503042625

          :  Hamiltonian                  GFN2-xTB          :
         :: gradient norm              0.000034195860 Eh/a0 ::
         :: HOMO-LUMO gap              2.145445054533 eV    ::
         :: SCC energy              -120.541777792560 Eh    ::
         :: -> dispersion             -0.109084821565 Eh    ::
         :: repulsion energy           2.311882408014 Eh    ::

    * Orbital Energies and Occupations

         #    Occupation            Energy/Eh            Energy/eV
      -------------------------------------------------------------
         1        2.0000           -0.6734128             -18.3245
       ...           ...                  ...                  ...
        99        2.0000           -0.4116639             -11.2019
       100        2.0000           -0.4080911             -11.1047
       101        2.0000           -0.4072904             -11.0829
       102        2.0000           -0.4066763             -11.0662
       103        2.0000           -0.4035006             -10.9798
       104        2.0000           -0.4021270             -10.9424
       105        2.0000           -0.4016829             -10.9303
       106        2.0000           -0.4005617             -10.8998
       107        2.0000           -0.3979143             -10.8278
       108        2.0000           -0.3805941             -10.3565
       109        2.0000           -0.3755327             -10.2188
       110        2.0000           -0.3632188              -9.8837
       111        2.0000           -0.3553751              -9.6702 (HOMO)
       112                         -0.2765314              -7.5248 (LUMO)
       113                         -0.2568003              -6.9879
       114                         -0.2416321              -6.5751
       115                         -0.2291948              -6.2367
       116                         -0.2265181              -6.1639
       117                         -0.2256638              -6.1406
       118                         -0.2223239              -6.0497
       119                         -0.2202779              -5.9941
       120                         -0.2195423              -5.9741
       121                         -0.2187928              -5.9537
       122                         -0.2172192              -5.9108
       ...                                ...                  ...
       221                          0.7491436              20.3852
      -------------------------------------------------------------
                  HL-Gap            0.0788437 Eh            2.1454 eV

     #   Z          covCN         q      C6AA      α(0)
     1   6 C        2.901    -0.038    28.954     8.823
     2   6 C        2.901    -0.040    29.003     8.830
     3   6 C        2.969     0.011    27.760     8.642
     4   6 C        2.929    -0.034    28.858     8.810
     5   6 C        2.919    -0.044    29.085     8.844
     6   6 C        2.913     0.062    26.610     8.459
     7   7 N        2.802    -0.043    22.068     6.977
     8   6 C        3.076     0.047    26.874     8.499
     9   6 C        2.910    -0.051    29.261     8.870
    10   6 C        2.924    -0.034    28.838     8.806
    11   6 C        2.920    -0.041    29.018     8.834
    12   6 C        2.913    -0.033    28.821     8.803
    13   6 C        3.068    -0.017    28.365     8.733
    14   6 C        3.068    -0.017    28.365     8.733
    15   6 C        2.913    -0.033    28.821     8.803
    16   6 C        2.920    -0.041    29.019     8.834
    17   6 C        2.924    -0.034    28.838     8.806
    18   6 C        2.910    -0.051    29.261     8.870
    19   6 C        3.076     0.047    26.874     8.499
    20   6 C        2.920    -0.044    29.081     8.843
    21   6 C        2.923    -0.034    28.837     8.806
    22   6 C        2.970     0.012    27.743     8.640
    23   6 C        2.922    -0.034    28.848     8.808
    24   6 C        2.921    -0.033    28.813     8.803
    25   6 C        2.979     0.014    27.686     8.631
    26   6 C        2.967    -0.006    28.173     8.706
    27   6 C        2.967    -0.006    28.168     8.705
    28   6 C        2.979     0.015    27.662     8.627
    29   6 C        2.925    -0.032    28.807     8.802
    30   6 C        2.918    -0.030    28.745     8.792
    31   6 C        2.920    -0.031    28.776     8.797
    32   6 C        2.919    -0.029    28.734     8.790
    33   6 C        2.924    -0.032    28.792     8.799
    34   6 C        2.979     0.015    27.663     8.628
    35   6 C        2.924    -0.032    28.793     8.800
    36   6 C        2.919    -0.029    28.734     8.790
    37   6 C        2.920    -0.031    28.775     8.797
    38   6 C        2.918    -0.030    28.745     8.792
    39   6 C        2.925    -0.032    28.805     8.801
    40   6 C        2.979     0.015    27.664     8.628
    41   6 C        2.924    -0.032    28.793     8.800
    42   6 C        2.919    -0.029    28.734     8.790
    43   6 C        2.920    -0.031    28.776     8.797
    44   6 C        2.918    -0.030    28.746     8.792
    45   6 C        2.925    -0.032    28.806     8.802
    46   6 C        2.921    -0.033    28.829     8.805
    47   6 C        2.927    -0.035    28.875     8.812
    48   1 H        0.925     0.035     2.520     2.482
    49   1 H        0.925     0.036     2.509     2.477
    50   1 H        0.926     0.035     2.517     2.481
    51   1 H        0.926     0.039     2.457     2.451
    52   1 H        0.926     0.027     2.624     2.533
    53   1 H        0.926     0.028     2.610     2.526
    54   1 H        0.926     0.027     2.624     2.533
    55   1 H        0.926     0.030     2.581     2.512
    56   1 H        0.926     0.030     2.581     2.512
    57   1 H        0.926     0.027     2.624     2.533
    58   1 H        0.926     0.028     2.610     2.526
    59   1 H        0.926     0.027     2.624     2.533
    60   1 H        0.926     0.040     2.455     2.450
    61   1 H        0.926     0.038     2.482     2.464
    62   1 H        0.926     0.032     2.559     2.502
    63   1 H        0.926     0.029     2.596     2.519
    64   1 H        0.926     0.028     2.615     2.529
    65   1 H        0.926     0.029     2.599     2.521
    66   1 H        0.926     0.029     2.597     2.520
    67   1 H        0.926     0.029     2.598     2.520
    68   1 H        0.926     0.028     2.609     2.526
    69   1 H        0.926     0.029     2.606     2.524
    70   1 H        0.926     0.029     2.598     2.520
    71   1 H        0.926     0.029     2.597     2.520
    72   1 H        0.926     0.029     2.599     2.521
    73   1 H        0.926     0.028     2.617     2.530
    74   1 H        0.926     0.029     2.606     2.524
    75   1 H        0.926     0.029     2.598     2.520
    76   1 H        0.926     0.029     2.597     2.520
    77   1 H        0.926     0.029     2.600     2.521
    78   1 H        0.926     0.028     2.620     2.531
    79   1 H        0.926     0.028     2.608     2.526
    80   1 H        0.925     0.029     2.595     2.519

molecular dipole:
                 x           y           z       tot (Debye)
 q only:       -0.623       0.005      -0.015
   full:       -0.701       0.007      -0.017       1.783

 projected vibrational frequencies (cm⁻¹)
eigval :       -0.00    -0.00     0.00     0.00     0.00     0.00
eigval :       -5.93     7.58    16.17    19.70    28.43    34.94
eigval :       44.87    50.27    55.43    57.66    60.42    67.57
eigval :       68.24    72.46    74.87    82.42    91.74   105.72
eigval :      139.45   145.56   153.66   165.45   189.14   201.14
eigval :      203.63   226.62   241.30   247.43   259.95   271.56
eigval :      279.31   286.79   314.38   321.19   360.80   371.03
eigval :      373.44   374.76   376.98   378.04   380.00   388.91
eigval :      402.08   421.94   424.63   436.98   449.06   459.98
eigval :      463.85   494.22   517.36   522.36   534.58   540.12
eigval :      541.19   556.61   580.20   581.66   585.10   589.43
eigval :      593.26   595.36   599.98   613.18   618.15   624.94
eigval :      639.59   668.89   673.03   673.91   676.14   680.62
eigval :      683.61   698.37   704.64   711.82   749.66   756.87
eigval :      759.39   762.50   769.31   773.80   780.78   812.88
eigval :      821.38   828.48   851.57   860.55   862.49   865.62
eigval :      873.12   874.28   877.30   877.91   878.05   895.71
eigval :      897.79   901.53   901.90   902.45   902.84   903.12
eigval :      915.37   916.90   920.24   925.17   925.34   929.75
eigval :      930.02   930.14   931.25   931.62   931.87   932.22
eigval :      942.63   944.95   981.42   986.60   993.43  1010.99
eigval :     1012.04  1019.62  1033.65  1070.34  1073.92  1084.08
eigval :     1085.03  1085.80  1118.40  1121.84  1122.70  1124.12
eigval :     1137.97  1146.17  1152.89  1165.07  1176.86  1181.39
eigval :     1182.07  1182.10  1182.14  1184.13  1193.80  1199.00
eigval :     1199.50  1201.52  1204.62  1218.41  1232.95  1236.84
eigval :     1246.35  1252.79  1269.67  1276.98  1281.27  1282.84
eigval :     1284.32  1292.50  1299.62  1301.90  1303.20  1311.30
eigval :     1315.73  1317.89  1319.37  1322.07  1336.65  1345.06
eigval :     1357.91  1362.36  1371.16  1408.98  1413.92  1428.32
eigval :     1429.90  1431.15  1431.96  1432.32  1466.96  1474.41
eigval :     1476.28  1476.38  1484.92  1488.42  1497.93  1550.00
eigval :     1555.77  1571.89  1575.02  1577.95  1578.79  1579.88
eigval :     1588.05  1589.25  1594.57  1595.24  1598.89  1599.71
eigval :     1612.52  1615.07  1641.36  3054.23  3063.00  3066.98
eigval :     3069.17  3069.30  3069.98  3072.84  3072.88  3073.00
eigval :     3073.34  3075.52  3075.90  3078.31  3079.40  3079.69
eigval :     3079.97  3080.71  3081.37  3081.89  3085.40  3085.91
eigval :     3086.01  3086.70  3088.12  3089.58  3091.52  3092.14
eigval :     3092.56  3092.78  3094.78  3096.20  3096.34  3100.20

   temp. (K)  partition function   enthalpy   heat capacity  entropy
                                   cal/mol     cal/K/mol   cal/K/mol   J/K/mol
 298.15  VIB  0.433E+19            22462.435    140.364    142.983
         ROT  0.119E+09              888.752      2.981     39.929
         INT  0.514E+27            23351.187    143.345    182.912
         TR   0.142E+29             1481.254      4.968     45.037
         TOT                       24832.4409   148.3130   227.9489   953.7381

       T/K    H(0)-H(T)+PV         H(T)/Eh          T*S/Eh         G(T)/Eh
   ------------------------------------------------------------------------
    298.15    0.395730E-01    0.666740E+00    0.108306E+00    0.558434E+00
   ------------------------------------------------------------------------

         :::::::::::::::::::::::::::::::::::::::::::::::::::::
         ::                  THERMODYNAMIC                  ::
         :::::::::::::::::::::::::::::::::::::::::::::::::::::
         :: total free energy        -117.671461445701 Eh   ::
         ::.................................................::
         :: total energy             -118.229895384546 Eh   ::
         :: zero point energy           0.627166788158 Eh   ::
         :: G(RRHO) w/o ZPVE           -0.068732849313 Eh   ::
         :: G(RRHO) contrib.            0.558433938845 Eh   ::
         :::::::::::::::::::::::::::::::::::::::::::::::::::::

           -------------------------------------------------
          | TOTAL ENERGY             -118.229895384546 Eh   |
          | TOTAL ENTHALPY           -117.563155582918 Eh   |
          | TOTAL FREE ENERGY        -117.671461445701 Eh   |
          | GRADIENT NORM               0.000034193717 Eh/α |
          | HOMO-LUMO GAP               2.145445012244 eV   |
           -------------------------------------------------

 * finished run on 2025/08/24 at 17:56:15.994
