   * xtb version 6.7.1 (edcfbbe) compiled by 'albert@albert-system' on 2024-07-22

   ID    Z sym.   atoms
    1    6 C      1-8, 10-13, 15-31, 33-47
    2    7 N      9, 14, 32
    3    1 H      48-86

          program call               : xtb data2507/toluene/TCz1/TCz1_toluene_S0_crest.xyz --gfn 2 --gbsa toluene --ohess vtight --parallel 40 --molden --ceasefiles --namespace data2507/toluene/TCz1/TCz1_toluene_S0_finalOpt
      * Solvation model:               GBSA
        Solvent                        toluene
        Solvent mass                       9.2140E+01 g/mol
          :  Hamiltonian                  GFN2-xTB          :
 * total energy  :  -123.0673717 Eh     change       -0.2030291E-08 Eh
 * total energy  :  -123.0674448 Eh     change       -0.7311609E-04 Eh
 * total energy  :  -123.0675022 Eh     change       -0.5743896E-04 Eh
 * total energy  :  -123.0675433 Eh     change       -0.4106065E-04 Eh
 * total energy  :  -123.0675919 Eh     change       -0.4856943E-04 Eh
 * total energy  :  -123.0676914 Eh     change       -0.9953519E-04 Eh
 * total energy  :  -123.0678283 Eh     change       -0.1368972E-03 Eh
 * total energy  :  -123.0679227 Eh     change       -0.9446252E-04 Eh
 * total energy  :  -123.0681002 Eh     change       -0.1774953E-03 Eh
 * total energy  :  -123.0682519 Eh     change       -0.1516374E-03 Eh
 * total energy  :  -123.0690307 Eh     change       -0.3538787E-06 Eh
 * total energy  :  -123.0690310 Eh     change       -0.3001989E-06 Eh
 * total energy  :  -123.0690312 Eh     change       -0.2124853E-06 Eh
 * total energy  :  -123.0690314 Eh     change       -0.1745004E-06 Eh
 * total energy  :  -123.0690315 Eh     change       -0.1806512E-06 Eh
 * total energy  :  -123.0690317 Eh     change       -0.1691332E-06 Eh
 * total energy  :  -123.0690319 Eh     change       -0.1469502E-06 Eh
 * total energy  :  -123.0690320 Eh     change       -0.1075495E-06 Eh
 * total energy  :  -123.0690320 Eh     change       -0.7780497E-07 Eh
   *** GEOMETRY OPTIMIZATION CONVERGED AFTER 63 ITERATIONS ***

 final structure:
================
86
 xtb: 6.7.1 (edcfbbe)
C            0.49771121372575       -1.46388869308008       -4.25338980104222
C            1.05184105519616       -2.65307464300256       -3.47736024517094
C            0.03109687738848       -3.20490552539871       -2.48443520395076
C            0.57910179773325       -4.40007497895718       -1.70447527497400
C           -0.38608595013011       -4.91076527524175       -0.62184747419043
C           -0.34839335729942       -6.44070499154619       -0.49798574228103
C           -1.07354484171927       -7.14404099530220       -1.64013583830745
C           -0.06415257156553       -4.29791559283314        0.75597186606476
N           -0.03030989210405       -2.86026669730697        0.75015093775833
C            1.09043522432679       -2.06876195430200        0.70292759847230
C            2.43595958518680       -2.41453702903644        0.75681662668873
C            3.37498995940000       -1.40748267078976        0.68412784594646
C            2.99821684962479       -0.06271890229907        0.57657256167595
N            3.99551801932032        0.92842816222800        0.50331489699892
C            5.03237589373924        1.09722631817948        1.39570903268721
C            5.31520527198508        0.40113338008674        2.56323836316316
C            6.42022965223483        0.79033962318594        3.29527120556721
C            7.22717383035657        1.85115842079422        2.88675272013865
C            6.93968325316009        2.56047130329382        1.73755862308751
C            5.83327255115185        2.18880406658041        0.98395273739699
C            5.24021268633640        2.69546564694715       -0.22155914801027
C            5.56745144485467        3.72992501395965       -1.08945825736808
C            4.77150173068114        3.94193746076278       -2.19752438015153
C            3.66647090207170        3.13112841312217       -2.45228109046772
C            3.32046208462269        2.09664479180158       -1.60467388135637
C            4.10623328779691        1.88922302918671       -0.47915907046378
C            1.65999761592997        0.29527273661471        0.54028120745718
C            0.70384399486924       -0.70871861469503        0.59884381420484
C           -0.72996373787867       -0.69765018745837        0.58061174484967
C           -1.67333278432951        0.31662445401405        0.49672805100719
C           -3.01585623871778       -0.02833481825838        0.49336007315915
N           -3.99842426071794        0.97487548372395        0.39117754982427
C           -4.06283947599691        1.94195042211155       -0.58929273899069
C           -3.23919023953249        2.14213245416623       -1.68885223538852
C           -3.54131556970319        3.18686246246767       -2.54070529329320
C           -4.64047234522385        4.01435531774637       -2.31603581541732
C           -5.47432127870509        3.80932067562967       -1.23487823105085
C           -5.19143958745052        2.76502983742243       -0.36320608901043
C           -5.83032491615580        2.26203460891887        0.82023593497264
C           -6.95401770800938        2.64770716500389        1.54051655314307
C           -7.28895910211323        1.93755568639362        2.67624174650179
C           -6.51216843222820        0.86209313773594        3.10450974380820
C           -5.39066964130877        0.45902610320875        2.40580060119352
C           -5.06015098535141        1.15594281417543        1.25136256388913
C           -3.41135093774236       -1.36901351381370        0.58665754010906
C           -2.48590852230813       -2.38679043879094        0.68545269056977
C           -1.13722060748045       -2.05145942436799        0.67455393347698
H            0.20180142600468       -0.66945766199510       -3.57088764225802
H           -0.37590415608366       -1.75746320559109       -4.83231066022369
H            1.24610080245815       -1.06851331279300       -4.93700681767920
H            1.34253712196861       -3.43975118142153       -4.17812863237399
H            1.94948380816425       -2.34353316191861       -2.93582369891410
H           -0.25533686405678       -2.40609139073870       -1.79927154940439
H           -0.86863414640223       -3.50992824083493       -3.02542666606551
H            0.78710314940378       -5.20236116453067       -2.41431847429173
H            1.53080375475329       -4.12248355520543       -1.24805962520205
H           -1.40261259156842       -4.61410626469677       -0.89886152699706
H            0.69157744556663       -6.77280632198765       -0.46273841813687
H           -0.81985719048804       -6.73464750285645        0.44306743273139
H           -2.12297076052038       -6.85696322084246       -1.65818874656133
H           -1.01595082503194       -8.22309949182862       -1.51482082236830
H           -0.63531017388897       -6.89079724320512       -2.60230692843780
H            0.90774702202931       -4.66227450491879        1.09473740112608
H           -0.81775168584449       -4.62281170434497        1.48136728081582
H            2.75644253748577       -3.44140788228954        0.84470626138240
H            4.42680463996928       -1.65138037540403        0.70030891005243
H            4.68682023809663       -0.41219284256740        2.89427913683744
H            6.66317900633361        0.26332837609232        4.20674820020253
H            8.08429762944900        2.12336791051136        3.48552501707594
H            7.55825097907599        3.39035171315482        1.42904545105442
H            6.43038390701046        4.35110125214254       -0.89946267050480
H            5.00800471368910        4.74276759870396       -2.88306339840296
H            3.06928729186928        3.31465192050792       -3.33393525409559
H            2.47030620254878        1.46566317329543       -1.81551524141548
H            1.37213325770396        1.33355315207745        0.47609622778190
H           -1.37374539559145        1.35213791314090        0.44217024811692
H           -2.39358009528519        1.49778739054413       -1.87754544550094
H           -2.91383393018194        3.36512412084062       -3.40215826897977
H           -4.84222643759415        4.82261780902225       -3.00392854520615
H           -6.33275172650029        4.44334157798857       -1.06852869457545
H           -7.54913541163842        3.48904967124339        1.21720485594318
H           -8.16031892210618        2.22051938018282        3.24889637384641
H           -6.79205163836191        0.33458420080356        4.00504378541520
H           -4.78572708360543       -0.36539883288093        2.75241906195164
H           -4.46591067854071       -1.60035160506036        0.56977732289385
H           -2.81215519801347       -3.41210252893958        0.76039284297153

          :  Hamiltonian                  GFN2-xTB          :
         :: gradient norm              0.000032864993 Eh/a0 ::
         :: HOMO-LUMO gap              2.718214140166 eV    ::
         :: SCC energy              -125.278117613108 Eh    ::
         :: -> dispersion             -0.113172795897 Eh    ::
         :: -> Gsolv                  -0.049166357950 Eh    ::
         :: repulsion energy           2.209085564944 Eh    ::

    * Orbital Energies and Occupations

         #    Occupation            Energy/Eh            Energy/eV
      -------------------------------------------------------------
         1        2.0000           -0.6812233             -18.5370
       ...           ...                  ...                  ...
       103        2.0000           -0.4169220             -11.3450
       104        2.0000           -0.4163423             -11.3292
       105        2.0000           -0.4154065             -11.3038
       106        2.0000           -0.4152860             -11.3005
       107        2.0000           -0.4104121             -11.1679
       108        2.0000           -0.4027548             -10.9595
       109        2.0000           -0.4026881             -10.9577
       110        2.0000           -0.3868020             -10.5254
       111        2.0000           -0.3759937             -10.2313
       112        2.0000           -0.3759153             -10.2292
       113        2.0000           -0.3753639             -10.2142
       114        2.0000           -0.3598323              -9.7915
       115        2.0000           -0.3526558              -9.5963 (HOMO)
       116                         -0.2527632              -6.8780 (LUMO)
       117                         -0.2434617              -6.6249
       118                         -0.2426131              -6.6018
       119                         -0.2315128              -6.2998
       120                         -0.2194787              -5.9723
       121                         -0.2193953              -5.9700
       122                         -0.2097495              -5.7076
       123                         -0.1990504              -5.4164
       124                         -0.1837867              -5.0011
       125                         -0.1836626              -4.9977
       126                         -0.1834809              -4.9928
       ...                                ...                  ...
       227                          0.7473526              20.3365
      -------------------------------------------------------------
                  HL-Gap            0.0998925 Eh            2.7182 eV

     #   Z          covCN         q      C6AA      α(0)
     1   6 C        3.752    -0.099    22.460     6.758
     2   6 C        3.801    -0.052    21.509     6.603
     3   6 C        3.802    -0.057    21.592     6.616
     4   6 C        3.803    -0.064    21.733     6.637
     5   6 C        3.850    -0.025    20.994     6.517
     6   6 C        3.804    -0.059    21.636     6.622
     7   6 C        3.751    -0.103    22.525     6.768
     8   6 C        3.743    -0.008    20.791     6.505
     9   7 N        2.795    -0.032    21.869     6.945
    10   6 C        3.082     0.046    26.880     8.499
    11   6 C        2.909    -0.049    29.227     8.865
    12   6 C        2.925    -0.046    29.143     8.853
    13   6 C        2.912     0.051    26.847     8.496
    14   7 N        2.803    -0.049    22.179     6.995
    15   6 C        3.079     0.048    26.846     8.495
    16   6 C        2.909    -0.053    29.309     8.877
    17   6 C        2.924    -0.036    28.898     8.816
    18   6 C        2.919    -0.044    29.094     8.845
    19   6 C        2.912    -0.036    28.890     8.814
    20   6 C        3.068    -0.020    28.443     8.745
    21   6 C        3.068    -0.020    28.445     8.745
    22   6 C        2.912    -0.036    28.891     8.814
    23   6 C        2.919    -0.044    29.094     8.845
    24   6 C        2.924    -0.036    28.892     8.815
    25   6 C        2.909    -0.052    29.293     8.875
    26   6 C        3.079     0.048    26.840     8.494
    27   6 C        2.914    -0.046    29.131     8.851
    28   6 C        3.071    -0.017    28.369     8.733
    29   6 C        3.069    -0.018    28.385     8.736
    30   6 C        2.914    -0.046    29.148     8.853
    31   6 C        2.913     0.051    26.848     8.497
    32   7 N        2.803    -0.049    22.176     6.994
    33   6 C        3.079     0.048    26.842     8.494
    34   6 C        2.909    -0.052    29.292     8.875
    35   6 C        2.923    -0.036    28.893     8.815
    36   6 C        2.919    -0.044    29.093     8.845
    37   6 C        2.912    -0.036    28.889     8.814
    38   6 C        3.068    -0.020    28.443     8.745
    39   6 C        3.068    -0.020    28.442     8.745
    40   6 C        2.912    -0.036    28.889     8.814
    41   6 C        2.919    -0.044    29.093     8.845
    42   6 C        2.924    -0.036    28.897     8.815
    43   6 C        2.909    -0.053    29.308     8.877
    44   6 C        3.079     0.048    26.846     8.495
    45   6 C        2.925    -0.046    29.143     8.853
    46   6 C        2.909    -0.050    29.248     8.868
    47   6 C        3.086     0.044    26.926     8.506
    48   1 H        0.925     0.030     2.592     2.518
    49   1 H        0.925     0.033     2.542     2.494
    50   1 H        0.925     0.032     2.553     2.498
    51   1 H        0.924     0.029     2.605     2.524
    52   1 H        0.924     0.026     2.644     2.543
    53   1 H        0.924     0.028     2.621     2.532
    54   1 H        0.924     0.029     2.601     2.522
    55   1 H        0.924     0.040     2.446     2.446
    56   1 H        0.924     0.035     2.514     2.479
    57   1 H        0.924     0.043     2.410     2.428
    58   1 H        0.924     0.036     2.506     2.476
    59   1 H        0.924     0.034     2.529     2.487
    60   1 H        0.925     0.036     2.503     2.474
    61   1 H        0.925     0.036     2.499     2.472
    62   1 H        0.925     0.038     2.477     2.461
    63   1 H        0.924     0.056     2.243     2.342
    64   1 H        0.924     0.050     2.315     2.379
    65   1 H        0.926     0.038     2.473     2.459
    66   1 H        0.926     0.040     2.453     2.449
    67   1 H        0.926     0.029     2.606     2.524
    68   1 H        0.926     0.028     2.614     2.528
    69   1 H        0.926     0.025     2.652     2.547
    70   1 H        0.926     0.027     2.622     2.532
    71   1 H        0.926     0.027     2.623     2.533
    72   1 H        0.926     0.025     2.654     2.548
    73   1 H        0.926     0.028     2.614     2.528
    74   1 H        0.926     0.029     2.602     2.522
    75   1 H        0.926     0.038     2.471     2.458
    76   1 H        0.926     0.038     2.474     2.459
    77   1 H        0.926     0.028     2.617     2.530
    78   1 H        0.926     0.028     2.614     2.529
    79   1 H        0.926     0.025     2.652     2.547
    80   1 H        0.926     0.028     2.620     2.531
    81   1 H        0.926     0.028     2.621     2.532
    82   1 H        0.926     0.026     2.651     2.546
    83   1 H        0.926     0.028     2.612     2.528
    84   1 H        0.926     0.029     2.602     2.522
    85   1 H        0.926     0.040     2.445     2.445
    86   1 H        0.926     0.042     2.422     2.433

molecular dipole:
                 x           y           z       tot (Debye)
 q only:       -0.059      -2.373       0.026
   full:       -0.048      -2.391       0.061       6.081

 projected vibrational frequencies (cm⁻¹)
eigval :       -0.00    -0.00    -0.00     0.00     0.00     0.00
eigval :       16.10    16.47    18.40    23.07    24.07    29.32
eigval :       39.21    42.96    47.44    61.68    73.10    90.64
eigval :       99.80   103.84   113.40   117.59   122.10   126.03
eigval :      136.12   141.80   142.62   149.46   157.02   173.16
eigval :      198.00   214.25   228.62   232.97   248.55   255.43
eigval :      259.09   272.06   272.15   276.41   287.95   311.73
eigval :      327.37   341.22   354.73   383.08   385.13   392.40
eigval :      397.68   399.10   402.47   422.43   423.31   424.00
eigval :      431.63   434.36   436.43   482.30   493.45   495.79
eigval :      517.90   518.07   528.32   530.62   540.99   541.28
eigval :      543.82   552.04   560.30   585.60   588.38   593.16
eigval :      607.21   624.09   628.07   645.30   673.40   673.77
eigval :      679.02   684.67   703.49   708.15   709.77   710.78
eigval :      754.39   755.67   756.63   764.42   766.22   767.25
eigval :      778.48   778.89   810.72   817.01   819.67   819.95
eigval :      821.12   851.24   861.18   864.54   869.11   872.09
eigval :      878.35   881.14   896.86   897.06   897.88   898.47
eigval :      898.95   900.68   901.96   911.22   911.89   919.70
eigval :      922.54   922.85   923.61   930.71   937.41   947.97
eigval :      967.11   994.93  1010.10  1011.30  1012.14  1020.17
eigval :     1030.10  1057.70  1067.36  1067.59  1070.97  1071.14
eigval :     1081.35  1091.30  1100.07  1108.33  1111.18  1115.21
eigval :     1141.54  1150.13  1150.53  1153.66  1156.30  1158.73
eigval :     1166.02  1173.30  1173.87  1180.44  1180.72  1181.65
eigval :     1183.23  1204.52  1221.98  1224.74  1228.68  1231.11
eigval :     1235.50  1236.12  1244.82  1245.12  1263.34  1269.56
eigval :     1278.42  1283.66  1289.34  1298.35  1299.14  1302.44
eigval :     1305.79  1313.62  1324.44  1333.08  1336.70  1345.80
eigval :     1350.15  1353.31  1356.70  1357.23  1359.77  1362.60
eigval :     1362.98  1378.14  1385.15  1388.36  1414.52  1416.08
eigval :     1416.56  1427.45  1427.50  1433.46  1438.00  1447.51
eigval :     1462.12  1473.09  1473.93  1480.62  1487.65  1487.84
eigval :     1488.01  1491.71  1493.03  1496.06  1497.38  1502.02
eigval :     1502.57  1504.75  1506.67  1561.24  1570.52  1571.99
eigval :     1577.61  1587.01  1587.30  1596.22  1597.02  1597.98
eigval :     1613.39  1613.63  1616.41  2935.79  2943.82  2954.68
eigval :     2963.41  2963.76  2973.52  2977.66  2979.17  2986.94
eigval :     2994.64  3003.95  3022.54  3025.48  3026.84  3030.90
eigval :     3032.91  3040.12  3068.26  3068.60  3069.05  3069.22
eigval :     3073.70  3074.10  3074.91  3074.95  3081.44  3082.34
eigval :     3082.77  3083.25  3083.62  3087.79  3089.30  3089.71
eigval :     3091.36  3091.73  3092.16  3093.64  3095.66  3100.42

   temp. (K)  partition function   enthalpy   heat capacity  entropy
                                   cal/mol     cal/K/mol   cal/K/mol   J/K/mol
 298.15  VIB  0.715E+18            23235.690    146.252    143.818
         ROT  0.857E+08              888.752      2.981     39.281
         INT  0.613E+26            24124.442    149.232    183.099
         TR   0.146E+29             1481.254      4.968     45.087
         TOT                       25605.6964   154.2006   228.1852   954.7270

       T/K    H(0)-H(T)+PV         H(T)/Eh          T*S/Eh         G(T)/Eh
   ------------------------------------------------------------------------
    298.15    0.408053E-01    0.739627E+00    0.108418E+00    0.631209E+00
   ------------------------------------------------------------------------

         :::::::::::::::::::::::::::::::::::::::::::::::::::::
         ::                  THERMODYNAMIC                  ::
         :::::::::::::::::::::::::::::::::::::::::::::::::::::
         :: total free energy        -122.437823050715 Eh   ::
         ::.................................................::
         :: total energy             -123.069032050849 Eh   ::
         :: zero point energy           0.698821894203 Eh   ::
         :: G(RRHO) w/o ZPVE           -0.067612894069 Eh   ::
         :: G(RRHO) contrib.            0.631209000134 Eh   ::
         :::::::::::::::::::::::::::::::::::::::::::::::::::::

           -------------------------------------------------
          | TOTAL ENERGY             -123.069032050849 Eh   |
          | TOTAL ENTHALPY           -122.329404882129 Eh   |
          | TOTAL FREE ENERGY        -122.437823050715 Eh   |
          | GRADIENT NORM               0.000032852767 Eh/α |
          | HOMO-LUMO GAP               2.718214185064 eV   |
           -------------------------------------------------

 * finished run on 2025/07/20 at 11:54:45.289
