   * xtb version 6.7.1 (edcfbbe) compiled by 'albert@albert-system' on 2024-07-22

   ID    Z sym.   atoms
    1    6 C      1-8, 10-13, 15-31, 33-47
    2    7 N      9, 14, 32
    3    1 H      48-86

          program call               : xtb data2507/toluene/TCz1/TCz1_toluene_T1_crest.xyz --gfn 2 --uhf 2 --gbsa toluene --ohess vtight --parallel 40 --molden --ceasefiles --namespace data2507/toluene/TCz1/TCz1_toluene_T1_finalOpt
      * Solvation model:               GBSA
        Solvent                        toluene
        Solvent mass                       9.2140E+01 g/mol
          :  Hamiltonian                  GFN2-xTB          :
 * total energy  :  -122.9656053 Eh     change       -0.7876028E-07 Eh
 * total energy  :  -122.9657037 Eh     change       -0.9840680E-04 Eh
 * total energy  :  -122.9657590 Eh     change       -0.5531897E-04 Eh
 * total energy  :  -122.9657877 Eh     change       -0.2864104E-04 Eh
 * total energy  :  -122.9658130 Eh     change       -0.2531147E-04 Eh
 * total energy  :  -122.9658629 Eh     change       -0.4993667E-04 Eh
 * total energy  :  -122.9658916 Eh     change       -0.2871572E-04 Eh
 * total energy  :  -122.9659200 Eh     change       -0.2835531E-04 Eh
 * total energy  :  -122.9659310 Eh     change       -0.1097280E-04 Eh
 * total energy  :  -122.9659367 Eh     change       -0.5751725E-05 Eh
 * total energy  :  -122.9660204 Eh     change       -0.1738535E-06 Eh
 * total energy  :  -122.9660207 Eh     change       -0.3097741E-06 Eh
 * total energy  :  -122.9660209 Eh     change       -0.2096864E-06 Eh
 * total energy  :  -122.9660211 Eh     change       -0.1884494E-06 Eh
 * total energy  :  -122.9660214 Eh     change       -0.2589695E-06 Eh
 * total energy  :  -122.9660216 Eh     change       -0.2409845E-06 Eh
 * total energy  :  -122.9660219 Eh     change       -0.2401395E-06 Eh
 * total energy  :  -122.9660221 Eh     change       -0.2591160E-06 Eh
 * total energy  :  -122.9660221 Eh     change       -0.2048523E-08 Eh
   *** GEOMETRY OPTIMIZATION CONVERGED AFTER 44 ITERATIONS ***

 final structure:
================
86
 xtb: 6.7.1 (edcfbbe)
C            0.29119570356313       -2.57482417012424       -2.69306633676092
C           -0.72050419347648       -3.67076803651591       -2.37501902729503
C           -0.07425651575176       -4.95510479835189       -1.84781362054192
C            0.48889120335884       -4.82132824607673       -0.43077476085984
C           -0.60518024788373       -4.81323461190506        0.64766699302623
C           -0.92126261984267       -6.23779593287599        1.11775688552986
C           -2.24774049481947       -6.35890921778621        1.86105603846887
C           -0.18984203284243       -3.92554161467235        1.83819730072584
N           -0.08466739390708       -2.54554627090894        1.45830240038511
C            1.07570127170410       -1.86303466819184        1.18934959848595
C            2.39317061377262       -2.26034134515584        1.32755386679667
C            3.39915733133522       -1.36084797065712        0.96163828254619
C            3.08028062880469       -0.08405904587867        0.48580455075517
N            4.10653393016392        0.79056132381330        0.13237160457635
C            4.20213387109067        2.11678675998887        0.51450942737657
C            3.37992631930025        2.85429051739908        1.35109820429133
C            3.72826886317614        4.17437060821885        1.60461504840137
C            4.87303271408042        4.73844562168781        1.04988238673086
C            5.71505864900257        3.99871444169409        0.23827611562387
C            5.38517075235411        2.67435600365918       -0.03171509449698
C            6.02071722642293        1.63187874694470       -0.78329639484065
C            7.17649488796149        1.57587989426193       -1.55587567819446
C            7.49025115805171        0.38822108646028       -2.19290916910200
C            6.66385938495217       -0.72628584394121       -2.08619203030924
C            5.50591189839922       -0.69415104667979       -1.32053308835659
C            5.20205215967686        0.48206131247138       -0.65431008220087
C            1.75187943432471        0.33350707975853        0.35480692765477
C            0.73660049566595       -0.56223146679388        0.70279818463654
C           -0.68036741042218       -0.48755786398640        0.68916714779901
C           -1.59199560163040        0.50593843370458        0.32122390753958
C           -2.95833893834284        0.22788187777512        0.43499588981269
N           -3.88324071542552        1.20361986694746        0.06423555477528
C           -4.99234918552675        1.00861699077435       -0.73913214496478
C           -5.40771203622789       -0.13184188674268       -1.40757048210195
C           -6.55105819109335       -0.04564922744622       -2.19050226636282
C           -7.25466064520040        1.14883414904229       -2.31232018573344
C           -6.82799955416408        2.29945268850354       -1.67296999325632
C           -5.68459674930215        2.23702234663277       -0.88284241951034
C           -4.95588768863422        3.20982462619870       -0.12241226019331
C           -5.14915630216547        4.56249018211747        0.13914009861125
C           -4.24708681786513        5.21305960484583        0.96248239500997
C           -3.17667656542819        4.53405426413581        1.53669092729248
C           -2.96516295301458        3.18378081189835        1.29231157074200
C           -3.84655424046910        2.53337189029488        0.44364062421863
C           -3.41505810390067       -1.00540248863932        0.91169939547375
C           -2.51247599421674       -2.00277127903203        1.29438309707007
C           -1.16082602092569       -1.74249980001651        1.17081370221215
H            1.02324799000671       -2.92769819369341       -3.41712088831962
H            0.81991584243929       -2.25099529736763       -1.79990725183165
H           -0.21451532598503       -1.70682860975025       -3.11142766196741
H           -1.44087478479030       -3.28761557751420       -1.64909452452871
H           -1.27320110703259       -3.91071523929954       -3.28698707275433
H           -0.81408827733499       -5.75887016119781       -1.86624143498939
H            0.73429723445502       -5.23887497534276       -2.52560716365109
H            1.17384208220663       -5.64967359846952       -0.23507323535592
H            1.07138772147078       -3.90200972392720       -0.37933253042367
H           -1.51412224252619       -4.38073721953305        0.21998239672245
H           -0.95841787860972       -6.88600316834682        0.23987512625820
H           -0.10983752246121       -6.59592636251716        1.75587563270678
H           -2.23965308822747       -5.79468324984794        2.79069094248403
H           -2.44461775848900       -7.40045305110074        2.10553416458027
H           -3.06575854086656       -5.99504282933850        1.24232572368112
H            0.77294167424668       -4.25848360640871        2.22939828099111
H           -0.93581931813633       -4.00670611949234        2.63349479376587
H            2.66358165987980       -3.22759673425349        1.72104703718972
H            4.43372895758764       -1.63361795538617        1.09280816632394
H            2.50251532659451        2.41865680927664        1.80398886571532
H            3.10009966485378        4.77114548955382        2.24920344174961
H            5.11210822920927        5.76931642390477        1.26812630213867
H            6.61282520983608        4.43450794402228       -0.17341410156753
H            7.80919406384423        2.44447248883725       -1.65882840536342
H            8.38555060280629        0.32594859334222       -2.79461466368574
H            6.92396673069003       -1.63327118775220       -2.61140255125860
H            4.85980131357204       -1.55633538719694       -1.26124231328395
H            1.52033199760766        1.29994518773504       -0.06250862396367
H           -1.25675826611357        1.44172845904259       -0.09581888294325
H           -4.85627047122600       -1.05659579027364       -1.33604607702512
H           -6.89705931312669       -0.92253444805791       -2.71734253596131
H           -8.14246225910105        1.17811552277087       -2.92755151172461
H           -7.36447400307569        3.22926928983077       -1.78726361191059
H           -5.98923940585052        5.08859406761764       -0.28856683028452
H           -4.37971253006867        6.26428803294789        1.17419688868677
H           -2.49947672682986        5.06426963299297        2.18976734673516
H           -2.14607455181879        2.65984799964095        1.76070305520160
H           -4.47441923808387       -1.16733165186867        1.02994727940161
H           -2.88175758402620       -2.93259244480918        1.69615273868406

          :  Hamiltonian                  GFN2-xTB          :
         :: gradient norm              0.000044937703 Eh/a0 ::
         :: HOMO-LUMO gap              0.050006772488 eV    ::
         :: SCC energy              -125.155236263884 Eh    ::
         :: -> dispersion             -0.114651910120 Eh    ::
         :: -> Gsolv                  -0.047812378136 Eh    ::
         :: repulsion energy           2.189214146450 Eh    ::

    * Orbital Energies and Occupations

         #    Occupation            Energy/Eh            Energy/eV
      -------------------------------------------------------------
         1        2.0000           -0.6787255             -18.4691
       ...           ...                  ...                  ...
       104        2.0000           -0.4167320             -11.3399
       105        2.0000           -0.4163400             -11.3292
       106        2.0000           -0.4157599             -11.3134
       107        2.0000           -0.4059601             -11.0467
       108        2.0000           -0.4048489             -11.0165
       109        2.0000           -0.4047242             -11.0131
       110        2.0000           -0.3779216             -10.2838
       111        2.0000           -0.3771334             -10.2623
       112        2.0000           -0.3771045             -10.2615
       113        2.0000           -0.3766740             -10.2498
       114        1.9943           -0.3610426              -9.8245
       115        1.0057           -0.3512238              -9.5573
       116        0.6574           -0.2476348              -6.7385 (HOMO)
       117        0.2170           -0.2457968              -6.6885 (LUMO)
       118        0.1256           -0.2451723              -6.6715
       119                         -0.2278218              -6.1993
       120                         -0.2219147              -6.0386
       121                         -0.2219126              -6.0385
       122                         -0.2099051              -5.7118
       123                         -0.1964304              -5.3451
       124                         -0.1857496              -5.0545
       125                         -0.1857484              -5.0545
       126                         -0.1826006              -4.9688
       127                         -0.1797414              -4.8910
       ...                                ...                  ...
       227                          0.7471216              20.3302
      -------------------------------------------------------------
                  HL-Gap            0.0018380 Eh            0.0500 eV

     #   Z          covCN         q      C6AA      α(0)
     1   6 C        3.751    -0.098    22.431     6.754
     2   6 C        3.799    -0.051    21.495     6.601
     3   6 C        3.801    -0.058    21.620     6.620
     4   6 C        3.804    -0.066    21.769     6.642
     5   6 C        3.851    -0.024    20.965     6.512
     6   6 C        3.803    -0.060    21.649     6.624
     7   6 C        3.751    -0.104    22.540     6.771
     8   6 C        3.744    -0.009    20.806     6.507
     9   7 N        2.798    -0.010    21.448     6.878
    10   6 C        3.065     0.041    27.006     8.522
    11   6 C        2.906    -0.058    29.445     8.898
    12   6 C        2.920    -0.071    29.759     8.946
    13   6 C        2.909     0.060    26.658     8.466
    14   7 N        2.802    -0.024    21.700     6.919
    15   6 C        3.068     0.047    26.884     8.502
    16   6 C        2.909    -0.049    29.213     8.863
    17   6 C        2.922    -0.041    29.016     8.834
    18   6 C        2.918    -0.037    28.924     8.819
    19   6 C        2.911    -0.039    28.965     8.825
    20   6 C        3.064    -0.019    28.411     8.741
    21   6 C        3.064    -0.019    28.411     8.741
    22   6 C        2.911    -0.039    28.965     8.825
    23   6 C        2.918    -0.037    28.926     8.820
    24   6 C        2.922    -0.041    29.019     8.834
    25   6 C        2.909    -0.049    29.220     8.864
    26   6 C        3.068     0.047    26.887     8.502
    27   6 C        2.911    -0.063    29.574     8.917
    28   6 C        3.063    -0.025    28.570     8.765
    29   6 C        3.061    -0.024    28.548     8.762
    30   6 C        2.911    -0.063    29.555     8.915
    31   6 C        2.909     0.060    26.657     8.466
    32   7 N        2.802    -0.024    21.708     6.920
    33   6 C        3.068     0.047    26.885     8.502
    34   6 C        2.909    -0.049    29.221     8.864
    35   6 C        2.922    -0.041    29.018     8.834
    36   6 C        2.918    -0.037    28.930     8.820
    37   6 C        2.911    -0.039    28.964     8.825
    38   6 C        3.064    -0.019    28.413     8.741
    39   6 C        3.064    -0.019    28.412     8.741
    40   6 C        2.911    -0.039    28.963     8.825
    41   6 C        2.918    -0.037    28.927     8.820
    42   6 C        2.922    -0.041    29.013     8.833
    43   6 C        2.909    -0.049    29.214     8.863
    44   6 C        3.069     0.047    26.882     8.502
    45   6 C        2.921    -0.070    29.749     8.944
    46   6 C        2.906    -0.058    29.437     8.896
    47   6 C        3.070     0.042    26.993     8.519
    48   1 H        0.925     0.032     2.562     2.503
    49   1 H        0.925     0.031     2.570     2.507
    50   1 H        0.925     0.028     2.609     2.526
    51   1 H        0.924     0.029     2.604     2.524
    52   1 H        0.924     0.027     2.623     2.533
    53   1 H        0.924     0.032     2.562     2.503
    54   1 H        0.924     0.033     2.545     2.495
    55   1 H        0.924     0.034     2.529     2.487
    56   1 H        0.925     0.043     2.414     2.430
    57   1 H        0.924     0.048     2.340     2.392
    58   1 H        0.924     0.044     2.402     2.424
    59   1 H        0.924     0.035     2.519     2.482
    60   1 H        0.925     0.033     2.541     2.493
    61   1 H        0.925     0.037     2.483     2.464
    62   1 H        0.925     0.036     2.497     2.471
    63   1 H        0.924     0.059     2.214     2.327
    64   1 H        0.924     0.061     2.188     2.313
    65   1 H        0.926     0.031     2.571     2.507
    66   1 H        0.926     0.029     2.602     2.523
    67   1 H        0.926     0.033     2.545     2.495
    68   1 H        0.926     0.029     2.602     2.523
    69   1 H        0.926     0.029     2.603     2.523
    70   1 H        0.926     0.030     2.593     2.518
    71   1 H        0.926     0.029     2.597     2.520
    72   1 H        0.926     0.029     2.603     2.523
    73   1 H        0.926     0.030     2.592     2.518
    74   1 H        0.926     0.034     2.525     2.485
    75   1 H        0.926     0.030     2.590     2.517
    76   1 H        0.926     0.029     2.595     2.519
    77   1 H        0.926     0.034     2.528     2.487
    78   1 H        0.926     0.030     2.593     2.518
    79   1 H        0.926     0.029     2.605     2.524
    80   1 H        0.926     0.029     2.598     2.521
    81   1 H        0.926     0.029     2.594     2.519
    82   1 H        0.926     0.029     2.605     2.524
    83   1 H        0.926     0.029     2.603     2.523
    84   1 H        0.926     0.033     2.545     2.495
    85   1 H        0.926     0.029     2.605     2.524
    86   1 H        0.926     0.035     2.519     2.482

molecular dipole:
                 x           y           z       tot (Debye)
 q only:       -0.176      -2.010       0.501
   full:       -0.167      -2.035       0.564       5.385

 projected vibrational frequencies (cm⁻¹)
eigval :       -0.00    -0.00    -0.00    -0.00     0.00     0.00
eigval :        8.71    13.10    16.52    19.72    22.19    23.77
eigval :       30.46    40.53    48.80    50.39    66.07    79.00
eigval :       90.19   105.67   113.31   115.68   121.38   125.34
eigval :      139.16   142.51   150.92   157.68   173.93   186.21
eigval :      195.45   216.66   223.50   242.75   244.09   254.44
eigval :      265.34   266.73   273.10   279.12   296.89   315.72
eigval :      334.23   344.87   367.23   377.58   379.06   380.77
eigval :      388.91   393.02   411.00   417.35   418.82   420.31
eigval :      434.70   434.87   446.32   450.89   488.36   495.24
eigval :      513.25   513.74   528.07   528.82   529.58   532.66
eigval :      537.76   549.47   556.83   581.43   582.47   586.27
eigval :      609.21   611.35   617.30   636.42   656.01   666.08
eigval :      666.85   670.62   675.95   697.07   700.21   700.67
eigval :      744.23   750.67   752.14   758.25   759.32   762.89
eigval :      765.30   770.33   772.74   775.26   792.11   798.65
eigval :      804.72   813.21   832.41   833.70   836.53   839.96
eigval :      855.98   857.19   857.55   858.97   874.23   889.09
eigval :      889.21   891.31   893.69   894.07   894.27   909.63
eigval :      909.86   911.34   912.80   913.18   926.09   943.86
eigval :      964.22   984.72  1000.62  1007.12  1008.01  1017.30
eigval :     1029.60  1045.65  1054.30  1057.48  1065.54  1065.62
eigval :     1069.19  1079.18  1093.34  1102.39  1102.82  1110.24
eigval :     1128.51  1138.54  1139.45  1140.16  1145.46  1148.58
eigval :     1151.98  1155.64  1165.68  1175.70  1177.66  1178.05
eigval :     1179.77  1182.61  1202.17  1206.30  1212.11  1220.34
eigval :     1223.08  1225.72  1227.11  1240.06  1245.10  1250.68
eigval :     1254.86  1265.68  1271.58  1278.34  1279.33  1289.73
eigval :     1292.03  1297.63  1308.82  1316.21  1325.05  1338.84
eigval :     1343.06  1343.73  1344.23  1346.85  1353.40  1356.42
eigval :     1359.99  1370.15  1371.52  1374.90  1384.98  1401.58
eigval :     1402.83  1404.56  1406.09  1407.92  1415.52  1415.96
eigval :     1418.49  1433.13  1449.62  1454.89  1455.46  1460.66
eigval :     1472.13  1472.62  1478.77  1486.58  1490.26  1493.81
eigval :     1495.29  1496.86  1501.63  1501.73  1507.85  1510.07
eigval :     1511.86  1524.95  1526.04  1526.83  1558.85  1559.29
eigval :     1563.31  1563.84  1606.45  2953.02  2958.22  2959.10
eigval :     2960.21  2966.08  2968.04  2979.09  2980.24  2983.49
eigval :     2991.89  3012.13  3022.63  3025.13  3025.97  3028.40
eigval :     3038.40  3039.65  3070.81  3071.17  3071.18  3071.45
eigval :     3079.31  3079.64  3080.37  3080.56  3086.31  3086.47
eigval :     3086.95  3087.73  3088.28  3092.75  3093.47  3093.78
eigval :     3094.72  3095.22  3101.09  3103.42  3105.65  3107.49

   temp. (K)  partition function   enthalpy   heat capacity  entropy
                                   cal/mol     cal/K/mol   cal/K/mol   J/K/mol
 298.15  VIB  0.516E+19            23497.096    147.815    146.052
         ROT  0.841E+08              888.752      2.981     39.243
         INT  0.434E+27            24385.849    150.796    185.295
         TR   0.146E+29             1481.254      4.968     45.087
         TOT                       25867.1026   155.7641   230.3816   963.9168

       T/K    H(0)-H(T)+PV         H(T)/Eh          T*S/Eh         G(T)/Eh
   ------------------------------------------------------------------------
    298.15    0.412219E-01    0.734176E+00    0.109462E+00    0.624714E+00
   ------------------------------------------------------------------------

         :::::::::::::::::::::::::::::::::::::::::::::::::::::
         ::                  THERMODYNAMIC                  ::
         :::::::::::::::::::::::::::::::::::::::::::::::::::::
         :: total free energy        -122.341307872743 Eh   ::
         ::.................................................::
         :: total energy             -122.966022115228 Eh   ::
         :: zero point energy           0.692954141471 Eh   ::
         :: G(RRHO) w/o ZPVE           -0.068239898986 Eh   ::
         :: G(RRHO) contrib.            0.624714242485 Eh   ::
         :::::::::::::::::::::::::::::::::::::::::::::::::::::

           -------------------------------------------------
          | TOTAL ENERGY             -122.966022115228 Eh   |
          | TOTAL ENTHALPY           -122.231846121931 Eh   |
          | TOTAL FREE ENERGY        -122.341307872743 Eh   |
          | GRADIENT NORM               0.000044663259 Eh/α |
          | HOMO-LUMO GAP               0.050015575312 eV   |
           -------------------------------------------------

 * finished run on 2025/07/20 at 12:31:54.898
