   * xtb version 6.7.1 (edcfbbe) compiled by 'albert@albert-system' on 2024-07-22

   ID    Z sym.   atoms
    1    6 C      1-8, 10-13, 15-31, 33-47
    2    7 N      9, 14, 32
    3    1 H      48-86

          program call               : xtb data2507/toluene/TCz1/TCz1.xyz --gfn 2 --gbsa toluene --ohess vtight --parallel 40 --molden --ceasefiles --namespace data2507/toluene/TCz1/TCz1_toluene_S0_preOpt
      * Solvation model:               GBSA
        Solvent                        toluene
        Solvent mass                       9.2140E+01 g/mol
          :  Hamiltonian                  GFN2-xTB          :
 * total energy  :  -123.0460510 Eh     change       -0.1805532E-08 Eh
 * total energy  :  -123.0614822 Eh     change       -0.1543114E-01 Eh
 * total energy  :  -123.0647625 Eh     change       -0.3280375E-02 Eh
 * total energy  :  -123.0653330 Eh     change       -0.5704194E-03 Eh
 * total energy  :  -123.0657652 Eh     change       -0.4322775E-03 Eh
 * total energy  :  -123.0659169 Eh     change       -0.1517039E-03 Eh
 * total energy  :  -123.0660262 Eh     change       -0.1092871E-03 Eh
 * total energy  :  -123.0661111 Eh     change       -0.8486929E-04 Eh
 * total energy  :  -123.0661982 Eh     change       -0.8712546E-04 Eh
 * total energy  :  -123.0662961 Eh     change       -0.9783229E-04 Eh
 * total energy  :  -123.0671292 Eh     change       -0.2349789E-06 Eh
 * total energy  :  -123.0671294 Eh     change       -0.1852849E-06 Eh
 * total energy  :  -123.0671295 Eh     change       -0.1813119E-06 Eh
 * total energy  :  -123.0671297 Eh     change       -0.1319824E-06 Eh
 * total energy  :  -123.0671298 Eh     change       -0.1106366E-06 Eh
 * total energy  :  -123.0671299 Eh     change       -0.1316245E-06 Eh
 * total energy  :  -123.0671300 Eh     change       -0.1392515E-06 Eh
 * total energy  :  -123.0671302 Eh     change       -0.1161326E-06 Eh
 * total energy  :  -123.0671302 Eh     change       -0.8783641E-07 Eh
   *** GEOMETRY OPTIMIZATION CONVERGED AFTER 66 ITERATIONS ***

 final structure:
================
86
 xtb: 6.7.1 (edcfbbe)
C            6.07712903370807       -5.31016546373289        1.02428376758351
C            6.11323601208727       -4.24441398640360       -0.06612761187535
C            4.88181334807054       -3.33598367416906       -0.06667348515279
C            3.59940825937813       -4.07160322968404       -0.45687299288754
C            2.39529224848586       -3.13930740516610       -0.63805270837204
C            1.29276903991960       -3.78506313215633       -1.49293362635168
C            0.86446061923284       -5.17998517701804       -1.04651685309762
C            1.84868087774440       -2.67060928149306        0.72371202338500
N            0.97190890932862       -1.53536257333284        0.59677193938296
C            1.39532834756346       -0.25070031009312        0.36154199197033
C            2.68614842674979        0.25612953487550        0.26442439433394
C            2.83979552039468        1.60586539803246        0.02645329235544
C            1.73394215679672        2.45664558130873       -0.09943885729724
N            1.94364801681457        3.82797415116066       -0.34128328052123
C            2.73350548608246        4.66902542643183        0.41278728872949
C            3.44993515437792        4.40440179045648        1.57230870497927
C            4.15042407201930        5.44553147275076        2.15016132390584
C            4.13894053219467        6.72560522713432        1.59815796100517
C            3.41334873790527        6.99977511020517        0.45590784621442
C            2.69984895217338        5.96954624385015       -0.14398251109796
C            1.84320489963115        5.89663789881048       -1.29394769035029
C            1.43207148728792        6.82434331673526       -2.24300083879145
C            0.59215411085191        6.40751170063238       -3.25640391192304
C            0.17080788916055        5.08116572800513       -3.33831118824068
C            0.56538784826403        4.14001634372966       -2.40714271148277
C            1.39571262935298        4.55661491048652       -1.37534738839377
C            0.44355269212282        1.96181273140825        0.00639135504403
C            0.27261446054431        0.60307575741100        0.23065772708008
C           -0.88351996056814       -0.22886988852180        0.39334342461633
C           -2.24687254162830        0.02779725865300        0.36470455168631
C           -3.12293080185306       -1.02417143016156        0.57976205689694
N           -4.51249631419101       -0.79726914462651        0.57067959025247
C           -5.43666406395928       -1.48013071710346       -0.19052716070865
C           -5.23930840545843       -2.48154098500428       -1.13182787470545
C           -6.35055097845537       -2.98986725523442       -1.77618341955945
C           -7.63196932090371       -2.51407870975342       -1.50237465070142
C           -7.83307060631065       -1.50458773506350       -0.58215389446885
C           -6.73138175973583       -0.97694928876501        0.07982301684114
C           -6.56725856007626        0.06091832679563        1.05838747825037
C           -7.45255414883413        0.90340203443520        1.71938748078994
C           -6.95027041039786        1.80167737048724        2.63976096158769
C           -5.58453933963658        1.85954810213804        2.91328778289838
C           -4.68409154471807        1.03303593785630        2.26937020990181
C           -5.18066979414881        0.13947194499242        1.32989265588909
C           -2.64068018937415       -2.31761197796206        0.81655292589369
C           -1.28937513830840       -2.59089311030162        0.83061609148201
C           -0.40069758816835       -1.54338137919032        0.61642866761552
H            5.26411607564106       -6.01248596446963        0.85954329102639
H            5.94548933413561       -4.85125587846779        2.00238500067004
H            7.00984206898520       -5.87041019277271        1.03304931495084
H            7.00130560817770       -3.62367719104732        0.07906447340603
H            6.20638266727124       -4.72719156713602       -1.04196118663009
H            4.77762913276751       -2.89259991859216        0.92592980349675
H            5.05275095598646       -2.52441151674196       -0.77931882232770
H            3.77974158873951       -4.58839707993760       -1.40200758488869
H            3.36253219133426       -4.82101307129588        0.29816293523018
H            2.73207221504108       -2.24537934028785       -1.17633098472833
H            0.42243126949230       -3.12431536935090       -1.49179431372056
H            1.64875968831365       -3.84723225674634       -2.52421202807812
H            1.66989560344687       -5.89753016117586       -1.17835604790307
H            0.01669867710031       -5.51061726970302       -1.64305911192002
H            0.56461899397681       -5.19299756252180       -0.00203306320564
H            2.68073121544863       -2.38477135959960        1.37266820489217
H            1.30388425702770       -3.47880393289873        1.21219557406301
H            3.55144997295735       -0.37994877273607        0.36166893824201
H            3.82981824677124        2.02502455916151       -0.07460172638297
H            3.45212394294273        3.41927394872301        2.01428315838624
H            4.71729836396500        5.26519273113343        3.05223638148856
H            4.70117198945706        7.51301953787531        2.07891634617188
H            3.39454274881121        7.99483865410319        0.03629254974508
H            1.76717048479980        7.84959424363284       -2.18701987057497
H            0.25954177750987        7.11399054081896       -4.00302042276692
H           -0.47739529396083        4.78253633365227       -4.14968092990514
H            0.24419187819708        3.11201010620976       -2.48517515147740
H           -0.40528056023146        2.62355901754533       -0.07512892035404
H           -2.62078621552825        1.02214710812702        0.17386322403689
H           -4.24895883914590       -2.84635583232423       -1.35973105886167
H           -6.22430094381464       -3.77193956974130       -2.51103240643218
H           -8.47593471110929       -2.93933328487520       -2.02588846165524
H           -8.82491898875451       -1.12747887511856       -0.38062864367099
H           -8.51223300537883        0.85119360553561        1.51700658005529
H           -7.62198656244287        2.46675509576542        3.16290497893418
H           -5.22278883122206        2.56525788701609        3.64729273034525
H           -3.62929168436530        1.07636499383912        2.49640039581330
H           -3.35074592627323       -3.11044308695117        0.99879824767591
H           -0.94773268757396       -3.59715275246092        1.01186075226725

          :  Hamiltonian                  GFN2-xTB          :
         :: gradient norm              0.000033916897 Eh/a0 ::
         :: HOMO-LUMO gap              2.730662118893 eV    ::
         :: SCC energy              -125.276461837742 Eh    ::
         :: -> dispersion             -0.111419238903 Eh    ::
         :: -> Gsolv                  -0.049283021274 Eh    ::
         :: repulsion energy           2.209331588664 Eh    ::

    * Orbital Energies and Occupations

         #    Occupation            Energy/Eh            Energy/eV
      -------------------------------------------------------------
         1        2.0000           -0.6804218             -18.5152
       ...           ...                  ...                  ...
       103        2.0000           -0.4165932             -11.3361
       104        2.0000           -0.4165188             -11.3341
       105        2.0000           -0.4154796             -11.3058
       106        2.0000           -0.4149588             -11.2916
       107        2.0000           -0.4099328             -11.1548
       108        2.0000           -0.4026476             -10.9566
       109        2.0000           -0.4025902             -10.9550
       110        2.0000           -0.3861385             -10.5074
       111        2.0000           -0.3758629             -10.2277
       112        2.0000           -0.3758304             -10.2269
       113        2.0000           -0.3754377             -10.2162
       114        2.0000           -0.3590951              -9.7715
       115        2.0000           -0.3525229              -9.5926 (HOMO)
       116                         -0.2521729              -6.8620 (LUMO)
       117                         -0.2432981              -6.6205
       118                         -0.2425227              -6.5994
       119                         -0.2309938              -6.2857
       120                         -0.2193493              -5.9688
       121                         -0.2193194              -5.9680
       122                         -0.2091485              -5.6912
       123                         -0.1984391              -5.3998
       124                         -0.1836492              -4.9973
       125                         -0.1835708              -4.9952
       126                         -0.1832569              -4.9867
       ...                                ...                  ...
       227                          0.7473990              20.3378
      -------------------------------------------------------------
                  HL-Gap            0.1003500 Eh            2.7307 eV

     #   Z          covCN         q      C6AA      α(0)
     1   6 C        3.751    -0.103    22.523     6.768
     2   6 C        3.800    -0.053    21.532     6.607
     3   6 C        3.801    -0.057    21.604     6.618
     4   6 C        3.804    -0.066    21.756     6.640
     5   6 C        3.850    -0.024    20.962     6.512
     6   6 C        3.801    -0.057    21.594     6.616
     7   6 C        3.751    -0.102    22.509     6.766
     8   6 C        3.742    -0.009    20.807     6.508
     9   7 N        2.795    -0.036    21.940     6.957
    10   6 C        3.087     0.042    26.957     8.511
    11   6 C        2.909    -0.052    29.282     8.873
    12   6 C        2.925    -0.046    29.150     8.854
    13   6 C        2.912     0.051    26.857     8.498
    14   7 N        2.803    -0.049    22.178     6.994
    15   6 C        3.079     0.048    26.845     8.494
    16   6 C        2.909    -0.053    29.307     8.877
    17   6 C        2.923    -0.036    28.898     8.816
    18   6 C        2.919    -0.044    29.095     8.845
    19   6 C        2.912    -0.036    28.889     8.814
    20   6 C        3.068    -0.020    28.443     8.745
    21   6 C        3.068    -0.020    28.444     8.745
    22   6 C        2.912    -0.036    28.890     8.814
    23   6 C        2.919    -0.044    29.093     8.845
    24   6 C        2.924    -0.036    28.895     8.815
    25   6 C        2.909    -0.052    29.301     8.876
    26   6 C        3.079     0.048    26.843     8.494
    27   6 C        2.914    -0.046    29.145     8.853
    28   6 C        3.069    -0.018    28.390     8.737
    29   6 C        3.071    -0.019    28.401     8.738
    30   6 C        2.914    -0.046    29.148     8.853
    31   6 C        2.913     0.051    26.863     8.499
    32   7 N        2.803    -0.049    22.178     6.994
    33   6 C        3.079     0.048    26.845     8.494
    34   6 C        2.909    -0.053    29.306     8.877
    35   6 C        2.924    -0.036    28.899     8.816
    36   6 C        2.919    -0.044    29.096     8.845
    37   6 C        2.912    -0.036    28.889     8.814
    38   6 C        3.068    -0.020    28.444     8.745
    39   6 C        3.068    -0.020    28.445     8.745
    40   6 C        2.912    -0.036    28.891     8.814
    41   6 C        2.919    -0.044    29.094     8.845
    42   6 C        2.924    -0.036    28.895     8.815
    43   6 C        2.909    -0.052    29.303     8.876
    44   6 C        3.079     0.048    26.844     8.494
    45   6 C        2.925    -0.046    29.151     8.854
    46   6 C        2.910    -0.050    29.248     8.868
    47   6 C        3.082     0.044    26.929     8.507
    48   1 H        0.925     0.036     2.498     2.472
    49   1 H        0.925     0.034     2.532     2.488
    50   1 H        0.925     0.031     2.573     2.508
    51   1 H        0.924     0.028     2.611     2.527
    52   1 H        0.924     0.030     2.588     2.516
    53   1 H        0.924     0.029     2.597     2.520
    54   1 H        0.924     0.028     2.608     2.526
    55   1 H        0.924     0.042     2.428     2.437
    56   1 H        0.925     0.043     2.406     2.426
    57   1 H        0.924     0.036     2.497     2.471
    58   1 H        0.924     0.032     2.556     2.500
    59   1 H        0.924     0.032     2.553     2.499
    60   1 H        0.925     0.038     2.470     2.458
    61   1 H        0.925     0.034     2.536     2.490
    62   1 H        0.925     0.034     2.534     2.489
    63   1 H        0.924     0.055     2.259     2.350
    64   1 H        0.924     0.059     2.208     2.323
    65   1 H        0.926     0.044     2.397     2.421
    66   1 H        0.926     0.040     2.449     2.447
    67   1 H        0.926     0.029     2.602     2.523
    68   1 H        0.926     0.028     2.612     2.528
    69   1 H        0.926     0.026     2.651     2.546
    70   1 H        0.926     0.028     2.622     2.532
    71   1 H        0.926     0.028     2.619     2.531
    72   1 H        0.926     0.025     2.652     2.547
    73   1 H        0.926     0.028     2.620     2.531
    74   1 H        0.926     0.028     2.614     2.528
    75   1 H        0.926     0.038     2.475     2.460
    76   1 H        0.926     0.038     2.475     2.460
    77   1 H        0.926     0.029     2.598     2.521
    78   1 H        0.926     0.028     2.611     2.527
    79   1 H        0.926     0.025     2.652     2.547
    80   1 H        0.926     0.027     2.623     2.533
    81   1 H        0.926     0.028     2.620     2.531
    82   1 H        0.926     0.025     2.653     2.547
    83   1 H        0.926     0.028     2.621     2.532
    84   1 H        0.926     0.028     2.615     2.529
    85   1 H        0.926     0.040     2.447     2.446
    86   1 H        0.926     0.043     2.415     2.430

molecular dipole:
                 x           y           z       tot (Debye)
 q only:        1.456      -1.990       0.182
   full:        1.471      -1.994       0.200       6.320

 projected vibrational frequencies (cm⁻¹)
eigval :       -0.00    -0.00    -0.00    -0.00     0.00     0.00
eigval :       13.10    14.94    16.94    20.02    21.58    25.85
eigval :       36.09    39.38    46.83    58.45    78.09    91.84
eigval :      102.56   105.54   112.19   115.18   120.46   124.57
eigval :      137.60   143.01   145.18   150.78   166.88   182.00
eigval :      190.33   222.23   226.81   244.36   254.82   263.67
eigval :      271.30   272.82   276.36   280.47   287.95   296.59
eigval :      321.32   340.79   347.78   376.05   385.66   391.42
eigval :      398.91   400.28   406.37   422.87   425.21   429.79
eigval :      432.85   435.31   436.51   492.57   493.23   517.64
eigval :      518.04   528.02   530.77   535.30   540.87   541.23
eigval :      542.20   552.77   561.65   585.84   589.07   592.78
eigval :      606.22   623.55   633.31   643.02   673.35   673.81
eigval :      679.49   684.52   703.79   708.66   709.92   710.79
eigval :      753.96   755.28   755.86   767.78   768.01   779.20
eigval :      779.30   786.55   808.58   813.02   815.93   818.98
eigval :      820.97   835.35   865.65   866.48   869.02   870.07
eigval :      870.97   878.95   881.43   897.09   897.19   899.13
eigval :      899.40   900.91   902.12   908.20   911.64   921.24
eigval :      921.63   921.94   922.48   928.06   934.76   949.08
eigval :      992.79   994.44   999.06  1003.83  1010.95  1011.38
eigval :     1031.21  1052.16  1055.87  1064.95  1067.62  1068.39
eigval :     1070.66  1071.96  1102.92  1107.51  1110.96  1124.38
eigval :     1138.58  1149.82  1150.48  1153.27  1162.85  1164.36
eigval :     1169.35  1172.71  1174.17  1179.96  1180.27  1181.39
eigval :     1183.06  1196.14  1211.35  1223.11  1226.29  1228.25
eigval :     1235.68  1236.25  1244.68  1246.80  1263.20  1266.08
eigval :     1281.81  1292.48  1297.54  1298.58  1302.43  1305.68
eigval :     1309.82  1314.39  1332.22  1336.15  1345.65  1346.63
eigval :     1349.61  1354.15  1356.61  1356.85  1357.94  1362.59
eigval :     1362.94  1373.32  1384.19  1388.94  1413.47  1414.37
eigval :     1416.95  1427.20  1427.35  1433.32  1438.13  1447.53
eigval :     1455.84  1473.10  1473.91  1480.60  1483.94  1487.48
eigval :     1487.63  1487.73  1493.17  1493.41  1495.29  1502.72
eigval :     1504.05  1508.16  1509.99  1561.17  1570.40  1571.86
eigval :     1577.60  1586.87  1587.10  1596.07  1596.67  1597.84
eigval :     1613.22  1613.42  1616.44  2923.85  2953.22  2957.78
eigval :     2960.86  2962.70  2970.66  2975.61  2978.26  2979.91
eigval :     3000.80  3004.22  3024.06  3028.64  3029.58  3037.42
eigval :     3042.50  3048.25  3068.50  3068.68  3068.82  3068.99
eigval :     3073.66  3074.06  3074.42  3074.77  3081.65  3081.94
eigval :     3082.41  3082.77  3088.03  3088.38  3088.64  3088.94
eigval :     3090.85  3091.13  3091.70  3094.23  3102.65  3103.72

   temp. (K)  partition function   enthalpy   heat capacity  entropy
                                   cal/mol     cal/K/mol   cal/K/mol   J/K/mol
 298.15  VIB  0.145E+19            23198.458    145.903    143.813
         ROT  0.100E+09              888.752      2.981     39.592
         INT  0.145E+27            24087.210    148.884    183.405
         TR   0.146E+29             1481.254      4.968     45.087
         TOT                       25568.4640   153.8521   228.4915   956.0086

       T/K    H(0)-H(T)+PV         H(T)/Eh          T*S/Eh         G(T)/Eh
   ------------------------------------------------------------------------
    298.15    0.407459E-01    0.739682E+00    0.108564E+00    0.631118E+00
   ------------------------------------------------------------------------

         :::::::::::::::::::::::::::::::::::::::::::::::::::::
         ::                  THERMODYNAMIC                  ::
         :::::::::::::::::::::::::::::::::::::::::::::::::::::
         :: total free energy        -122.436012076145 Eh   ::
         ::.................................................::
         :: total energy             -123.067130247554 Eh   ::
         :: zero point energy           0.698935932067 Eh   ::
         :: G(RRHO) w/o ZPVE           -0.067817760658 Eh   ::
         :: G(RRHO) contrib.            0.631118171409 Eh   ::
         :::::::::::::::::::::::::::::::::::::::::::::::::::::

           -------------------------------------------------
          | TOTAL ENERGY             -123.067130247554 Eh   |
          | TOTAL ENTHALPY           -122.327448374497 Eh   |
          | TOTAL FREE ENERGY        -122.436012076145 Eh   |
          | GRADIENT NORM               0.000033921719 Eh/α |
          | HOMO-LUMO GAP               2.730662357667 eV   |
           -------------------------------------------------

 * finished run on 2025/07/20 at 11:29:14.845
