   * xtb version 6.7.1 (edcfbbe) compiled by 'albert@albert-system' on 2024-07-22

   ID    Z sym.   atoms
    1    6 C      1-8, 10-13, 15-31, 33-47
    2    7 N      9, 14, 32
    3    1 H      48-86

          program call               : xtb data2507/toluene/TCZ1/TCZ1_toluene_T1_crest.xyz --gfn 2 --uhf 2 --gbsa toluene --ohess vtight --parallel 40 --molden --ceasefiles --namespace data2507/toluene/TCZ1/TCZ1_toluene_T1_finalOpt
      * Solvation model:               GBSA
        Solvent                        toluene
        Solvent mass                       9.2140E+01 g/mol
          :  Hamiltonian                  GFN2-xTB          :
 * total energy  :  -122.9649217 Eh     change       -0.7025082E-07 Eh
 * total energy  :  -122.9650310 Eh     change       -0.1092877E-03 Eh
 * total energy  :  -122.9651029 Eh     change       -0.7189173E-04 Eh
 * total energy  :  -122.9651469 Eh     change       -0.4394865E-04 Eh
 * total energy  :  -122.9651906 Eh     change       -0.4376108E-04 Eh
 * total energy  :  -122.9652791 Eh     change       -0.8850516E-04 Eh
 * total energy  :  -122.9653763 Eh     change       -0.9717201E-04 Eh
 * total energy  :  -122.9654466 Eh     change       -0.7028481E-04 Eh
 * total energy  :  -122.9655093 Eh     change       -0.6269922E-04 Eh
 * total energy  :  -122.9655615 Eh     change       -0.5224370E-04 Eh
 * total energy  :  -122.9658905 Eh     change       -0.1918310E-06 Eh
 * total energy  :  -122.9658910 Eh     change       -0.5780709E-06 Eh
 * total energy  :  -122.9658912 Eh     change       -0.1417369E-06 Eh
 * total energy  :  -122.9658914 Eh     change       -0.2020004E-06 Eh
 * total energy  :  -122.9658915 Eh     change       -0.1340995E-06 Eh
 * total energy  :  -122.9658916 Eh     change       -0.1017991E-06 Eh
 * total energy  :  -122.9658918 Eh     change       -0.1373114E-06 Eh
 * total energy  :  -122.9658919 Eh     change       -0.1581892E-06 Eh
 * total energy  :  -122.9658920 Eh     change       -0.4082635E-07 Eh
   *** GEOMETRY OPTIMIZATION CONVERGED AFTER 52 ITERATIONS ***

 final structure:
================
86
 xtb: 6.7.1 (edcfbbe)
C            0.35415058257658       -1.79987544408426       -3.37503944427769
C           -0.63401559063003       -2.96123976601695       -3.40319117209394
C            0.02971309607854       -4.32543245056072       -3.19550999547023
C            0.56088377155206       -4.54359474462929       -1.77667129635570
C           -0.55267904352276       -4.81463576804475       -0.75389344086323
C           -0.87637441805052       -6.31131208764811       -0.67909379852064
C           -2.21855068914570       -6.61650239256454       -0.02196746998801
C           -0.15759035742186       -4.27383625506823        0.63535660083471
N           -0.06541229754583       -2.84123281289310        0.63715284509290
C            1.08887750799713       -2.10046410541511        0.58305383713499
C            2.41027594716493       -2.50880387058486        0.61080848483849
C            3.40803083759055       -1.53118791653099        0.55112943808269
C            3.07803907524769       -0.17449693619191        0.45603356241837
N            4.09587321696887        0.77586546997404        0.39487224364912
C            4.16332331412888        1.82975721265320       -0.49942475802791
C            3.31616860204595        2.15309983796374       -1.54705608368270
C            3.63675901957386        3.25868683688698       -2.32401276997950
C            4.78005733283667        4.01098447939541       -2.07275964858613
C            5.64805824425510        3.67428823611257       -1.04891825458002
C            5.34563374496518        2.57236006251940       -0.25502095098885
C            6.01046781114449        1.93534131506714        0.84375755429386
C            7.18017440180394        2.21020095796770        1.54541609431959
C            7.52371684976410        1.39141083705721        2.60675226001248
C            6.71356855659916        0.32526710230356        2.98540326026026
C            5.54186949069367        0.03194178282580        2.30008795022007
C            5.20870016821219        0.82721261048668        1.21562627343264
C            1.74534314617313        0.24970547833404        0.42716349424341
C            0.73847830651752       -0.71701448541988        0.50021163815384
C           -0.67936882175645       -0.65380896887902        0.49898699347151
C           -1.59885264141186        0.39576610540214        0.42161101122292
C           -2.96291896827357        0.08655334308240        0.45083962275498
N           -3.89481375122638        1.12220475654253        0.38129475964528
C           -4.99477499892208        1.28362660919554        1.20442476086978
C           -5.39500043126778        0.53395598436962        2.29885449945472
C           -6.53181579148800        0.94086721444647        2.98422559169385
C           -7.24347749837505        2.07190092607522        2.59572010833932
C           -6.83204472279349        2.84293595550171        1.52290996126837
C           -5.69519533501750        2.45475786803384        0.82109819414150
C           -4.98103502091941        3.01499590108593       -0.28867719330749
C           -5.18687441686026        4.12823086745516       -1.09741458956219
C           -4.29713972395611        4.37073600132406       -2.12913938222398
C           -3.22627202740010        3.51603685684233       -2.37247250652557
C           -3.00248991038931        2.39780681898557       -1.58046524786348
C           -3.87142891565526        2.16596642535367       -0.52631994516981
C           -3.40902344217405       -1.23520181615229        0.55442275902709
C           -2.49864830038899       -2.29494960219421        0.61715114059692
C           -1.14895197153965       -1.99910168276296        0.58355083643708
H           -0.15804209782128       -0.86679970805463       -3.60134950478357
H            1.14013341540485       -1.94708891987241       -4.11347578504378
H            0.81730628702667       -1.69724631608157       -2.39666294373261
H           -1.39888162699487       -2.79486604607758       -2.64156299928290
H           -1.13760650753979       -2.96795239771807       -4.37331717113822
H           -0.69155043062314       -5.11026237192436       -3.43535416624925
H            0.85899757239631       -4.41665519191233       -3.90105454706736
H            1.25386026398645       -5.38836368013850       -1.77830555313782
H            1.12876296443166       -3.66083398468074       -1.48494548854275
H           -1.45350306688093       -4.28104354936111       -1.06941490462825
H           -0.89353947502323       -6.70812923275557       -1.69607071908911
H           -0.07860212705663       -6.82664640517405       -0.13886962587966
H           -2.23365612278013       -6.30890258384262        1.02103352153212
H           -2.41644659858332       -7.68560615346586       -0.05665244980849
H           -3.02412815793789       -6.10514816381881       -0.54540671451844
H            0.80553252584415       -4.69067442508284        0.93448447435564
H           -0.90816271857531       -4.57125711762280        1.37246086291290
H            2.68976290052816       -3.54970411073673        0.65222570595482
H            4.44441550901223       -1.82678529807752        0.52844236674852
H            2.43969880861630        1.56269753415321       -1.76502734592785
H            2.98708603449807        3.53459704658721       -3.14135950843076
H            4.99719114663249        4.86617784611757       -2.69646487043905
H            6.54443904738901        4.24867340824343       -0.87005505343866
H            7.80038047592791        3.04945557771486        1.26896381186398
H            8.43023621558838        1.58813965064762        3.16083512208517
H            6.99673624935249       -0.28380151451810        3.83096659693805
H            4.90745624411626       -0.78218686871099        2.61497181499254
H            1.50497697019340        1.30019978571946        0.40732765640335
H           -1.27036658606597        1.42215867556377        0.39670793880000
H           -4.83689751103094       -0.33176733481304        2.62049140381474
H           -6.86600474470188        0.36958086769181        3.83757083101615
H           -8.12570840606055        2.35676200980110        3.15069885318630
H           -7.37490574002659        3.73150340439967        1.23787428267457
H           -6.02706755760649        4.78354203472664       -0.92409394057910
H           -4.43972146262084        5.23248473641455       -2.76521514355456
H           -2.55833519106651        3.72152025830928       -3.19582384054505
H           -2.18292282385472        1.72799153375196       -1.79031708560984
H           -4.46744164741402       -1.43962260742644        0.53826823380972
H           -2.86211397944012       -3.30828870357549        0.67218186823300

          :  Hamiltonian                  GFN2-xTB          :
         :: gradient norm              0.000046159879 Eh/a0 ::
         :: HOMO-LUMO gap              0.048718909231 eV    ::
         :: SCC energy              -125.154877681426 Eh    ::
         :: -> dispersion             -0.114539250890 Eh    ::
         :: -> Gsolv                  -0.047858121893 Eh    ::
         :: repulsion energy           2.188985671355 Eh    ::

    * Orbital Energies and Occupations

         #    Occupation            Energy/Eh            Energy/eV
      -------------------------------------------------------------
         1        2.0000           -0.6786821             -18.4679
       ...           ...                  ...                  ...
       104        2.0000           -0.4166415             -11.3374
       105        2.0000           -0.4163255             -11.3288
       106        2.0000           -0.4157886             -11.3142
       107        2.0000           -0.4059956             -11.0477
       108        2.0000           -0.4048158             -11.0156
       109        2.0000           -0.4047258             -11.0131
       110        2.0000           -0.3775830             -10.2746
       111        2.0000           -0.3770929             -10.2612
       112        2.0000           -0.3770357             -10.2597
       113        2.0000           -0.3767478             -10.2518
       114        1.9935           -0.3610865              -9.8257
       115        1.0065           -0.3515372              -9.5658
       116        0.6510           -0.2475817              -6.7370 (HOMO)
       117        0.2209           -0.2457916              -6.6883 (LUMO)
       118        0.1281           -0.2451674              -6.6713
       119                         -0.2278665              -6.2006
       120                         -0.2218976              -6.0381
       121                         -0.2218803              -6.0377
       122                         -0.2099580              -5.7132
       123                         -0.1964430              -5.3455
       124                         -0.1857178              -5.0536
       125                         -0.1857083              -5.0534
       126                         -0.1824151              -4.9638
       127                         -0.1796434              -4.8883
       ...                                ...                  ...
       227                          0.7469244              20.3248
      -------------------------------------------------------------
                  HL-Gap            0.0017900 Eh            0.0487 eV

     #   Z          covCN         q      C6AA      α(0)
     1   6 C        3.751    -0.097    22.419     6.752
     2   6 C        3.799    -0.052    21.501     6.602
     3   6 C        3.801    -0.058    21.620     6.620
     4   6 C        3.804    -0.066    21.772     6.643
     5   6 C        3.851    -0.024    20.965     6.513
     6   6 C        3.803    -0.060    21.649     6.624
     7   6 C        3.751    -0.103    22.537     6.770
     8   6 C        3.744    -0.009    20.810     6.508
     9   7 N        2.799    -0.010    21.448     6.878
    10   6 C        3.064     0.041    27.008     8.522
    11   6 C        2.906    -0.058    29.449     8.898
    12   6 C        2.920    -0.070    29.755     8.945
    13   6 C        2.908     0.060    26.657     8.466
    14   7 N        2.802    -0.023    21.692     6.917
    15   6 C        3.068     0.047    26.884     8.502
    16   6 C        2.909    -0.049    29.209     8.862
    17   6 C        2.922    -0.041    29.018     8.834
    18   6 C        2.918    -0.037    28.920     8.819
    19   6 C        2.911    -0.039    28.967     8.825
    20   6 C        3.063    -0.019    28.412     8.741
    21   6 C        3.063    -0.019    28.411     8.741
    22   6 C        2.911    -0.039    28.968     8.826
    23   6 C        2.918    -0.037    28.923     8.819
    24   6 C        2.922    -0.041    29.025     8.835
    25   6 C        2.909    -0.049    29.225     8.864
    26   6 C        3.067     0.046    26.891     8.503
    27   6 C        2.911    -0.063    29.572     8.917
    28   6 C        3.063    -0.025    28.574     8.766
    29   6 C        3.061    -0.025    28.554     8.763
    30   6 C        2.911    -0.062    29.549     8.914
    31   6 C        2.909     0.060    26.659     8.466
    32   7 N        2.802    -0.024    21.709     6.920
    33   6 C        3.068     0.047    26.886     8.502
    34   6 C        2.909    -0.049    29.227     8.865
    35   6 C        2.922    -0.041    29.018     8.834
    36   6 C        2.918    -0.037    28.929     8.820
    37   6 C        2.911    -0.039    28.964     8.825
    38   6 C        3.064    -0.019    28.412     8.741
    39   6 C        3.063    -0.019    28.413     8.741
    40   6 C        2.911    -0.039    28.964     8.825
    41   6 C        2.918    -0.037    28.927     8.820
    42   6 C        2.922    -0.041    29.014     8.833
    43   6 C        2.909    -0.049    29.211     8.862
    44   6 C        3.069     0.047    26.879     8.501
    45   6 C        2.921    -0.070    29.747     8.944
    46   6 C        2.906    -0.058    29.439     8.897
    47   6 C        3.069     0.042    26.999     8.520
    48   1 H        0.925     0.028     2.614     2.529
    49   1 H        0.925     0.032     2.558     2.501
    50   1 H        0.925     0.031     2.573     2.508
    51   1 H        0.924     0.029     2.600     2.522
    52   1 H        0.924     0.028     2.622     2.532
    53   1 H        0.924     0.032     2.563     2.504
    54   1 H        0.924     0.033     2.547     2.496
    55   1 H        0.924     0.034     2.532     2.489
    56   1 H        0.925     0.043     2.407     2.426
    57   1 H        0.924     0.048     2.339     2.392
    58   1 H        0.924     0.044     2.402     2.424
    59   1 H        0.924     0.035     2.519     2.482
    60   1 H        0.925     0.033     2.541     2.493
    61   1 H        0.925     0.037     2.484     2.464
    62   1 H        0.925     0.036     2.500     2.472
    63   1 H        0.924     0.059     2.215     2.328
    64   1 H        0.924     0.061     2.188     2.313
    65   1 H        0.926     0.031     2.567     2.506
    66   1 H        0.926     0.029     2.598     2.521
    67   1 H        0.926     0.034     2.529     2.487
    68   1 H        0.926     0.029     2.598     2.521
    69   1 H        0.926     0.029     2.603     2.523
    70   1 H        0.926     0.029     2.595     2.519
    71   1 H        0.926     0.029     2.596     2.520
    72   1 H        0.926     0.029     2.603     2.523
    73   1 H        0.926     0.029     2.598     2.521
    74   1 H        0.926     0.034     2.535     2.490
    75   1 H        0.926     0.030     2.589     2.516
    76   1 H        0.926     0.029     2.597     2.520
    77   1 H        0.926     0.034     2.534     2.489
    78   1 H        0.926     0.029     2.598     2.520
    79   1 H        0.926     0.029     2.604     2.524
    80   1 H        0.926     0.029     2.597     2.520
    81   1 H        0.926     0.029     2.596     2.520
    82   1 H        0.926     0.029     2.606     2.524
    83   1 H        0.926     0.029     2.603     2.523
    84   1 H        0.926     0.033     2.538     2.492
    85   1 H        0.926     0.029     2.604     2.523
    86   1 H        0.926     0.035     2.517     2.481

molecular dipole:
                 x           y           z       tot (Debye)
 q only:       -0.153      -2.069      -0.093
   full:       -0.145      -2.117      -0.044       5.394

 projected vibrational frequencies (cm⁻¹)
eigval :       -0.00    -0.00     0.00     0.00     0.00     0.00
eigval :       12.77    16.56    20.45    23.63    26.56    31.36
eigval :       32.20    39.95    49.28    51.05    66.92    80.94
eigval :       88.20   103.17   116.10   121.23   123.10   127.28
eigval :      139.60   142.13   152.21   155.63   178.59   186.25
eigval :      196.29   217.30   232.49   242.75   248.07   257.65
eigval :      264.70   267.08   273.10   283.81   289.22   316.20
eigval :      337.22   344.95   362.78   372.12   377.23   383.56
eigval :      393.25   407.43   410.81   418.45   418.80   420.49
eigval :      434.43   434.64   440.61   452.10   488.60   495.45
eigval :      513.32   513.85   527.16   528.22   529.31   531.71
eigval :      537.60   550.09   560.72   580.96   582.20   586.35
eigval :      601.69   611.62   626.41   637.44   658.64   665.60
eigval :      666.31   672.96   674.80   696.37   700.21   700.39
eigval :      744.18   750.62   751.99   758.48   759.31   764.14
eigval :      766.10   770.71   773.94   776.78   791.51   798.18
eigval :      803.86   812.85   834.84   836.26   837.80   841.52
eigval :      854.44   856.28   858.01   858.68   874.38   890.16
eigval :      890.52   893.02   893.67   893.79   894.07   908.35
eigval :      909.11   910.22   912.01   913.79   924.95   944.18
eigval :      964.97   984.46   999.86  1007.08  1007.93  1017.46
eigval :     1031.35  1045.64  1055.10  1057.86  1065.28  1065.94
eigval :     1069.27  1079.39  1094.06  1101.94  1102.65  1109.68
eigval :     1128.45  1138.24  1138.74  1140.60  1145.20  1148.88
eigval :     1150.82  1156.85  1165.65  1174.65  1175.66  1177.59
eigval :     1179.70  1182.71  1201.76  1207.50  1212.91  1220.00
eigval :     1222.81  1225.42  1227.03  1240.80  1244.51  1250.86
eigval :     1255.36  1265.81  1271.48  1278.21  1279.17  1289.45
eigval :     1291.85  1297.90  1309.69  1317.07  1324.92  1338.42
eigval :     1342.25  1343.41  1345.74  1346.68  1353.59  1358.06
eigval :     1360.15  1370.75  1371.82  1375.52  1384.92  1401.25
eigval :     1402.53  1404.54  1406.42  1407.90  1416.20  1416.62
eigval :     1418.57  1433.21  1451.70  1454.69  1455.23  1460.57
eigval :     1471.97  1472.49  1479.13  1487.00  1490.27  1494.61
eigval :     1495.06  1496.12  1502.25  1503.08  1507.88  1511.16
eigval :     1513.41  1524.34  1525.66  1526.36  1558.00  1559.01
eigval :     1562.76  1563.67  1606.27  2955.13  2958.51  2960.82
eigval :     2961.12  2966.82  2968.97  2979.97  2980.73  2984.69
eigval :     2993.37  3013.35  3022.88  3025.17  3027.78  3028.14
eigval :     3038.33  3040.58  3069.87  3070.39  3070.97  3071.13
eigval :     3079.16  3079.91  3079.98  3080.61  3086.62  3087.02
eigval :     3087.98  3088.16  3088.85  3093.74  3094.05  3094.31
eigval :     3095.25  3095.76  3101.26  3103.53  3106.43  3108.01

   temp. (K)  partition function   enthalpy   heat capacity  entropy
                                   cal/mol     cal/K/mol   cal/K/mol   J/K/mol
 298.15  VIB  0.105E+19            23416.890    147.956    144.499
         ROT  0.851E+08              888.752      2.981     39.267
         INT  0.893E+26            24305.642    150.936    183.766
         TR   0.146E+29             1481.254      4.968     45.087
         TOT                       25786.8959   155.9046   228.8527   957.5198

       T/K    H(0)-H(T)+PV         H(T)/Eh          T*S/Eh         G(T)/Eh
   ------------------------------------------------------------------------
    298.15    0.410940E-01    0.734300E+00    0.108735E+00    0.625564E+00
   ------------------------------------------------------------------------

         :::::::::::::::::::::::::::::::::::::::::::::::::::::
         ::                  THERMODYNAMIC                  ::
         :::::::::::::::::::::::::::::::::::::::::::::::::::::
         :: total free energy        -122.340327778127 Eh   ::
         ::.................................................::
         :: total energy             -122.965892009856 Eh   ::
         :: zero point energy           0.693205510738 Eh   ::
         :: G(RRHO) w/o ZPVE           -0.067641279008 Eh   ::
         :: G(RRHO) contrib.            0.625564231730 Eh   ::
         :::::::::::::::::::::::::::::::::::::::::::::::::::::

           -------------------------------------------------
          | TOTAL ENERGY             -122.965892009856 Eh   |
          | TOTAL ENTHALPY           -122.231592464776 Eh   |
          | TOTAL FREE ENERGY        -122.340327778127 Eh   |
          | GRADIENT NORM               0.000045744466 Eh/α |
          | HOMO-LUMO GAP               0.048709040337 eV   |
           -------------------------------------------------

 * finished run on 2025/09/13 at 12:57:56.282
