   * xtb version 6.7.1 (edcfbbe) compiled by 'albert@albert-system' on 2024-07-22

   ID    Z sym.   atoms
    1    6 C      1-8, 10-13, 15-31, 33-47
    2    7 N      9, 14, 32
    3    1 H      48-86

          program call               : xtb data2507/toluene/TCz1/TCz1_toluene_S0_finalOpt.xtbopt.xyz --gfn 2 --uhf 2 --gbsa toluene --ohess vtight --parallel 40 --molden --ceasefiles --namespace data2507/toluene/TCz1/TCz1_toluene_T1_preOpt
      * Solvation model:               GBSA
        Solvent                        toluene
        Solvent mass                       9.2140E+01 g/mol
          :  Hamiltonian                  GFN2-xTB          :
 * total energy  :  -122.9634608 Eh     change       -0.2210442E-08 Eh
 * total energy  :  -122.9653821 Eh     change       -0.1921306E-02 Eh
 * total energy  :  -122.9659276 Eh     change       -0.5454350E-03 Eh
 * total energy  :  -122.9660140 Eh     change       -0.8639907E-04 Eh
 * total energy  :  -122.9660789 Eh     change       -0.6496091E-04 Eh
 * total energy  :  -122.9661024 Eh     change       -0.2347691E-04 Eh
 * total energy  :  -122.9661238 Eh     change       -0.2143823E-04 Eh
 * total energy  :  -122.9661415 Eh     change       -0.1769207E-04 Eh
 * total energy  :  -122.9661374 Eh     change        0.4123948E-05 Eh
 * total energy  :  -122.9661506 Eh     change       -0.1321304E-04 Eh
 * total energy  :  -122.9662831 Eh     change       -0.1099173E-05 Eh
 * total energy  :  -122.9662842 Eh     change       -0.1091739E-05 Eh
 * total energy  :  -122.9662853 Eh     change       -0.1055659E-05 Eh
 * total energy  :  -122.9662862 Eh     change       -0.9609975E-06 Eh
 * total energy  :  -122.9662871 Eh     change       -0.8338928E-06 Eh
 * total energy  :  -122.9662878 Eh     change       -0.7134354E-06 Eh
 * total energy  :  -122.9662884 Eh     change       -0.6454765E-06 Eh
 * total energy  :  -122.9662891 Eh     change       -0.6350198E-06 Eh
 * total energy  :  -122.9662891 Eh     change       -0.3869189E-08 Eh
   *** GEOMETRY OPTIMIZATION CONVERGED AFTER 44 ITERATIONS ***

 final structure:
================
86
 xtb: 6.7.1 (edcfbbe)
C            0.50036747239777       -1.51070994782290       -4.26203084905085
C            1.05804330963622       -2.68515873300294       -3.46635729938445
C            0.03025103422515       -3.23887858250216       -2.48183268351237
C            0.58428373210569       -4.41486316809479       -1.67695751699015
C           -0.38354532352571       -4.91415516863916       -0.59189795171845
C           -0.34446753757223       -6.44182828656580       -0.44647809113388
C           -1.06314162552079       -7.15902520557518       -1.58423269591526
C           -0.06573896789679       -4.28185434608323        0.78098753216371
N           -0.03310161451174       -2.84848753992758        0.74436773848852
C            1.09390320869053       -2.06684009084392        0.69258822297732
C            2.42786055753864       -2.42261594998000        0.76921964571397
C            3.39009262889944       -1.41005095546700        0.70622333719068
C            3.01215038992006       -0.07218087847192        0.55065693247538
N            3.99527791166164        0.91434910569955        0.48165476103357
C            5.06873853855647        1.05235380708925        1.34296826129781
C            5.38777826264617        0.32292422927633        2.47683768005919
C            6.51419587082598        0.70054821838843        3.19583631723325
C            7.29331575205947        1.78384266423294        2.80086091941642
C            6.96335761279001        2.53524944797451        1.68654773952608
C            5.83896232140128        2.17562863018039        0.95022002624447
C            5.19751791755148        2.72850716406787       -0.20676731444175
C            5.48997562680229        3.79893096638697       -1.04610969495796
C            4.65495727570248        4.04376239997255       -2.12232053056938
C            3.55294931085079        3.23356696293556       -2.37850019667799
C            3.24276395273791        2.15847762258210       -1.55623769050504
C            4.05766366086720        1.92527439486249       -0.46032220771956
C            1.66617621276981        0.30019957911738        0.47322086024666
C            0.69436898275448       -0.70050152696197        0.56299088371183
C           -0.72482344359478       -0.68929961481653        0.54376472543711
C           -1.68207747913135        0.32333697728183        0.43204483229481
C           -3.03396450004710       -0.03537623660791        0.46288835489855
N           -4.00219117310549        0.96474067020946        0.36994751571942
C           -4.01542173409789        1.98832557390720       -0.56010070337431
C           -3.15930457990940        2.22251313878774       -1.62419869957295
C           -3.42091403006181        3.31551733737686       -2.43942013215350
C           -4.51615950162131        4.14244597814920       -2.20872930433416
C           -5.39276747656639        3.89647103080577       -1.16653642269891
C           -5.14902215822125        2.80842710098174       -0.33444662721426
C           -5.83958065583669        2.25139249329492        0.79191402958236
C           -6.98269561349796        2.62093952838155        1.49352963219413
C           -7.36432976773963        1.86117115573249        2.58530869638988
C           -6.61794077068277        0.75928636860010        2.99205495153418
C           -5.47381727886761        0.37166808778016        2.30767145126107
C           -5.10220871820145        1.11019250609684        1.19573170973408
C           -3.43265582337621       -1.36958651002090        0.59369769310135
C           -2.48433970684676       -2.39374305933228        0.68529838281899
C           -1.14663920159415       -2.04875104642884        0.65905485862735
H            0.18678389439623       -0.71295927777577       -3.59137492282826
H           -0.36229157998591       -1.82037228548447       -4.84895779266392
H            1.25304916029652       -1.11386490118312       -4.94004968559325
H            1.36836190558019       -3.47544826470780       -4.15458818085459
H            1.94371687067535       -2.35882345451238       -2.91507207443045
H           -0.27814042249820       -2.43500495531004       -1.81220846312209
H           -0.85672276676101       -3.56450608843452       -3.03179732295704
H            0.80522935202983       -5.22833908192689       -2.36988013705102
H            1.53028535025255       -4.11906946130975       -1.21991129006663
H           -1.39959937961863       -4.62070306147100       -0.87341901773291
H            0.69554218997281       -6.77237659869196       -0.40152322950000
H           -0.82123347912681       -6.72414956758052        0.49533138236064
H           -2.11211629377946       -6.87127580443597       -1.61244082889936
H           -1.00717829914678       -8.23630016530406       -1.44424675854540
H           -0.61855315648719       -6.91858760563415       -2.54669328581951
H            0.90452559712605       -4.64243414541420        1.12768716585058
H           -0.82588272871879       -4.59370410983867        1.50456894302944
H            2.74692553363771       -3.44918264115234        0.85990060346995
H            4.43736464691507       -1.66526279618513        0.72749005897833
H            4.77616355053528       -0.50438213918446        2.80238321832177
H            6.78577640586719        0.14481672046758        4.08105476120278
H            8.16445960832692        2.04738051214108        3.38331975716373
H            7.55893029379433        3.38739560831099        1.39575888757325
H            6.35500191068209        4.41828661843928       -0.86291768492243
H            4.86608756248529        4.87159082266116       -2.78380726968979
H            2.92952912675770        3.43884288643439       -3.23604783448397
H            2.39979830019271        1.52126818015113       -1.77413179392015
H            1.38865390121956        1.33971581724570        0.40626409390616
H           -1.39166454671829        1.36030255802271        0.38254993794751
H           -2.32128422964977        1.57253266800637       -1.82376180927382
H           -2.76401190233156        3.52245959309978       -3.27117764354431
H           -4.68848409784382        4.98456350531611       -2.86341153044819
H           -6.25212598980562        4.52917857766765       -1.00342452014909
H           -7.55321201012281        3.48706387573157        1.19383038970880
H           -8.25066922772023        2.13234598242016        3.14062895346281
H           -6.93008822805016        0.19619630942624        3.85911894640860
H           -4.88851954666616       -0.47064004376181        2.64284767485620
H           -4.48291736759081       -1.61226451252150        0.57645063029397
H           -2.80998792069166       -3.41887879571440        0.75804912779818

          :  Hamiltonian                  GFN2-xTB          :
         :: gradient norm              0.000050683680 Eh/a0 ::
         :: HOMO-LUMO gap              0.049819193788 eV    ::
         :: SCC energy              -125.155127568554 Eh    ::
         :: -> dispersion             -0.113422558379 Eh    ::
         :: -> Gsolv                  -0.048718465348 Eh    ::
         :: repulsion energy           2.188838487193 Eh    ::

    * Orbital Energies and Occupations

         #    Occupation            Energy/Eh            Energy/eV
      -------------------------------------------------------------
         1        2.0000           -0.6786498             -18.4670
       ...           ...                  ...                  ...
       104        2.0000           -0.4168581             -11.3433
       105        2.0000           -0.4165764             -11.3356
       106        2.0000           -0.4162451             -11.3266
       107        2.0000           -0.4063031             -11.0561
       108        2.0000           -0.4049842             -11.0202
       109        2.0000           -0.4048845             -11.0175
       110        2.0000           -0.3775381             -10.2733
       111        2.0000           -0.3772479             -10.2654
       112        2.0000           -0.3772410             -10.2653
       113        2.0000           -0.3767970             -10.2532
       114        1.9929           -0.3612763              -9.8308
       115        1.0071           -0.3518856              -9.5753
       116        0.6548           -0.2477169              -6.7407 (HOMO)
       117        0.2165           -0.2458866              -6.6909 (LUMO)
       118        0.1287           -0.2452916              -6.6747
       119                         -0.2278782              -6.2009
       120                         -0.2220540              -6.0424
       121                         -0.2220275              -6.0417
       122                         -0.2099500              -5.7130
       123                         -0.1965430              -5.3482
       124                         -0.1858864              -5.0582
       125                         -0.1858616              -5.0576
       126                         -0.1828399              -4.9753
       127                         -0.1799147              -4.8957
       ...                                ...                  ...
       227                          0.7467872              20.3211
      -------------------------------------------------------------
                  HL-Gap            0.0018304 Eh            0.0498 eV

     #   Z          covCN         q      C6AA      α(0)
     1   6 C        3.752    -0.100    22.462     6.759
     2   6 C        3.801    -0.052    21.506     6.603
     3   6 C        3.802    -0.057    21.595     6.616
     4   6 C        3.803    -0.065    21.743     6.638
     5   6 C        3.850    -0.023    20.952     6.511
     6   6 C        3.803    -0.059    21.636     6.622
     7   6 C        3.751    -0.103    22.532     6.769
     8   6 C        3.744    -0.009    20.810     6.508
     9   7 N        2.798    -0.007    21.395     6.870
    10   6 C        3.064     0.044    26.955     8.514
    11   6 C        2.906    -0.056    29.398     8.890
    12   6 C        2.920    -0.070    29.746     8.944
    13   6 C        2.909     0.060    26.649     8.465
    14   7 N        2.802    -0.023    21.694     6.918
    15   6 C        3.068     0.047    26.888     8.502
    16   6 C        2.909    -0.049    29.223     8.864
    17   6 C        2.922    -0.041    29.021     8.834
    18   6 C        2.918    -0.037    28.922     8.819
    19   6 C        2.911    -0.039    28.965     8.825
    20   6 C        3.064    -0.019    28.410     8.740
    21   6 C        3.063    -0.019    28.412     8.741
    22   6 C        2.911    -0.039    28.964     8.825
    23   6 C        2.918    -0.037    28.920     8.819
    24   6 C        2.922    -0.041    29.014     8.833
    25   6 C        2.909    -0.048    29.202     8.861
    26   6 C        3.069     0.047    26.879     8.501
    27   6 C        2.911    -0.062    29.552     8.914
    28   6 C        3.063    -0.025    28.558     8.763
    29   6 C        3.061    -0.026    28.587     8.768
    30   6 C        2.911    -0.063    29.566     8.916
    31   6 C        2.909     0.060    26.662     8.467
    32   7 N        2.802    -0.024    21.706     6.920
    33   6 C        3.069     0.047    26.878     8.501
    34   6 C        2.909    -0.048    29.204     8.861
    35   6 C        2.922    -0.041    29.011     8.833
    36   6 C        2.918    -0.037    28.924     8.819
    37   6 C        2.911    -0.039    28.961     8.824
    38   6 C        3.063    -0.019    28.411     8.741
    39   6 C        3.064    -0.019    28.410     8.740
    40   6 C        2.911    -0.039    28.962     8.825
    41   6 C        2.918    -0.037    28.927     8.820
    42   6 C        2.922    -0.041    29.016     8.833
    43   6 C        2.909    -0.049    29.224     8.864
    44   6 C        3.068     0.047    26.885     8.502
    45   6 C        2.921    -0.070    29.744     8.944
    46   6 C        2.906    -0.057    29.421     8.894
    47   6 C        3.068     0.041    27.017     8.523
    48   1 H        0.925     0.030     2.583     2.513
    49   1 H        0.925     0.033     2.542     2.493
    50   1 H        0.925     0.033     2.551     2.498
    51   1 H        0.924     0.029     2.605     2.524
    52   1 H        0.924     0.026     2.639     2.540
    53   1 H        0.924     0.028     2.611     2.527
    54   1 H        0.924     0.029     2.596     2.520
    55   1 H        0.924     0.042     2.424     2.435
    56   1 H        0.924     0.037     2.492     2.469
    57   1 H        0.924     0.046     2.376     2.411
    58   1 H        0.924     0.037     2.488     2.467
    59   1 H        0.924     0.035     2.513     2.479
    60   1 H        0.925     0.037     2.493     2.469
    61   1 H        0.925     0.038     2.481     2.463
    62   1 H        0.925     0.039     2.464     2.455
    63   1 H        0.924     0.060     2.201     2.320
    64   1 H        0.924     0.056     2.245     2.343
    65   1 H        0.926     0.029     2.596     2.520
    66   1 H        0.926     0.029     2.606     2.524
    67   1 H        0.926     0.034     2.537     2.491
    68   1 H        0.926     0.029     2.597     2.520
    69   1 H        0.926     0.029     2.601     2.522
    70   1 H        0.926     0.029     2.594     2.518
    71   1 H        0.926     0.029     2.594     2.519
    72   1 H        0.926     0.029     2.602     2.522
    73   1 H        0.926     0.029     2.595     2.519
    74   1 H        0.926     0.034     2.531     2.488
    75   1 H        0.926     0.029     2.595     2.519
    76   1 H        0.926     0.029     2.600     2.522
    77   1 H        0.926     0.033     2.546     2.495
    78   1 H        0.926     0.029     2.596     2.519
    79   1 H        0.926     0.029     2.601     2.522
    80   1 H        0.926     0.030     2.593     2.518
    81   1 H        0.926     0.029     2.594     2.518
    82   1 H        0.926     0.029     2.601     2.522
    83   1 H        0.926     0.029     2.596     2.519
    84   1 H        0.926     0.034     2.534     2.489
    85   1 H        0.926     0.029     2.600     2.522
    86   1 H        0.926     0.033     2.547     2.496

molecular dipole:
                 x           y           z       tot (Debye)
 q only:       -0.043      -2.041      -0.055
   full:       -0.034      -2.091       0.000       5.315

 projected vibrational frequencies (cm⁻¹)
eigval :       -0.00    -0.00    -0.00    -0.00     0.00     0.00
eigval :       15.14    17.38    18.27    22.13    22.90    29.53
eigval :       40.15    40.69    47.67    63.75    69.99    87.73
eigval :       98.00   103.75   115.13   117.43   121.72   126.26
eigval :      138.11   141.27   142.46   150.92   160.46   174.08
eigval :      199.01   211.66   225.52   229.27   238.95   254.15
eigval :      257.37   265.99   268.24   280.46   288.54   309.28
eigval :      324.27   336.71   353.45   370.11   378.05   381.36
eigval :      386.69   392.98   395.25   418.00   418.78   420.83
eigval :      423.18   434.64   435.01   482.80   489.25   496.80
eigval :      513.38   513.88   526.86   528.26   528.93   530.94
eigval :      537.82   548.92   559.64   581.00   582.27   586.70
eigval :      601.65   611.19   625.66   636.58   657.48   665.87
eigval :      666.26   673.70   674.85   696.99   700.23   701.29
eigval :      745.15   750.81   752.16   754.34   757.88   761.85
eigval :      763.42   764.06   773.98   775.18   788.46   795.59
eigval :      810.76   812.19   820.16   836.80   837.43   844.79
eigval :      851.44   853.91   857.58   858.04   884.12   884.92
eigval :      889.66   892.13   893.61   894.00   896.78   904.38
eigval :      907.92   908.97   914.03   927.99   933.99   943.68
eigval :      963.62   985.36  1006.43  1007.53  1008.91  1018.34
eigval :     1025.69  1045.53  1055.60  1064.72  1065.32  1068.72
eigval :     1081.24  1090.27  1099.19  1102.31  1103.20  1109.04
eigval :     1116.54  1138.11  1138.85  1140.53  1146.30  1149.90
eigval :     1151.70  1155.72  1165.31  1174.49  1175.94  1177.17
eigval :     1179.39  1188.09  1203.23  1211.70  1219.92  1223.29
eigval :     1225.61  1225.77  1227.05  1243.44  1246.35  1250.71
eigval :     1264.72  1266.99  1277.43  1278.39  1279.27  1283.14
eigval :     1288.95  1289.56  1300.90  1315.26  1323.09  1325.87
eigval :     1339.17  1342.27  1342.98  1346.34  1351.17  1359.20
eigval :     1359.98  1371.76  1375.46  1378.29  1385.69  1402.07
eigval :     1402.54  1404.42  1406.33  1407.71  1414.44  1415.83
eigval :     1418.42  1432.96  1454.80  1454.92  1458.26  1460.36
eigval :     1472.16  1472.29  1487.15  1490.69  1494.93  1495.49
eigval :     1496.53  1497.72  1501.75  1501.78  1504.48  1505.38
eigval :     1512.02  1524.72  1525.34  1526.36  1558.18  1558.89
eigval :     1563.18  1563.60  1606.47  2941.02  2946.24  2954.00
eigval :     2962.89  2965.20  2972.33  2978.16  2980.05  2989.66
eigval :     2994.29  3003.75  3021.83  3024.96  3027.22  3031.62
eigval :     3031.81  3040.47  3069.15  3069.34  3071.05  3071.66
eigval :     3079.26  3079.46  3080.40  3080.76  3084.21  3086.69
eigval :     3087.24  3088.24  3088.84  3093.56  3094.26  3094.58
eigval :     3094.96  3095.87  3100.11  3102.17  3104.97  3107.26

   temp. (K)  partition function   enthalpy   heat capacity  entropy
                                   cal/mol     cal/K/mol   cal/K/mol   J/K/mol
 298.15  VIB  0.105E+19            23525.891    148.542    145.373
         ROT  0.854E+08              888.752      2.981     39.275
         INT  0.897E+26            24414.644    151.523    184.648
         TR   0.146E+29             1481.254      4.968     45.087
         TOT                       25895.8977   156.4913   229.7343   961.2082

       T/K    H(0)-H(T)+PV         H(T)/Eh          T*S/Eh         G(T)/Eh
   ------------------------------------------------------------------------
    298.15    0.412677E-01    0.734122E+00    0.109154E+00    0.624968E+00
   ------------------------------------------------------------------------

         :::::::::::::::::::::::::::::::::::::::::::::::::::::
         ::                  THERMODYNAMIC                  ::
         :::::::::::::::::::::::::::::::::::::::::::::::::::::
         :: total free energy        -122.341321477389 Eh   ::
         ::.................................................::
         :: total energy             -122.966289083541 Eh   ::
         :: zero point energy           0.692854036356 Eh   ::
         :: G(RRHO) w/o ZPVE           -0.067886430204 Eh   ::
         :: G(RRHO) contrib.            0.624967606152 Eh   ::
         :::::::::::::::::::::::::::::::::::::::::::::::::::::

           -------------------------------------------------
          | TOTAL ENERGY             -122.966289083541 Eh   |
          | TOTAL ENTHALPY           -122.232167307463 Eh   |
          | TOTAL FREE ENERGY        -122.341321477389 Eh   |
          | GRADIENT NORM               0.000051241613 Eh/α |
          | HOMO-LUMO GAP               0.049806896378 eV   |
           -------------------------------------------------

 * finished run on 2025/07/20 at 11:54:54.636
