   * xtb version 6.7.1 (edcfbbe) compiled by 'albert@albert-system' on 2024-07-22

   ID    Z sym.   atoms
    1    6 C      1-8, 10-13, 15-31, 33-47
    2    7 N      9, 14, 32
    3    1 H      48-86

          program call               : xtb data2507/toluene/TCZ1/TCZ1_toluene_S0_crest.xyz --gfn 2 --gbsa toluene --ohess vtight --parallel 40 --molden --ceasefiles --namespace data2507/toluene/TCZ1/TCZ1_toluene_S0_finalOpt
      * Solvation model:               GBSA
        Solvent                        toluene
        Solvent mass                       9.2140E+01 g/mol
          :  Hamiltonian                  GFN2-xTB          :
 * total energy  :  -123.0675082 Eh     change       -0.1975778E-08 Eh
 * total energy  :  -123.0675979 Eh     change       -0.8966810E-04 Eh
 * total energy  :  -123.0676639 Eh     change       -0.6602975E-04 Eh
 * total energy  :  -123.0677070 Eh     change       -0.4304284E-04 Eh
 * total energy  :  -123.0677475 Eh     change       -0.4051031E-04 Eh
 * total energy  :  -123.0678439 Eh     change       -0.9644437E-04 Eh
 * total energy  :  -123.0678908 Eh     change       -0.4689067E-04 Eh
 * total energy  :  -123.0679721 Eh     change       -0.8125836E-04 Eh
 * total energy  :  -123.0680179 Eh     change       -0.4583689E-04 Eh
 * total energy  :  -123.0680502 Eh     change       -0.3224915E-04 Eh
 * total energy  :  -123.0685191 Eh     change       -0.7349447E-06 Eh
 * total energy  :  -123.0685196 Eh     change       -0.5567366E-06 Eh
 * total energy  :  -123.0685200 Eh     change       -0.3732093E-06 Eh
 * total energy  :  -123.0685203 Eh     change       -0.2606186E-06 Eh
 * total energy  :  -123.0685204 Eh     change       -0.1258317E-06 Eh
 * total energy  :  -123.0685207 Eh     change       -0.2578318E-06 Eh
 * total energy  :  -123.0685206 Eh     change        0.1035435E-06 Eh
 * total energy  :  -123.0685208 Eh     change       -0.2043394E-06 Eh
 * total energy  :  -123.0685208 Eh     change       -0.9002602E-07 Eh
   *** GEOMETRY OPTIMIZATION CONVERGED AFTER 48 ITERATIONS ***

 final structure:
================
86
 xtb: 6.7.1 (edcfbbe)
C            0.34954424114660       -1.81539659083413       -3.37772189100842
C           -0.61455053517854       -2.99616922445695       -3.42578544904670
C            0.06892171122873       -4.34564705354888       -3.18837593939530
C            0.57888396706715       -4.53828436617000       -1.75830467524581
C           -0.54443243208201       -4.81159595581189       -0.74662370926195
C           -0.86882661856657       -6.30886474929425       -0.67887259415496
C           -2.22158319281087       -6.61391133655126       -0.04325841030851
C           -0.16136234024635       -4.27338993646616        0.64419508410650
N           -0.06702845840267       -2.83680487528319        0.65750084420514
C            1.08142578745199       -2.08615043810656        0.60867898455277
C            2.41417366548790       -2.48261609354257        0.64369713489201
C            3.38853222155984       -1.50952140515531        0.57296158897099
C            3.06033206988821       -0.15034128030448        0.48685334818008
N            4.09246069545156        0.80455345596217        0.41743293294579
C            4.22974915078718        1.77492822619192       -0.55231815556797
C            3.44111263244423        2.02939489377234       -1.66622889501100
C            3.81865349598125        3.06225135486508       -2.50235575143831
C            4.95656838577082        3.82620251183877       -2.24770718019303
C            5.75454761133257        3.56749190707861       -1.15108232756814
C            5.39637937928143        2.53341143509856       -0.29503037430176
C            5.98211405922520        1.98633345522881        0.89635513598658
C            7.11052181218630        2.30286720969307        1.64251316705222
C            7.38278715505965        1.56522575814779        2.77752072007725
C            6.53918786503905        0.53091294887964        3.17997609828443
C            5.41167930125629        0.19656855621676        2.45511815392634
C            5.14397817598573        0.92043734717190        1.30100314026905
C            1.73590531496902        0.25696856352718        0.46603042102053
C            0.74373556273147       -0.71173962298896        0.51978843633657
C           -0.68846685171805       -0.64889597503741        0.50801972220869
C           -1.59433912195749        0.40002890672258        0.44091845743657
C           -2.94850123372203        0.10441711418898        0.44283576914650
N           -3.89457960682841        1.14387902406782        0.35990303595585
C           -4.94281866630235        1.35290638505349        1.23031537478564
C           -5.29230801976525        0.65253676648025        2.37709759258098
C           -6.39331709551464        1.08766590777680        3.08906781960640
C           -7.13111117358649        2.19813842086514        2.68169915102892
C           -6.77649610675230        2.91144457127593        1.55397370987942
C           -5.67301507337039        2.49368289805320        0.82046930188514
C           -5.02286852662943        2.98941130143070       -0.35988236741994
C           -5.27056714392902        4.05699533144204       -1.21386438359200
C           -4.43575782020148        4.24651782334548       -2.29710232629045
C           -3.37019783190751        3.38135713846415       -2.54101021766028
C           -3.10349320479280        2.31276864605704       -1.70714534829742
C           -3.92790424731826        2.12742292450086       -0.60552542471866
C           -3.39201787955825       -1.22185202227215        0.52537231681858
C           -2.50379948761116       -2.27353604743312        0.60982220626837
C           -1.14364073535086       -1.98748238115262        0.59163825690520
H           -0.17183098232814       -0.89513117255110       -3.63357082822770
H            1.16348016756874       -1.95600851620419       -4.08655176942125
H            0.77611801795638       -1.69307381034071       -2.38509792454473
H           -1.40486563633783       -2.83986107396336       -2.68846139299272
H           -1.08894283409359       -3.02029428816997       -4.41028048588326
H           -0.63449587123136       -5.14535200047616       -3.43202037130745
H            0.91208739971612       -4.43094343965865       -3.87820456517099
H            1.28330956586811       -5.37340389381442       -1.73845329540501
H            1.12915367966142       -3.64408737417911       -1.46812167936161
H           -1.44214648810866       -4.27810201807421       -1.07137546275637
H           -0.86905537934836       -6.70785766629256       -1.69511747824852
H           -0.08015783778006       -6.82341509905182       -0.12454240027817
H           -2.25409123975295       -6.30302276203823        0.99831627886020
H           -2.41806387561895       -7.68333506757450       -0.07809045298549
H           -3.01881730944054       -6.10488266668425       -0.58160173158001
H            0.79996926689797       -4.68968294521660        0.95043716732093
H           -0.91307161807489       -4.57388407209069        1.37932284915855
H            2.69503276076983       -3.52240763238922        0.70928553779520
H            4.43064467803925       -1.79210537640748        0.57354771271389
H            2.56462442430958        1.43567230975466       -1.87805101316264
H            3.22003726044221        3.28160227901864       -3.37482831693575
H            5.21714291387159        4.62710724214716       -2.92437511829758
H            6.64245858781953        4.15236924563164       -0.96101191296869
H            7.75751103850123        3.11283416812319        1.33930642147653
H            8.25661563870958        1.79454337152317        3.37010027629377
H            6.77121148618112       -0.01889837801251        4.08078663674566
H            4.75530383407179       -0.59649044162622        2.78106262488520
H            1.48575571925141        1.30563691967602        0.41574787875708
H           -1.25735847786644        1.42440886139163        0.39604482705727
H           -4.71713746588443       -0.19924523652300        2.70797141918057
H           -6.68760343709366        0.55798650893489        3.98376772914589
H           -7.98713586699408        2.50607083421407        3.26446934999994
H           -7.34084984382526        3.77971871201325        1.24707229573217
H           -6.10259179262419        4.72129070409017       -1.03234214006485
H           -4.61063618849052        5.07194846651862       -2.97180802440674
H           -2.74126574793602        3.54899159164431       -3.40358358677370
H           -2.28415613964377        1.63961605159682       -1.91034469890629
H           -4.45438882571065       -1.41478895831228        0.51361845663407
H           -2.86745753929033       -3.28641631099814        0.68009353472883

          :  Hamiltonian                  GFN2-xTB          :
         :: gradient norm              0.000034417284 Eh/a0 ::
         :: HOMO-LUMO gap              2.716779809111 eV    ::
         :: SCC energy              -125.277748942194 Eh    ::
         :: -> dispersion             -0.114146488073 Eh    ::
         :: -> Gsolv                  -0.048368333364 Eh    ::
         :: repulsion energy           2.209228094735 Eh    ::

    * Orbital Energies and Occupations

         #    Occupation            Energy/Eh            Energy/eV
      -------------------------------------------------------------
         1        2.0000           -0.6811338             -18.5346
       ...           ...                  ...                  ...
       103        2.0000           -0.4168688             -11.3436
       104        2.0000           -0.4161946             -11.3252
       105        2.0000           -0.4153165             -11.3013
       106        2.0000           -0.4152200             -11.2987
       107        2.0000           -0.4098862             -11.1536
       108        2.0000           -0.4026961             -10.9579
       109        2.0000           -0.4026315             -10.9562
       110        2.0000           -0.3865993             -10.5199
       111        2.0000           -0.3759434             -10.2299
       112        2.0000           -0.3758653             -10.2278
       113        2.0000           -0.3752634             -10.2114
       114        2.0000           -0.3597456              -9.7892
       115        2.0000           -0.3524413              -9.5904 (HOMO)
       116                         -0.2526014              -6.8736 (LUMO)
       117                         -0.2434139              -6.6236
       118                         -0.2425648              -6.6005
       119                         -0.2314002              -6.2967
       120                         -0.2194264              -5.9709
       121                         -0.2193506              -5.9688
       122                         -0.2095677              -5.7026
       123                         -0.1989309              -5.4132
       124                         -0.1837270              -4.9995
       125                         -0.1836112              -4.9963
       126                         -0.1832951              -4.9877
       ...                                ...                  ...
       227                          0.7473696              20.3370
      -------------------------------------------------------------
                  HL-Gap            0.0998398 Eh            2.7168 eV

     #   Z          covCN         q      C6AA      α(0)
     1   6 C        3.751    -0.097    22.417     6.752
     2   6 C        3.799    -0.051    21.499     6.602
     3   6 C        3.801    -0.058    21.618     6.620
     4   6 C        3.804    -0.066    21.765     6.642
     5   6 C        3.851    -0.026    21.005     6.519
     6   6 C        3.803    -0.060    21.646     6.624
     7   6 C        3.751    -0.103    22.529     6.769
     8   6 C        3.743    -0.008    20.791     6.505
     9   7 N        2.795    -0.036    21.928     6.955
    10   6 C        3.083     0.044    26.930     8.507
    11   6 C        2.909    -0.052    29.279     8.873
    12   6 C        2.925    -0.046    29.149     8.854
    13   6 C        2.912     0.051    26.857     8.498
    14   7 N        2.803    -0.049    22.179     6.995
    15   6 C        3.078     0.048    26.842     8.494
    16   6 C        2.909    -0.052    29.298     8.876
    17   6 C        2.924    -0.036    28.893     8.815
    18   6 C        2.919    -0.044    29.093     8.845
    19   6 C        2.912    -0.036    28.890     8.814
    20   6 C        3.068    -0.020    28.444     8.745
    21   6 C        3.068    -0.020    28.443     8.745
    22   6 C        2.912    -0.036    28.890     8.814
    23   6 C        2.919    -0.044    29.094     8.845
    24   6 C        2.923    -0.036    28.898     8.816
    25   6 C        2.909    -0.053    29.308     8.877
    26   6 C        3.079     0.048    26.846     8.495
    27   6 C        2.914    -0.046    29.145     8.853
    28   6 C        3.071    -0.018    28.385     8.736
    29   6 C        3.069    -0.017    28.362     8.732
    30   6 C        2.914    -0.046    29.134     8.851
    31   6 C        2.913     0.051    26.849     8.497
    32   7 N        2.803    -0.049    22.176     6.994
    33   6 C        3.079     0.048    26.846     8.495
    34   6 C        2.909    -0.053    29.308     8.877
    35   6 C        2.923    -0.036    28.898     8.816
    36   6 C        2.919    -0.044    29.094     8.845
    37   6 C        2.912    -0.036    28.889     8.814
    38   6 C        3.068    -0.020    28.443     8.745
    39   6 C        3.068    -0.020    28.445     8.745
    40   6 C        2.912    -0.036    28.890     8.814
    41   6 C        2.919    -0.044    29.094     8.845
    42   6 C        2.923    -0.036    28.894     8.815
    43   6 C        2.909    -0.052    29.296     8.875
    44   6 C        3.079     0.048    26.841     8.494
    45   6 C        2.925    -0.046    29.150     8.854
    46   6 C        2.909    -0.051    29.269     8.871
    47   6 C        3.087     0.044    26.908     8.503
    48   1 H        0.925     0.028     2.617     2.530
    49   1 H        0.925     0.032     2.556     2.500
    50   1 H        0.925     0.030     2.582     2.513
    51   1 H        0.924     0.029     2.602     2.523
    52   1 H        0.924     0.027     2.625     2.534
    53   1 H        0.924     0.031     2.570     2.507
    54   1 H        0.924     0.032     2.562     2.503
    55   1 H        0.924     0.033     2.551     2.498
    56   1 H        0.925     0.042     2.422     2.434
    57   1 H        0.924     0.046     2.372     2.409
    58   1 H        0.924     0.041     2.436     2.441
    59   1 H        0.924     0.033     2.542     2.493
    60   1 H        0.925     0.033     2.548     2.496
    61   1 H        0.925     0.036     2.502     2.473
    62   1 H        0.925     0.036     2.509     2.477
    63   1 H        0.924     0.055     2.259     2.350
    64   1 H        0.924     0.055     2.260     2.351
    65   1 H        0.926     0.040     2.447     2.446
    66   1 H        0.926     0.040     2.448     2.447
    67   1 H        0.926     0.029     2.601     2.522
    68   1 H        0.926     0.028     2.615     2.529
    69   1 H        0.926     0.025     2.653     2.547
    70   1 H        0.926     0.028     2.622     2.532
    71   1 H        0.926     0.028     2.622     2.532
    72   1 H        0.926     0.025     2.652     2.547
    73   1 H        0.926     0.028     2.614     2.528
    74   1 H        0.926     0.029     2.605     2.524
    75   1 H        0.926     0.038     2.469     2.457
    76   1 H        0.926     0.038     2.474     2.460
    77   1 H        0.926     0.029     2.600     2.522
    78   1 H        0.926     0.028     2.613     2.528
    79   1 H        0.926     0.025     2.652     2.547
    80   1 H        0.926     0.027     2.623     2.533
    81   1 H        0.926     0.027     2.622     2.532
    82   1 H        0.926     0.025     2.654     2.548
    83   1 H        0.926     0.028     2.620     2.531
    84   1 H        0.926     0.028     2.609     2.526
    85   1 H        0.926     0.040     2.451     2.448
    86   1 H        0.926     0.044     2.399     2.422

molecular dipole:
                 x           y           z       tot (Debye)
 q only:       -0.163      -2.364      -0.001
   full:       -0.152      -2.383       0.029       6.070

 projected vibrational frequencies (cm⁻¹)
eigval :       -0.00    -0.00     0.00     0.00     0.00     0.00
eigval :       17.87    18.10    20.22    21.22    24.84    29.58
eigval :       31.46    39.07    47.77    52.79    63.31    73.42
eigval :       91.70   104.20   112.47   121.31   122.26   126.96
eigval :      140.72   143.31   148.87   152.03   176.64   183.93
eigval :      195.27   223.45   233.77   246.65   252.55   259.59
eigval :      271.34   272.91   273.52   283.65   288.24   319.87
eigval :      340.39   346.08   364.02   384.72   393.41   399.49
eigval :      401.94   410.57   413.37   424.11   424.30   430.59
eigval :      434.06   436.45   437.69   451.28   492.16   494.88
eigval :      517.87   518.06   528.43   530.40   540.89   541.61
eigval :      543.69   551.85   560.27   585.65   588.48   592.83
eigval :      607.26   623.77   628.50   644.97   673.32   673.91
eigval :      678.70   683.89   703.58   708.55   708.88   710.83
eigval :      753.99   755.16   756.08   769.11   770.04   770.64
eigval :      780.86   781.68   803.57   818.24   820.05   821.17
eigval :      836.83   843.02   866.75   867.39   870.63   872.23
eigval :      876.41   880.00   881.98   897.11   897.36   900.04
eigval :      903.30   904.38   905.49   911.57   913.27   913.75
eigval :      922.21   922.24   925.41   925.88   929.52   951.43
eigval :      967.95   994.81  1002.54  1010.85  1011.65  1022.88
eigval :     1032.86  1054.44  1059.98  1067.57  1068.01  1071.07
eigval :     1071.35  1078.80  1093.93  1108.45  1111.50  1130.06
eigval :     1142.50  1148.66  1150.46  1150.89  1154.91  1160.70
eigval :     1166.31  1173.32  1174.18  1180.44  1180.73  1182.22
eigval :     1183.03  1200.39  1207.94  1223.07  1225.95  1229.11
eigval :     1235.91  1236.50  1241.67  1244.92  1257.84  1263.24
eigval :     1272.38  1296.05  1298.26  1299.41  1302.59  1305.96
eigval :     1311.27  1313.42  1331.99  1335.97  1345.55  1346.81
eigval :     1349.92  1355.14  1356.84  1357.22  1357.57  1362.62
eigval :     1362.97  1372.76  1384.55  1388.45  1415.24  1416.90
eigval :     1417.59  1427.60  1427.67  1433.40  1438.03  1447.89
eigval :     1456.11  1473.19  1474.06  1479.41  1480.59  1487.51
eigval :     1487.77  1488.00  1491.86  1493.16  1494.91  1501.75
eigval :     1504.53  1507.80  1513.59  1560.70  1570.46  1572.01
eigval :     1577.23  1587.02  1587.30  1596.06  1596.94  1597.77
eigval :     1613.31  1613.57  1616.40  2953.79  2957.89  2958.43
eigval :     2960.43  2965.78  2968.05  2979.01  2980.32  2984.28
eigval :     2990.70  3014.97  3023.69  3024.34  3027.76  3028.03
eigval :     3037.70  3039.56  3067.90  3068.68  3068.92  3069.52
eigval :     3073.78  3073.89  3074.68  3075.02  3081.99  3082.28
eigval :     3083.08  3083.30  3085.20  3087.68  3089.03  3089.22
eigval :     3091.34  3091.55  3092.65  3094.77  3097.45  3100.75

   temp. (K)  partition function   enthalpy   heat capacity  entropy
                                   cal/mol     cal/K/mol   cal/K/mol   J/K/mol
 298.15  VIB  0.826E+18            23155.239    145.488    143.077
         ROT  0.856E+08              888.752      2.981     39.278
         INT  0.707E+26            24043.992    148.469    182.355
         TR   0.146E+29             1481.254      4.968     45.087
         TOT                       25525.2455   153.4373   227.4421   951.6179

       T/K    H(0)-H(T)+PV         H(T)/Eh          T*S/Eh         G(T)/Eh
   ------------------------------------------------------------------------
    298.15    0.406771E-01    0.739791E+00    0.108065E+00    0.631725E+00
   ------------------------------------------------------------------------

         :::::::::::::::::::::::::::::::::::::::::::::::::::::
         ::                  THERMODYNAMIC                  ::
         :::::::::::::::::::::::::::::::::::::::::::::::::::::
         :: total free energy        -122.436795350389 Eh   ::
         ::.................................................::
         :: total energy             -123.068520847194 Eh   ::
         :: zero point energy           0.699113525894 Eh   ::
         :: G(RRHO) w/o ZPVE           -0.067388029089 Eh   ::
         :: G(RRHO) contrib.            0.631725496805 Eh   ::
         :::::::::::::::::::::::::::::::::::::::::::::::::::::

           -------------------------------------------------
          | TOTAL ENERGY             -123.068520847194 Eh   |
          | TOTAL ENTHALPY           -122.328730253427 Eh   |
          | TOTAL FREE ENERGY        -122.436795350389 Eh   |
          | GRADIENT NORM               0.000034423348 Eh/α |
          | HOMO-LUMO GAP               2.716779841446 eV   |
           -------------------------------------------------

 * finished run on 2025/09/13 at 12:18:20.670
