   * xtb version 6.7.1 (edcfbbe) compiled by 'albert@albert-system' on 2024-07-22

   ID    Z sym.   atoms
    1    6 C      1-8, 10-13, 15-31, 33-47
    2    7 N      9, 14, 32
    3    1 H      48-86

          program call               : xtb data2507/toluene/TCZ1/TCZ1_toluene_S0_finalOpt.xtbopt.xyz --gfn 2 --uhf 2 --gbsa toluene --ohess vtight --parallel 40 --molden --ceasefiles --namespace data2507/toluene/TCZ1/TCZ1_toluene_T1_preOpt
      * Solvation model:               GBSA
        Solvent                        toluene
        Solvent mass                       9.2140E+01 g/mol
          :  Hamiltonian                  GFN2-xTB          :
 * total energy  :  -122.9630677 Eh     change       -0.3009006E-08 Eh
 * total energy  :  -122.9649857 Eh     change       -0.1918047E-02 Eh
 * total energy  :  -122.9655254 Eh     change       -0.5396510E-03 Eh
 * total energy  :  -122.9656103 Eh     change       -0.8495119E-04 Eh
 * total energy  :  -122.9656740 Eh     change       -0.6368390E-04 Eh
 * total energy  :  -122.9656968 Eh     change       -0.2277322E-04 Eh
 * total energy  :  -122.9657167 Eh     change       -0.1986229E-04 Eh
 * total energy  :  -122.9657331 Eh     change       -0.1643374E-04 Eh
 * total energy  :  -122.9657448 Eh     change       -0.1167894E-04 Eh
 * total energy  :  -122.9657580 Eh     change       -0.1319266E-04 Eh
 * total energy  :  -122.9658717 Eh     change       -0.1633092E-05 Eh
 * total energy  :  -122.9658734 Eh     change       -0.1676580E-05 Eh
 * total energy  :  -122.9658752 Eh     change       -0.1816128E-05 Eh
 * total energy  :  -122.9658771 Eh     change       -0.1949669E-05 Eh
 * total energy  :  -122.9658791 Eh     change       -0.1921492E-05 Eh
 * total energy  :  -122.9658807 Eh     change       -0.1681669E-05 Eh
 * total energy  :  -122.9658820 Eh     change       -0.1307957E-05 Eh
 * total energy  :  -122.9658829 Eh     change       -0.8990856E-06 Eh
 * total energy  :  -122.9658830 Eh     change       -0.6299800E-08 Eh
   *** GEOMETRY OPTIMIZATION CONVERGED AFTER 44 ITERATIONS ***

 final structure:
================
86
 xtb: 6.7.1 (edcfbbe)
C            0.35163513015473       -1.82273497561840       -3.36243571726496
C           -0.62874994768254       -2.99079987509948       -3.38485574225995
C            0.04240306977500       -4.34847936202101       -3.15915787180928
C            0.57020978405611       -4.54816277024748       -1.73633968869491
C           -0.54496497067896       -4.81389917520803       -0.71396061505996
C           -0.86379682172697       -6.31090747617368       -0.62644566782310
C           -2.20762534026922       -6.61434749260859        0.02804606610382
C           -0.15501427108862       -4.25917501196138        0.67133556430574
N           -0.06356269694327       -2.82666534235439        0.65775603622749
C            1.09072359720406       -2.08627361297803        0.59714281072331
C            2.41175063511763       -2.49353157030278        0.64574489970171
C            3.40964394330900       -1.51620236422805        0.58171562997639
C            3.07951340381204       -0.16221640730780        0.45659180649327
N            4.09805948008533        0.78785724287720        0.39491888788403
C            4.18794562805679        1.81774082826618       -0.52424884585157
C            3.36698877103156        2.11191953185995       -1.60086318732469
C            3.70830374710634        3.19486626142403       -2.40035369975497
C            4.84575013225696        3.95352843351008       -2.14148366342445
C            5.68630535959371        3.64713331302236       -1.08562708357353
C            5.36312684672117        2.56802219550447       -0.26895294240638
C            5.99811037227981        1.96224566757573        0.86483158838991
C            7.14705463325850        2.25768950149072        1.59193131849793
C            7.46123508567783        1.46765794238362        2.68382995765759
C            6.64267441900911        0.40953335629639        3.06704629103739
C            5.49134207782632        0.09579957243751        2.35681670789748
C            5.18788674507032        0.86266189677711        1.24357940353574
C            1.74748200812855        0.26076995397540        0.40120847930301
C            0.74009052729680       -0.70480342930433        0.48550266151963
C           -0.67773174148829       -0.64232909247857        0.47719739958477
C           -1.59786417152886        0.40515980607725        0.37917574888017
C           -2.96152167017495        0.09585812334330        0.41910661848105
N           -3.89427052141170        1.12997754094272        0.33600168213961
C           -4.98370523943805        1.31046123916041        1.16871371105554
C           -5.36942260018329        0.58592181041404        2.28503499060363
C           -6.49641389554341        1.00961026861369        2.97643769975238
C           -7.21238273969521        2.13229779410633        2.57186587230761
C           -6.81580505012262        2.87774749107392        1.47555381472161
C           -5.68889438332577        2.47264281061886        0.76736264548645
C           -4.98905916194185        3.00640317986759       -0.36449248298662
C           -5.20544492095697        4.09946635147086       -1.19757376338224
C           -4.32826453108794        4.31720121077165       -2.24551323567569
C           -3.25874401118957        3.45833356442092       -2.48013392774170
C           -3.02454546135291        2.35983099626487       -1.66397168897524
C           -3.88180138802154        2.15241968742049       -0.59529964827845
C           -3.40743334670654       -1.22355681209644        0.54852281760958
C           -2.49660602024817       -2.28195698206382        0.62668529752679
C           -1.14717052617526       -1.98601809933588        0.58624793227580
H           -0.16376757718089       -0.89652578194171       -3.60866567642353
H            1.14716424469739       -1.97564434685930       -4.08940324744880
H            0.80244480683081       -1.70262258585591       -2.38030234571919
H           -1.39967117802308       -2.82152029919049       -2.62999286063172
H           -1.12591906338180       -3.01104283786010       -4.35811765603411
H           -0.67335391751288       -5.14015143116922       -3.39293813940836
H            0.87468841297691       -4.44250540031339       -3.86081061937751
H            1.26753042782268       -5.38929636535293       -1.72662546724852
H            1.13277342061044       -3.65938228109096       -1.45261451716559
H           -1.44678185722529       -4.28608289329946       -1.03632701693207
H           -0.87544003133223       -6.71750540127898       -1.63963243975180
H           -0.06648702636277       -6.81836000122982       -0.07814793273657
H           -2.22887607503089       -6.29452832384456        1.06725248998512
H           -2.40071339043177       -7.68464483056152        0.00500147145446
H           -3.01293695501138       -6.11265941787061       -0.50507595588569
H            0.80733070743228       -4.67233237067275        0.97787318374855
H           -0.90792512577136       -4.54949998990246        1.40884395064352
H            2.69109834923242       -3.53336443689653        0.70881840221041
H            4.44673007738130       -1.81040186423611        0.58062385869652
H            2.49506089868591        1.51613047044102       -1.82250003510765
H            3.08009934190600        3.44758236994794       -3.24161057775344
H            5.07997268241730        4.78975810868634       -2.78436933738237
H            6.57794113028766        4.22679373055584       -0.90015050018206
H            7.77398145665276        3.09054982428451        1.31138733393981
H            8.35131199384540        1.68096475186961        3.25808620221707
H            6.90279567588021       -0.17651754998625        3.93597818566709
H            4.84964544609834       -0.71206661339275        2.67325380336773
H            1.50752223714071        1.31057631099356        0.35500989293985
H           -1.27021466258804        1.43106842904794        0.33225705627134
H           -4.80743570286785       -0.27299374156162        2.61804666877672
H           -6.81911031621815        0.45867454864841        3.84741473740510
H           -8.08619819581564        2.43126754933591        3.13276116519189
H           -7.36221843497053        3.75981560510184        1.17746759574249
H           -6.04433649057705        4.75808693997039       -1.03060412476423
H           -4.47976067045632        5.16260990883295       -2.90112640184829
H           -2.60048241656852        3.64465471287290       -3.31573875962204
H           -2.20612183263815        1.68606284862736       -1.86559055810651
H           -4.46603383638785       -1.42770543585000        0.54133511649710
H           -2.85946643687775       -3.29431782207105        0.70050149880652

          :  Hamiltonian                  GFN2-xTB          :
         :: gradient norm              0.000062965374 Eh/a0 ::
         :: HOMO-LUMO gap              0.049476326729 eV    ::
         :: SCC energy              -125.154955772699 Eh    ::
         :: -> dispersion             -0.114539082640 Eh    ::
         :: -> Gsolv                  -0.047867794178 Eh    ::
         :: repulsion energy           2.189072819603 Eh    ::

    * Orbital Energies and Occupations

         #    Occupation            Energy/Eh            Energy/eV
      -------------------------------------------------------------
         1        2.0000           -0.6786811             -18.4679
       ...           ...                  ...                  ...
       104        2.0000           -0.4167049             -11.3391
       105        2.0000           -0.4163561             -11.3296
       106        2.0000           -0.4158932             -11.3170
       107        2.0000           -0.4059554             -11.0466
       108        2.0000           -0.4048533             -11.0166
       109        2.0000           -0.4047606             -11.0141
       110        2.0000           -0.3774393             -10.2706
       111        2.0000           -0.3771383             -10.2625
       112        2.0000           -0.3770938             -10.2612
       113        2.0000           -0.3767042             -10.2506
       114        1.9932           -0.3611413              -9.8272
       115        1.0068           -0.3516758              -9.5696
       116        0.6536           -0.2476016              -6.7376 (HOMO)
       117        0.2178           -0.2457837              -6.6881 (LUMO)
       118        0.1287           -0.2451811              -6.6717
       119                         -0.2278125              -6.1991
       120                         -0.2219167              -6.0387
       121                         -0.2219083              -6.0384
       122                         -0.2098072              -5.7091
       123                         -0.1964372              -5.3453
       124                         -0.1857593              -5.0548
       125                         -0.1857536              -5.0546
       126                         -0.1826437              -4.9700
       127                         -0.1797913              -4.8924
       ...                                ...                  ...
       227                          0.7468657              20.3233
      -------------------------------------------------------------
                  HL-Gap            0.0018179 Eh            0.0495 eV

     #   Z          covCN         q      C6AA      α(0)
     1   6 C        3.751    -0.097    22.418     6.752
     2   6 C        3.799    -0.052    21.500     6.602
     3   6 C        3.801    -0.058    21.620     6.620
     4   6 C        3.804    -0.066    21.771     6.643
     5   6 C        3.851    -0.024    20.965     6.512
     6   6 C        3.803    -0.060    21.649     6.624
     7   6 C        3.751    -0.103    22.537     6.770
     8   6 C        3.744    -0.009    20.809     6.508
     9   7 N        2.799    -0.010    21.451     6.879
    10   6 C        3.064     0.041    27.007     8.522
    11   6 C        2.906    -0.058    29.449     8.898
    12   6 C        2.920    -0.070    29.753     8.945
    13   6 C        2.909     0.060    26.659     8.466
    14   7 N        2.802    -0.023    21.696     6.918
    15   6 C        3.068     0.047    26.881     8.501
    16   6 C        2.909    -0.049    29.208     8.862
    17   6 C        2.922    -0.041    29.016     8.833
    18   6 C        2.918    -0.037    28.921     8.819
    19   6 C        2.911    -0.039    28.965     8.825
    20   6 C        3.064    -0.019    28.412     8.741
    21   6 C        3.063    -0.019    28.411     8.741
    22   6 C        2.911    -0.039    28.967     8.825
    23   6 C        2.918    -0.037    28.924     8.819
    24   6 C        2.922    -0.041    29.022     8.834
    25   6 C        2.909    -0.049    29.224     8.864
    26   6 C        3.068     0.047    26.888     8.503
    27   6 C        2.911    -0.063    29.571     8.917
    28   6 C        3.063    -0.026    28.576     8.766
    29   6 C        3.061    -0.025    28.554     8.763
    30   6 C        2.911    -0.062    29.548     8.913
    31   6 C        2.909     0.060    26.660     8.466
    32   7 N        2.802    -0.024    21.709     6.920
    33   6 C        3.068     0.047    26.885     8.502
    34   6 C        2.909    -0.049    29.225     8.865
    35   6 C        2.922    -0.041    29.017     8.834
    36   6 C        2.918    -0.037    28.929     8.820
    37   6 C        2.911    -0.039    28.963     8.825
    38   6 C        3.064    -0.019    28.412     8.741
    39   6 C        3.064    -0.019    28.413     8.741
    40   6 C        2.911    -0.039    28.963     8.825
    41   6 C        2.918    -0.037    28.927     8.820
    42   6 C        2.922    -0.041    29.013     8.833
    43   6 C        2.909    -0.049    29.210     8.862
    44   6 C        3.069     0.047    26.877     8.501
    45   6 C        2.921    -0.070    29.746     8.944
    46   6 C        2.906    -0.058    29.439     8.897
    47   6 C        3.069     0.042    26.997     8.520
    48   1 H        0.925     0.028     2.615     2.529
    49   1 H        0.925     0.032     2.558     2.501
    50   1 H        0.925     0.031     2.573     2.508
    51   1 H        0.924     0.029     2.601     2.522
    52   1 H        0.924     0.028     2.622     2.532
    53   1 H        0.924     0.032     2.563     2.504
    54   1 H        0.924     0.033     2.548     2.496
    55   1 H        0.924     0.034     2.533     2.489
    56   1 H        0.925     0.043     2.408     2.427
    57   1 H        0.924     0.048     2.340     2.392
    58   1 H        0.924     0.044     2.402     2.423
    59   1 H        0.924     0.035     2.519     2.482
    60   1 H        0.925     0.033     2.541     2.493
    61   1 H        0.925     0.037     2.484     2.464
    62   1 H        0.925     0.036     2.499     2.472
    63   1 H        0.924     0.059     2.215     2.327
    64   1 H        0.924     0.061     2.189     2.313
    65   1 H        0.926     0.031     2.568     2.506
    66   1 H        0.926     0.029     2.601     2.522
    67   1 H        0.926     0.034     2.531     2.488
    68   1 H        0.926     0.029     2.597     2.520
    69   1 H        0.926     0.029     2.602     2.523
    70   1 H        0.926     0.029     2.594     2.519
    71   1 H        0.926     0.029     2.595     2.519
    72   1 H        0.926     0.029     2.602     2.522
    73   1 H        0.926     0.029     2.597     2.520
    74   1 H        0.926     0.034     2.537     2.491
    75   1 H        0.926     0.030     2.593     2.518
    76   1 H        0.926     0.029     2.599     2.521
    77   1 H        0.926     0.034     2.535     2.490
    78   1 H        0.926     0.029     2.597     2.520
    79   1 H        0.926     0.029     2.604     2.523
    80   1 H        0.926     0.029     2.596     2.520
    81   1 H        0.926     0.029     2.595     2.519
    82   1 H        0.926     0.029     2.605     2.524
    83   1 H        0.926     0.029     2.602     2.522
    84   1 H        0.926     0.033     2.539     2.492
    85   1 H        0.926     0.029     2.606     2.524
    86   1 H        0.926     0.035     2.518     2.482

molecular dipole:
                 x           y           z       tot (Debye)
 q only:       -0.152      -2.061      -0.072
   full:       -0.144      -2.109      -0.022       5.373

 projected vibrational frequencies (cm⁻¹)
eigval :       -0.00    -0.00    -0.00    -0.00    -0.00     0.00
eigval :       16.43    18.02    20.53    23.73    25.62    31.84
eigval :       33.18    40.51    47.61    49.99    65.70    80.26
eigval :       88.71   103.78   115.45   120.84   121.90   125.09
eigval :      139.12   142.26   151.11   155.00   177.68   185.57
eigval :      196.13   216.08   232.29   242.15   247.74   257.87
eigval :      264.42   268.13   272.97   283.65   289.39   316.42
eigval :      337.30   344.66   363.10   371.70   377.51   383.75
eigval :      393.14   407.78   410.84   418.55   419.35   420.79
eigval :      434.22   435.03   440.51   452.28   488.71   494.65
eigval :      513.35   513.85   527.02   528.33   529.55   530.90
eigval :      537.71   549.09   559.77   580.96   582.34   586.40
eigval :      601.85   611.19   626.30   636.66   657.77   665.75
eigval :      666.91   673.26   675.00   696.74   700.39   700.93
eigval :      744.39   750.56   752.21   755.24   756.37   761.18
eigval :      763.16   770.38   773.30   776.20   788.82   795.80
eigval :      803.94   813.08   834.73   836.12   837.43   840.89
eigval :      852.96   853.46   855.54   857.73   874.15   887.18
eigval :      890.34   890.78   892.47   893.70   894.15   902.08
eigval :      905.05   910.95   911.48   913.62   925.77   943.57
eigval :      965.34   984.83  1000.00  1007.18  1008.05  1017.62
eigval :     1031.43  1045.85  1054.98  1056.64  1065.00  1065.69
eigval :     1068.76  1079.35  1094.24  1102.25  1102.35  1109.54
eigval :     1128.60  1138.14  1139.14  1140.45  1145.33  1148.49
eigval :     1150.64  1156.55  1165.59  1173.82  1176.56  1178.06
eigval :     1179.61  1182.32  1201.43  1207.71  1212.49  1219.84
eigval :     1222.80  1225.66  1227.00  1240.90  1244.49  1251.02
eigval :     1255.49  1265.83  1271.51  1278.57  1279.26  1289.54
eigval :     1291.86  1297.72  1310.02  1317.00  1324.86  1339.29
eigval :     1342.30  1343.25  1346.01  1346.50  1354.28  1357.69
eigval :     1359.89  1371.30  1371.62  1375.20  1385.19  1401.65
eigval :     1402.67  1404.46  1406.11  1407.86  1415.87  1417.09
eigval :     1418.76  1433.15  1451.59  1454.73  1455.08  1460.68
eigval :     1472.03  1472.26  1479.36  1487.16  1491.24  1494.25
eigval :     1495.39  1496.05  1501.78  1502.25  1507.82  1511.45
eigval :     1513.77  1524.55  1525.51  1526.13  1558.13  1558.96
eigval :     1562.97  1563.72  1606.45  2955.19  2958.93  2960.87
eigval :     2961.17  2967.07  2969.20  2979.92  2980.82  2984.67
eigval :     2993.46  3013.16  3022.78  3024.96  3027.60  3028.13
eigval :     3038.11  3039.50  3070.62  3070.72  3070.84  3071.57
eigval :     3079.35  3079.74  3080.25  3080.45  3086.87  3087.11
eigval :     3088.23  3088.30  3088.89  3093.93  3094.26  3094.78
eigval :     3095.42  3095.78  3100.81  3102.92  3105.92  3107.47

   temp. (K)  partition function   enthalpy   heat capacity  entropy
                                   cal/mol     cal/K/mol   cal/K/mol   J/K/mol
 298.15  VIB  0.825E+18            23430.504    148.001    144.368
         ROT  0.852E+08              888.752      2.981     39.269
         INT  0.703E+26            24319.257    150.982    183.637
         TR   0.146E+29             1481.254      4.968     45.087
         TOT                       25800.5105   155.9505   228.7240   956.9814

       T/K    H(0)-H(T)+PV         H(T)/Eh          T*S/Eh         G(T)/Eh
   ------------------------------------------------------------------------
    298.15    0.411157E-01    0.734208E+00    0.108674E+00    0.625534E+00
   ------------------------------------------------------------------------

         :::::::::::::::::::::::::::::::::::::::::::::::::::::
         ::                  THERMODYNAMIC                  ::
         :::::::::::::::::::::::::::::::::::::::::::::::::::::
         :: total free energy        -122.340348781846 Eh   ::
         ::.................................................::
         :: total energy             -122.965882950824 Eh   ::
         :: zero point energy           0.693092607191 Eh   ::
         :: G(RRHO) w/o ZPVE           -0.067558438212 Eh   ::
         :: G(RRHO) contrib.            0.625534168978 Eh   ::
         :::::::::::::::::::::::::::::::::::::::::::::::::::::

           -------------------------------------------------
          | TOTAL ENERGY             -122.965882950824 Eh   |
          | TOTAL ENTHALPY           -122.231674612985 Eh   |
          | TOTAL FREE ENERGY        -122.340348781846 Eh   |
          | GRADIENT NORM               0.000064077003 Eh/α |
          | HOMO-LUMO GAP               0.049468105995 eV   |
           -------------------------------------------------

 * finished run on 2025/09/13 at 12:18:30.043
