   * xtb version 6.7.1 (edcfbbe) compiled by 'albert@albert-system' on 2024-07-22

   ID    Z sym.   atoms
    1    7 N      1, 9, 36, 38, 51
    2    6 C      2-8, 10-15, 17-35, 37, 39-50, 52
    3   14 Si     16
    4    1 H      53-83

          program call               : xtb data2507/toluene/SiTCNCz/SiTCNCz_toluene_S0_crest.xyz --gfn 2 --gbsa toluene --ohess vtight --parallel 40 --molden --ceasefiles --namespace data2507/toluene/SiTCNCz/SiTCNCz_toluene_S0_finalOpt
      * Solvation model:               GBSA
        Solvent                        toluene
        Solvent mass                       9.2140E+01 g/mol
          :  Hamiltonian                  GFN2-xTB          :
 * total energy  :  -130.6772973 Eh     change       -0.2191058E-08 Eh
 * total energy  :  -130.6773520 Eh     change       -0.5474999E-04 Eh
 * total energy  :  -130.6773653 Eh     change       -0.1324899E-04 Eh
 * total energy  :  -130.6773952 Eh     change       -0.2989349E-04 Eh
 * total energy  :  -130.6774116 Eh     change       -0.1641712E-04 Eh
 * total energy  :  -130.6774417 Eh     change       -0.3016492E-04 Eh
 * total energy  :  -130.6774678 Eh     change       -0.2608969E-04 Eh
 * total energy  :  -130.6774922 Eh     change       -0.2437034E-04 Eh
 * total energy  :  -130.6775031 Eh     change       -0.1089844E-04 Eh
 * total energy  :  -130.6775094 Eh     change       -0.6260494E-05 Eh
 * total energy  :  -130.6776347 Eh     change       -0.2201629E-06 Eh
 * total energy  :  -130.6776348 Eh     change       -0.1708175E-06 Eh
 * total energy  :  -130.6776350 Eh     change       -0.1441256E-06 Eh
 * total energy  :  -130.6776351 Eh     change       -0.1099109E-06 Eh
 * total energy  :  -130.6776353 Eh     change       -0.1613838E-06 Eh
 * total energy  :  -130.6776354 Eh     change       -0.1888942E-06 Eh
 * total energy  :  -130.6776356 Eh     change       -0.1603871E-06 Eh
 * total energy  :  -130.6776358 Eh     change       -0.1870864E-06 Eh
 * total energy  :  -130.6776358 Eh     change       -0.9883934E-09 Eh
   *** GEOMETRY OPTIMIZATION CONVERGED AFTER 94 ITERATIONS ***

 final structure:
================
83
 xtb: 6.7.1 (edcfbbe)
N            5.50067467050356       -6.89308362033579        0.64006859998682
C            5.62756321773618       -5.76692659978506        0.46192056701306
C            5.78895857449053       -4.37866238732505        0.24364952611854
C            7.07139061794918       -3.83497802227042        0.13147776829619
C            7.21919483089575       -2.47619790448780       -0.08139690282452
C            6.10658868327106       -1.65842207084901       -0.17822979092783
C            4.82502065506357       -2.19617415478503       -0.06344915793028
C            3.64015307584176       -1.33406699013445       -0.16152669028954
N            2.46060800575808       -1.92443850715691       -0.31531160668261
C            1.41140972052169       -1.10447770976329       -0.38920056467895
C            0.08508046183728       -1.70416712772570       -0.52183859246193
C           -0.04319568449273       -3.03348153255368       -0.92197159941962
C           -1.30106966199325       -3.59192976998398       -1.04607756210698
C           -2.42654159595509       -2.83670469526318       -0.76037035439076
C           -2.32249824155997       -1.51089732715224       -0.34344783940614
Si          -3.88653168105538       -0.52942021703558        0.10619612743135
C           -5.19974532176680       -0.91218802416028       -1.20771668539620
C           -4.86106955324171       -0.91690378087148       -2.55947689766317
C           -5.80786114705204       -1.18059756039171       -3.53273276876595
C           -7.11790280844478       -1.44846866796349       -3.16962430447851
C           -7.47192908780155       -1.45029528153768       -1.83058392865216
C           -6.52017922532469       -1.18417207346916       -0.86174237710843
C           -3.52835953724004        1.33130401585819        0.16404610974913
C           -4.04925056944043        2.20633842392892       -0.78454921759024
C           -3.80545324180952        3.56666222030094       -0.71120607792630
C           -3.02698660765707        4.07776870283185        0.31385877040910
C           -2.49666276768749        3.22129463182846        1.26461035359372
C           -2.75079012517541        1.86389203807440        1.19028398962772
C           -4.48940505937295       -1.07067101970323        1.82174156645385
C           -4.10983098006738       -2.28570837321361        2.38468437278140
C           -4.57578049833275       -2.67346341796540        3.62879335955507
C           -5.43452937546439       -1.84836758644066        4.33599740120526
C           -5.81972057927070       -0.63321859375031        3.79318999958747
C           -5.35036548638726       -0.25168063533537        2.54922110330601
C           -1.05604176481947       -0.95670901710036       -0.23749500668045
N            1.49637583588577        0.21891364282104       -0.34371842165787
C            2.72186743389588        0.71997578709635       -0.20125658706529
N            2.86107925432914        2.07485966085725       -0.17146283934487
C            1.91056685791592        3.00927278940868       -0.60207939270749
C            0.64402468659868        2.81839969931480       -1.12796965301591
C           -0.07446150693882        3.93762486505623       -1.51471174839800
C            0.44821518787358        5.21916448350956       -1.38406704312950
C            1.71523967025843        5.41549919575535       -0.86754835304623
C            2.45139211704774        4.30564227521754       -0.47890910259402
C            3.77731445124478        4.15923022702936        0.06616445192972
C            4.75477020998194        5.07921619699688        0.41720211907430
C            5.94172152027993        4.61171122873324        0.94972627908066
C            6.14519523920383        3.24981052925475        1.14187264380121
C            5.18126411817324        2.31696369486660        0.79563789500968
C            3.99926058551780        2.77791535253113        0.24086040384796
N            3.82570229353219       -0.02335677948557       -0.09049002876109
C            4.66594822125233       -3.56114211308164        0.14579513448860
H            7.93346695017570       -4.48031097906068        0.20995262283355
H            8.20751794821600       -2.05256175535379       -0.17279251530913
H            6.21240758212373       -0.59898396485370       -0.35242131753620
H            0.84654409036193       -3.60412536538205       -1.14046667059997
H           -1.40428069486467       -4.61884867121972       -1.36527191108442
H           -3.40654828809884       -3.27970970244210       -0.86430098353508
H           -3.83908714186842       -0.71310564653892       -2.84821505226484
H           -5.52537174604799       -1.17907684742811       -4.57621271046293
H           -7.85925629462470       -1.65590009953958       -3.92799077305200
H           -8.49204198499626       -1.66067905489081       -1.54174276272585
H           -6.80185263452499       -1.19014001001653        0.18136272131792
H           -4.65935366888467        1.81474933279369       -1.58579544507106
H           -4.22429416686318        4.23053039050608       -1.45457427491978
H           -2.83522825544158        5.13909488078051        0.37467603917136
H           -1.88650991268551        3.61444707741484        2.06572544302960
H           -2.34749131988974        1.20360542876560        1.94596413289243
H           -3.43600093491402       -2.93364106381483        1.84235429940405
H           -4.26855374022484       -3.62112256398267        4.04855087442454
H           -5.79986220778723       -2.14980115480727        5.30727587829372
H           -6.48698669550623        0.01671434201902        4.34162696286164
H           -5.65100106300208        0.69927317279157        2.13228732363080
H           -0.93678210306617        0.06847176863387        0.07868741908427
H            0.22941574911066        1.83059405854484       -1.23352722320166
H           -1.06412761569971        3.80523590135108       -1.92361815697942
H           -0.14217497826084        6.06780736385613       -1.69496768215212
H            2.13050861579988        6.40683280472343       -0.77154197644794
H            4.58476786483144        6.13584114394190        0.27988007131642
H            6.71745469648917        5.30905632202840        1.22809043441834
H            7.07389276632579        2.90725077598191        1.57325472078655
H            5.34288307860963        1.26473378023219        0.95658299714373
H            3.67217105089224       -3.97257899342801        0.23459333451151

          :  Hamiltonian                  GFN2-xTB          :
         :: gradient norm              0.000042408632 Eh/a0 ::
         :: HOMO-LUMO gap              2.239625801247 eV    ::
         :: SCC energy              -133.126031866746 Eh    ::
         :: -> dispersion             -0.119445759399 Eh    ::
         :: -> Gsolv                  -0.060932886433 Eh    ::
         :: repulsion energy           2.448396074459 Eh    ::

    * Orbital Energies and Occupations

         #    Occupation            Energy/Eh            Energy/eV
      -------------------------------------------------------------
         1        2.0000           -0.7588475             -20.6493
       ...           ...                  ...                  ...
       110        2.0000           -0.4078483             -11.0981
       111        2.0000           -0.4067495             -11.0682
       112        2.0000           -0.4048407             -11.0163
       113        2.0000           -0.4039970             -10.9933
       114        2.0000           -0.4037861             -10.9876
       115        2.0000           -0.4035812             -10.9820
       116        2.0000           -0.3940811             -10.7235
       117        2.0000           -0.3923260             -10.6757
       118        2.0000           -0.3913769             -10.6499
       119        2.0000           -0.3893470             -10.5947
       120        2.0000           -0.3880491             -10.5594
       121        2.0000           -0.3874405             -10.5428
       122        2.0000           -0.3857639             -10.4972 (HOMO)
       123                         -0.3034592              -8.2575 (LUMO)
       124                         -0.2881506              -7.8410
       125                         -0.2834402              -7.7128
       126                         -0.2590357              -7.0487
       127                         -0.2472972              -6.7293
       128                         -0.2435107              -6.6263
       129                         -0.2407478              -6.5511
       130                         -0.2380522              -6.4777
       131                         -0.2345417              -6.3822
       132                         -0.2335628              -6.3556
       133                         -0.2235518              -6.0832
       ...                                ...                  ...
       244                          1.1506157              31.3098
      -------------------------------------------------------------
                  HL-Gap            0.0823047 Eh            2.2396 eV

     #   Z          covCN         q      C6AA      α(0)
     1   7 N        0.911    -0.253    26.569     7.455
     2   6 C        1.912     0.119    28.162     8.570
     3   6 C        2.972     0.022    27.514     8.604
     4   6 C        2.926    -0.014    28.364     8.734
     5   6 C        2.917    -0.021    28.537     8.760
     6   6 C        2.922    -0.019    28.476     8.751
     7   6 C        2.983    -0.002    28.075     8.692
     8   6 C        2.989     0.215    23.454     7.944
     9   7 N        1.844    -0.333    29.499     8.049
    10   6 C        2.987     0.219    23.396     7.934
    11   6 C        2.982    -0.011    28.282     8.723
    12   6 C        2.924    -0.026    28.658     8.779
    13   6 C        2.915    -0.029    28.722     8.788
    14   6 C        2.939    -0.025    28.637     8.777
    15   6 C        2.860    -0.092    30.293     9.021
    16  14 Si       3.610     0.489    98.220    19.027
    17   6 C        2.862    -0.091    30.291     9.021
    18   6 C        2.937    -0.032    28.796     8.801
    19   6 C        2.917    -0.031    28.766     8.795
    20   6 C        2.920    -0.029    28.717     8.788
    21   6 C        2.917    -0.030    28.750     8.793
    22   6 C        2.935    -0.033    28.812     8.803
    23   6 C        2.862    -0.092    30.304     9.023
    24   6 C        2.935    -0.033    28.829     8.806
    25   6 C        2.917    -0.030    28.759     8.794
    26   6 C        2.920    -0.028    28.701     8.785
    27   6 C        2.917    -0.030    28.759     8.794
    28   6 C        2.938    -0.031    28.776     8.798
    29   6 C        2.862    -0.092    30.296     9.022
    30   6 C        2.934    -0.033    28.832     8.806
    31   6 C        2.917    -0.031    28.770     8.796
    32   6 C        2.920    -0.029    28.726     8.789
    33   6 C        2.917    -0.031    28.763     8.795
    34   6 C        2.938    -0.032    28.793     8.800
    35   6 C        2.939    -0.030    28.746     8.793
    36   7 N        1.847    -0.330    29.423     8.039
    37   6 C        2.922     0.282    22.240     7.734
    38   7 N        2.805    -0.053    22.271     7.009
    39   6 C        3.050     0.054    26.752     8.483
    40   6 C        2.911    -0.048    29.195     8.860
    41   6 C        2.924    -0.032    28.790     8.799
    42   6 C        2.920    -0.036    28.887     8.814
    43   6 C        2.913    -0.034    28.842     8.806
    44   6 C        3.062    -0.013    28.282     8.721
    45   6 C        3.061    -0.013    28.267     8.719
    46   6 C        2.913    -0.034    28.834     8.805
    47   6 C        2.920    -0.036    28.903     8.816
    48   6 C        2.924    -0.033    28.823     8.804
    49   6 C        2.911    -0.049    29.206     8.862
    50   6 C        3.050     0.053    26.767     8.485
    51   7 N        1.847    -0.333    29.499     8.049
    52   6 C        2.931    -0.016    28.416     8.742
    53   1 H        0.926     0.062     2.181     2.310
    54   1 H        0.926     0.065     2.143     2.289
    55   1 H        0.926     0.064     2.153     2.295
    56   1 H        0.926     0.044     2.396     2.420
    57   1 H        0.926     0.044     2.391     2.418
    58   1 H        0.926     0.040     2.447     2.446
    59   1 H        0.925     0.021     2.716     2.577
    60   1 H        0.926     0.030     2.581     2.512
    61   1 H        0.926     0.032     2.555     2.500
    62   1 H        0.926     0.032     2.564     2.504
    63   1 H        0.926     0.026     2.650     2.546
    64   1 H        0.926     0.027     2.625     2.533
    65   1 H        0.926     0.033     2.549     2.497
    66   1 H        0.926     0.033     2.544     2.494
    67   1 H        0.926     0.026     2.648     2.545
    68   1 H        0.925     0.018     2.767     2.601
    69   1 H        0.926     0.022     2.707     2.573
    70   1 H        0.926     0.030     2.590     2.517
    71   1 H        0.926     0.032     2.557     2.501
    72   1 H        0.926     0.032     2.563     2.504
    73   1 H        0.926     0.024     2.672     2.556
    74   1 H        0.926     0.039     2.467     2.456
    75   1 H        0.926     0.049     2.334     2.389
    76   1 H        0.926     0.043     2.408     2.427
    77   1 H        0.926     0.045     2.382     2.414
    78   1 H        0.926     0.047     2.362     2.403
    79   1 H        0.926     0.046     2.367     2.406
    80   1 H        0.926     0.045     2.387     2.416
    81   1 H        0.926     0.044     2.398     2.422
    82   1 H        0.926     0.049     2.338     2.391
    83   1 H        0.926     0.059     2.216     2.328

molecular dipole:
                 x           y           z       tot (Debye)
 q only:       -0.496       1.800      -0.243
   full:       -0.361       2.006      -0.274       5.228

 projected vibrational frequencies (cm⁻¹)
eigval :       -0.00    -0.00    -0.00    -0.00     0.00     0.00
eigval :        5.06    12.17    17.01    22.80    25.09    28.84
eigval :       32.42    33.95    37.11    40.08    43.56    47.02
eigval :       48.08    50.35    53.33    71.02    88.71    99.30
eigval :      104.12   124.34   133.51   140.72   151.57   155.65
eigval :      161.44   168.52   175.13   184.90   189.37   202.18
eigval :      214.52   216.05   218.34   220.76   228.05   238.80
eigval :      266.59   276.18   302.63   323.74   354.50   356.05
eigval :      359.20   362.28   377.59   380.08   392.43   396.80
eigval :      409.77   417.35   422.19   423.33   427.94   434.05
eigval :      438.57   450.97   475.22   479.87   485.82   514.59
eigval :      519.45   535.54   539.52   548.67   567.81   587.40
eigval :      588.72   589.33   589.49   615.04   623.04   625.65
eigval :      645.69   650.79   651.69   662.21   663.70   664.14
eigval :      665.57   675.51   681.76   691.05   704.55   707.14
eigval :      712.95   714.89   734.05   737.29   737.36   752.28
eigval :      763.63   770.75   776.28   785.17   803.03   805.69
eigval :      834.88   875.92   878.81   880.74   884.03   885.18
eigval :      889.45   894.91   903.73   905.63   906.03   908.35
eigval :      909.84   910.47   911.48   921.90   924.61   927.99
eigval :      931.93   932.37   933.33   933.56   934.32   935.38
eigval :      935.90   937.00   941.09   974.51   975.95   976.40
eigval :      982.00   990.52  1016.05  1022.28  1050.22  1069.31
eigval :     1074.56  1083.21  1084.36  1084.81  1104.51  1117.08
eigval :     1118.73  1119.07  1120.66  1121.34  1139.50  1142.78
eigval :     1145.26  1147.71  1148.05  1148.64  1168.81  1174.64
eigval :     1177.06  1179.72  1180.93  1181.98  1182.29  1188.06
eigval :     1204.59  1206.95  1209.01  1215.87  1221.22  1225.19
eigval :     1239.25  1246.92  1256.91  1265.66  1279.00  1285.29
eigval :     1287.11  1288.54  1294.97  1308.60  1308.76  1310.00
eigval :     1319.86  1320.76  1347.64  1350.15  1360.39  1371.42
eigval :     1408.13  1414.03  1417.20  1417.44  1419.07  1419.95
eigval :     1422.74  1441.44  1452.59  1461.49  1462.25  1462.99
eigval :     1467.06  1470.24  1480.15  1506.32  1526.81  1566.83
eigval :     1569.38  1573.97  1574.11  1575.03  1578.80  1579.95
eigval :     1582.03  1589.54  1591.10  1591.62  1592.82  1597.05
eigval :     1608.08  2369.03  3056.13  3057.67  3061.56  3062.25
eigval :     3063.44  3063.67  3068.47  3068.56  3069.84  3071.04
eigval :     3073.30  3074.88  3075.63  3081.64  3082.07  3083.55
eigval :     3083.81  3083.94  3086.07  3089.42  3091.51  3093.75
eigval :     3095.11  3097.02  3099.23  3100.21  3101.67  3104.43
eigval :     3109.21  3127.38  3131.79

   temp. (K)  partition function   enthalpy   heat capacity  entropy
                                   cal/mol     cal/K/mol   cal/K/mol   J/K/mol
 298.15  VIB  0.907E+22            25787.809    153.433    164.099
         ROT  0.109E+09              888.752      2.981     39.767
         INT  0.993E+30            26676.561    156.414    203.867
         TR   0.172E+29             1481.254      4.968     45.419
         TOT                       28157.8151   161.3818   249.2860  1043.0126

       T/K    H(0)-H(T)+PV         H(T)/Eh          T*S/Eh         G(T)/Eh
   ------------------------------------------------------------------------
    298.15    0.448723E-01    0.669272E+00    0.118444E+00    0.550828E+00
   ------------------------------------------------------------------------

         :::::::::::::::::::::::::::::::::::::::::::::::::::::
         ::                  THERMODYNAMIC                  ::
         :::::::::::::::::::::::::::::::::::::::::::::::::::::
         :: total free energy        -130.126807565646 Eh   ::
         ::.................................................::
         :: total energy             -130.677635793198 Eh   ::
         :: zero point energy           0.624399710880 Eh   ::
         :: G(RRHO) w/o ZPVE           -0.073571483327 Eh   ::
         :: G(RRHO) contrib.            0.550828227552 Eh   ::
         :::::::::::::::::::::::::::::::::::::::::::::::::::::

           -------------------------------------------------
          | TOTAL ENERGY             -130.677635793198 Eh   |
          | TOTAL ENTHALPY           -130.008363747729 Eh   |
          | TOTAL FREE ENERGY        -130.126807565646 Eh   |
          | GRADIENT NORM               0.000042316915 Eh/α |
          | HOMO-LUMO GAP               2.239625623937 eV   |
           -------------------------------------------------

 * finished run on 2025/08/30 at 19:27:00.057
