   * xtb version 6.7.1 (edcfbbe) compiled by 'albert@albert-system' on 2024-07-22

   ID    Z sym.   atoms
    1    7 N      1, 9, 36, 38, 51
    2    6 C      2-8, 10-15, 17-35, 37, 39-50, 52
    3   14 Si     16
    4    1 H      53-83

          program call               : xtb data2507/toluene/SiTCNCz/SiTCNCz_toluene_T1_crest.xyz --gfn 2 --uhf 2 --gbsa toluene --ohess vtight --parallel 40 --molden --ceasefiles --namespace data2507/toluene/SiTCNCz/SiTCNCz_toluene_T1_finalOpt
      * Solvation model:               GBSA
        Solvent                        toluene
        Solvent mass                       9.2140E+01 g/mol
          :  Hamiltonian                  GFN2-xTB          :
 * total energy  :  -130.5918609 Eh     change       -0.5206948E-07 Eh
 * total energy  :  -130.5919810 Eh     change       -0.1200746E-03 Eh
 * total energy  :  -130.5920167 Eh     change       -0.3576165E-04 Eh
 * total energy  :  -130.5920079 Eh     change        0.8849584E-05 Eh
 * total energy  :  -130.5920886 Eh     change       -0.8073800E-04 Eh
 * total energy  :  -130.5921070 Eh     change       -0.1837098E-04 Eh
 * total energy  :  -130.5921349 Eh     change       -0.2790065E-04 Eh
 * total energy  :  -130.5921508 Eh     change       -0.1593182E-04 Eh
 * total energy  :  -130.5921637 Eh     change       -0.1287242E-04 Eh
 * total energy  :  -130.5921761 Eh     change       -0.1240355E-04 Eh
 * total energy  :  -130.5925835 Eh     change       -0.5167638E-06 Eh
 * total energy  :  -130.5925839 Eh     change       -0.3999099E-06 Eh
 * total energy  :  -130.5925843 Eh     change       -0.3408775E-06 Eh
 * total energy  :  -130.5925848 Eh     change       -0.4693185E-06 Eh
 * total energy  :  -130.5925855 Eh     change       -0.7329917E-06 Eh
 * total energy  :  -130.5925861 Eh     change       -0.6398415E-06 Eh
 * total energy  :  -130.5925865 Eh     change       -0.3716754E-06 Eh
 * total energy  :  -130.5925867 Eh     change       -0.2367067E-06 Eh
 * total energy  :  -130.5925867 Eh     change       -0.2006175E-08 Eh
   *** GEOMETRY OPTIMIZATION CONVERGED AFTER 122 ITERATIONS ***

 final structure:
================
83
 xtb: 6.7.1 (edcfbbe)
N            5.92246250276304       -6.74541458817134        0.62634463745006
C            5.96816552353553       -5.61407706124300        0.43240917625823
C            6.02767896392673       -4.22426168912610        0.19472801267365
C            7.26962470082633       -3.60642008146553       -0.02014699128215
C            7.30715400858439       -2.23959214381083       -0.25340096575652
C            6.14919134858139       -1.49387608426009       -0.27271615876609
C            4.89544360015872       -2.10298744233148       -0.05438523782133
C            3.68931519724643       -1.33597547343366       -0.07148497614208
N            2.51313989136639       -1.94856723861549        0.03954529031164
C            1.40999236035195       -1.22929568879564        0.01570766348507
C            0.12858448435062       -1.87587142480167        0.13531247257504
C            0.01132104848359       -3.26886176627029        0.22921190041447
C           -1.23185513023436       -3.85004662879301        0.35446762587078
C           -2.37813138805725       -3.06540244645151        0.38598202205176
C           -2.28092499442075       -1.68046621147829        0.28867170137640
Si          -3.83422352898633       -0.56996805359300        0.26329953180199
C           -4.42953429194874       -0.42988795358342       -1.53262124418072
C           -3.54807194372375       -0.58918613803498       -2.59865812203417
C           -3.98075308740195       -0.46306680882240       -3.90694115780162
C           -5.30923201529719       -0.17365804459004       -4.17251932305418
C           -6.19973306488095       -0.01103941656365       -3.12363055426769
C           -5.76194798032652       -0.13864410957842       -1.81753213604067
C           -3.34509461926763        1.13765369190276        0.92736333233651
C           -3.80137577022291        2.30369756720808        0.31876533894615
C           -3.43862857620223        3.54865531062779        0.80167585527724
C           -2.60779169225393        3.64983438633105        1.90488519465510
C           -2.14711236329156        2.49955628126110        2.52471156205014
C           -2.51468822975956        1.25743936296464        2.03942372518516
C           -5.18654956463877       -1.36387321187621        1.32981481718048
C           -5.95975185723585       -2.40790295062487        0.82571145641418
C           -6.95062155347501       -2.99472659624556        1.59164294389675
C           -7.18522304458680       -2.54693425966279        2.88196032554606
C           -6.42700105369880       -1.50850374603900        3.39742461167910
C           -5.43601324338253       -0.92533890673272        2.62770532200283
C           -1.03684217817796       -1.09826492878968        0.16682067989658
N            1.44554061328920        0.13535130008034       -0.09433705458034
C            2.63739127956391        0.69509569272786       -0.21207450414093
N            2.68839808410604        2.06633543048919       -0.32372860230272
C            3.77090309252223        2.86952825490992        0.01308130946510
C            5.00585852880648        2.51757365195746        0.53463331768059
C            5.91478382852556        3.53154867714203        0.78688255554060
C            5.59760546433127        4.86412541246494        0.54468690473274
C            4.35577755833477        5.22262698957403        0.04630046786721
C            3.43360294225297        4.22202235537619       -0.21728646142819
C            2.08075656623038        4.23180380306893       -0.71757399649706
C            1.22307252570736        5.24552651977700       -1.11494472399613
C           -0.04077224789773        4.90401970693526       -1.56799324064751
C           -0.44244093417685        3.57425308933337       -1.63603288990258
C            0.40121567174296        2.54761237688484       -1.24736761949146
C            1.65721556594144        2.88507921945188       -0.76842607409326
N            3.76891177773288        0.02782454488844       -0.22397021044283
C            4.85495056365094       -3.48565438360790        0.17751255394021
H            8.17320987623764       -4.19598626636432       -0.00346275014739
H            8.25832914211531       -1.75682720248969       -0.42397510392570
H            6.17916825589116       -0.43315272282927       -0.46754321791679
H            0.90798156259174       -3.86969550621712        0.20360216129636
H           -1.31723318676493       -4.92460964492523        0.42987803654559
H           -3.34445543329860       -3.53298503897304        0.49120325688796
H           -2.51172789435796       -0.82253094092312       -2.39884167491685
H           -3.28156116666064       -0.59266028061750       -4.72101898623028
H           -5.64951771165955       -0.07826099355105       -5.19353194697174
H           -7.23714571913141        0.21490107815414       -3.32516972054249
H           -6.46123696080225       -0.01341401282486       -1.00341642408151
H           -4.44467779124026        2.23135118282760       -0.54616008118932
H           -3.80121073065599        4.44276969108616        0.31523835547653
H           -2.31703079629470        4.62053660108220        2.27958901490009
H           -1.49906085345199        2.57130913100615        3.38707069039764
H           -2.14676693414833        0.36470030346934        2.52615137289140
H           -5.78751806224168       -2.75619476545728       -0.18289740751920
H           -7.54173757549523       -3.80208432318988        1.18332360544096
H           -7.95705225883617       -3.00570595187682        3.48298017043273
H           -6.60860472110799       -1.15296007792196        4.40169987311156
H           -4.85146596472740       -0.11310992924759        3.03444262600665
H           -0.92836410997552       -0.02585911000804        0.10694162972580
H            5.24236361853452        1.48514482019156        0.73716938407052
H            6.88512601632681        3.28033771998040        1.18765865283637
H            6.32883605498201        5.62876488590342        0.75844793498613
H            4.10865152830903        6.25725685425341       -0.13333220957964
H            1.53740001165031        6.27670662776065       -1.07296422146973
H           -0.72190473419053        5.67929711741400       -1.88401406246445
H           -1.42761186135839        3.33232096292416       -2.00388762425776
H            0.09715977190896        1.51596587451201       -1.31460591773179
H            3.90217819237426       -3.96473084633111        0.34536064570341

          :  Hamiltonian                  GFN2-xTB          :
         :: gradient norm              0.000036787401 Eh/a0 ::
         :: HOMO-LUMO gap              0.440772891021 eV    ::
         :: SCC energy              -133.033653524980 Eh    ::
         :: -> dispersion             -0.118810308861 Eh    ::
         :: -> Gsolv                  -0.064280702065 Eh    ::
         :: repulsion energy           2.441066790070 Eh    ::

    * Orbital Energies and Occupations

         #    Occupation            Energy/Eh            Energy/eV
      -------------------------------------------------------------
         1        2.0000           -0.7655523             -20.8317
       ...           ...                  ...                  ...
       111        2.0000           -0.4101158             -11.1598
       112        2.0000           -0.4086724             -11.1205
       113        2.0000           -0.4081912             -11.1074
       114        2.0000           -0.4077551             -11.0956
       115        2.0000           -0.4072263             -11.0812
       116        2.0000           -0.3992482             -10.8641
       117        1.9999           -0.3967521             -10.7962
       118        1.9968           -0.3936775             -10.7125
       119        1.9872           -0.3923508             -10.6764
       120        1.9812           -0.3919784             -10.6663
       121        1.7853           -0.3894522             -10.5975
       122        1.2496           -0.3871742             -10.5355
       123        0.9998           -0.2986660              -8.1271 (HOMO)
       124        0.0002           -0.2824680              -7.6863 (LUMO)
       125                         -0.2678270              -7.2879
       126                         -0.2632250              -7.1627
       127                         -0.2487286              -6.7683
       128                         -0.2443205              -6.6483
       129                         -0.2440503              -6.6409
       130                         -0.2420184              -6.5857
       131                         -0.2376718              -6.4674
       132                         -0.2332999              -6.3484
       133                         -0.2270537              -6.1784
       134                         -0.2265553              -6.1649
       ...                                ...                  ...
       244                          1.1588992              31.5353
      -------------------------------------------------------------
                  HL-Gap            0.0161980 Eh            0.4408 eV

     #   Z          covCN         q      C6AA      α(0)
     1   7 N        0.911    -0.280    27.229     7.547
     2   6 C        1.914     0.117    28.210     8.578
     3   6 C        2.970     0.011    27.757     8.642
     4   6 C        2.924    -0.036    28.894     8.815
     5   6 C        2.914    -0.028    28.705     8.786
     6   6 C        2.921    -0.036    28.898     8.815
     7   6 C        2.977    -0.011    28.276     8.722
     8   6 C        2.938     0.170    24.341     8.091
     9   7 N        1.845    -0.276    28.005     7.843
    10   6 C        2.936     0.182    24.114     8.054
    11   6 C        2.979    -0.009    28.228     8.715
    12   6 C        2.922    -0.033    28.827     8.805
    13   6 C        2.916    -0.028    28.706     8.786
    14   6 C        2.932    -0.036    28.904     8.817
    15   6 C        2.861    -0.083    30.070     8.988
    16  14 Si       3.610     0.503    97.881    18.994
    17   6 C        2.862    -0.089    30.231     9.012
    18   6 C        2.935    -0.031    28.766     8.796
    19   6 C        2.917    -0.029    28.728     8.789
    20   6 C        2.920    -0.027    28.674     8.781
    21   6 C        2.917    -0.029    28.720     8.788
    22   6 C        2.936    -0.031    28.774     8.797
    23   6 C        2.862    -0.090    30.259     9.017
    24   6 C        2.936    -0.032    28.799     8.801
    25   6 C        2.917    -0.029    28.727     8.789
    26   6 C        2.920    -0.028    28.700     8.785
    27   6 C        2.917    -0.030    28.753     8.793
    28   6 C        2.936    -0.031    28.768     8.796
    29   6 C        2.863    -0.087    30.180     9.005
    30   6 C        2.937    -0.031    28.766     8.796
    31   6 C        2.917    -0.029    28.713     8.787
    32   6 C        2.920    -0.026    28.650     8.778
    33   6 C        2.917    -0.028    28.708     8.786
    34   6 C        2.935    -0.031    28.778     8.798
    35   6 C        2.945    -0.036    28.901     8.817
    36   7 N        1.847    -0.315    29.022     7.984
    37   6 C        2.862     0.280    22.266     7.734
    38   7 N        2.811    -0.042    22.048     6.974
    39   6 C        3.060     0.056    26.697     8.473
    40   6 C        2.910    -0.042    29.041     8.837
    41   6 C        2.923    -0.030    28.747     8.793
    42   6 C        2.920    -0.032    28.787     8.798
    43   6 C        2.912    -0.029    28.734     8.790
    44   6 C        3.062    -0.011    28.218     8.711
    45   6 C        3.062    -0.011    28.224     8.712
    46   6 C        2.912    -0.029    28.732     8.790
    47   6 C        2.920    -0.031    28.774     8.796
    48   6 C        2.923    -0.030    28.740     8.791
    49   6 C        2.910    -0.042    29.032     8.835
    50   6 C        3.060     0.056    26.689     8.472
    51   7 N        1.846    -0.313    28.951     7.974
    52   6 C        2.932    -0.027    28.675     8.782
    53   1 H        0.926     0.037     2.489     2.467
    54   1 H        0.926     0.043     2.404     2.425
    55   1 H        0.926     0.043     2.415     2.430
    56   1 H        0.926     0.040     2.453     2.449
    57   1 H        0.926     0.042     2.425     2.435
    58   1 H        0.926     0.041     2.442     2.443
    59   1 H        0.926     0.020     2.735     2.586
    60   1 H        0.926     0.031     2.571     2.507
    61   1 H        0.926     0.036     2.506     2.476
    62   1 H        0.926     0.037     2.494     2.470
    63   1 H        0.926     0.030     2.584     2.514
    64   1 H        0.926     0.031     2.575     2.510
    65   1 H        0.926     0.037     2.485     2.465
    66   1 H        0.926     0.034     2.525     2.485
    67   1 H        0.926     0.028     2.614     2.528
    68   1 H        0.925     0.022     2.700     2.570
    69   1 H        0.926     0.030     2.584     2.514
    70   1 H        0.926     0.036     2.502     2.474
    71   1 H        0.926     0.037     2.493     2.469
    72   1 H        0.926     0.035     2.512     2.479
    73   1 H        0.926     0.030     2.587     2.515
    74   1 H        0.926     0.039     2.468     2.457
    75   1 H        0.926     0.050     2.324     2.384
    76   1 H        0.926     0.049     2.338     2.391
    77   1 H        0.926     0.052     2.295     2.369
    78   1 H        0.926     0.054     2.269     2.356
    79   1 H        0.926     0.054     2.266     2.354
    80   1 H        0.926     0.053     2.279     2.361
    81   1 H        0.926     0.050     2.320     2.382
    82   1 H        0.926     0.049     2.337     2.391
    83   1 H        0.926     0.039     2.465     2.455

molecular dipole:
                 x           y           z       tot (Debye)
 q only:       -3.372       3.835      -0.281
   full:       -3.167       4.004      -0.312      13.000

 projected vibrational frequencies (cm⁻¹)
eigval :       -0.00    -0.00    -0.00    -0.00     0.00     0.00
eigval :       -6.06    12.46    15.66    20.20    25.43    28.64
eigval :       31.76    32.54    38.20    38.72    41.98    43.99
eigval :       45.51    47.61    58.93    74.05    85.31    96.89
eigval :      103.44   116.71   136.57   142.44   146.01   151.05
eigval :      151.96   156.59   170.18   172.48   179.27   189.57
eigval :      204.57   209.06   217.57   220.62   221.76   227.63
eigval :      262.48   273.50   291.86   313.16   352.40   357.77
eigval :      359.87   360.11   363.42   376.05   389.13   391.21
eigval :      399.57   407.10   415.24   416.07   424.05   430.91
eigval :      439.05   446.71   463.39   470.85   472.67   502.78
eigval :      510.63   515.61   535.96   541.30   546.97   571.60
eigval :      584.00   585.98   587.01   587.59   588.16   599.15
eigval :      609.81   626.28   635.88   639.74   641.22   654.75
eigval :      657.03   659.06   660.70   669.07   675.60   679.49
eigval :      696.34   698.79   712.29   725.53   733.32   734.58
eigval :      736.01   753.63   768.14   770.54   771.89   779.15
eigval :      799.69   852.24   864.64   866.42   870.69   872.51
eigval :      874.82   877.58   880.00   881.46   884.88   903.36
eigval :      904.68   905.84   907.17   908.42   909.03   914.61
eigval :      915.97   921.06   922.27   929.54   931.94   932.29
eigval :      933.52   934.71   934.98   950.73   956.34   966.46
eigval :      968.94   970.92   978.07  1009.37  1013.47  1047.56
eigval :     1062.72  1065.86  1080.79  1082.77  1082.99  1086.86
eigval :     1101.55  1114.17  1116.36  1118.12  1119.42  1121.40
eigval :     1123.02  1127.91  1129.20  1134.36  1138.33  1150.07
eigval :     1167.82  1172.77  1177.37  1178.46  1180.75  1181.10
eigval :     1182.29  1197.72  1203.20  1205.25  1207.06  1216.01
eigval :     1220.12  1241.61  1247.63  1261.99  1275.74  1282.88
eigval :     1283.41  1284.82  1287.11  1295.27  1307.30  1308.68
eigval :     1308.99  1320.90  1329.68  1339.11  1340.22  1358.42
eigval :     1360.75  1372.72  1375.46  1403.92  1411.26  1414.57
eigval :     1415.50  1415.94  1417.18  1423.06  1446.44  1452.87
eigval :     1455.94  1458.28  1458.97  1463.04  1474.81  1506.25
eigval :     1511.98  1543.89  1558.87  1559.32  1566.35  1567.09
eigval :     1569.53  1571.44  1574.73  1578.69  1578.96  1584.24
eigval :     1597.79  2355.39  3059.49  3063.63  3063.77  3066.24
eigval :     3066.89  3067.58  3070.74  3071.78  3072.45  3072.80
eigval :     3076.49  3076.93  3078.65  3079.18  3084.35  3085.77
eigval :     3086.15  3086.35  3086.74  3088.12  3088.18  3092.83
eigval :     3094.13  3095.42  3095.87  3095.95  3100.22  3101.92
eigval :     3102.64  3104.96  3110.33

   temp. (K)  partition function   enthalpy   heat capacity  entropy
                                   cal/mol     cal/K/mol   cal/K/mol   J/K/mol
 298.15  VIB  0.215E+23            26286.038    156.234    167.089
         ROT  0.106E+09              888.752      2.981     39.702
         INT  0.228E+31            27174.790    159.215    206.791
         TR   0.172E+29             1481.254      4.968     45.419
         TOT                       28656.0438   164.1828   252.2103  1055.2480

       T/K    H(0)-H(T)+PV         H(T)/Eh          T*S/Eh         G(T)/Eh
   ------------------------------------------------------------------------
    298.15    0.456663E-01    0.663804E+00    0.119833E+00    0.543971E+00
   ------------------------------------------------------------------------

         :::::::::::::::::::::::::::::::::::::::::::::::::::::
         ::                  THERMODYNAMIC                  ::
         :::::::::::::::::::::::::::::::::::::::::::::::::::::
         :: total free energy        -130.048615993220 Eh   ::
         ::.................................................::
         :: total energy             -130.592586735550 Eh   ::
         :: zero point energy           0.618137692563 Eh   ::
         :: G(RRHO) w/o ZPVE           -0.074166950233 Eh   ::
         :: G(RRHO) contrib.            0.543970742330 Eh   ::
         :::::::::::::::::::::::::::::::::::::::::::::::::::::

           -------------------------------------------------
          | TOTAL ENERGY             -130.592586735550 Eh   |
          | TOTAL ENTHALPY           -129.928782730423 Eh   |
          | TOTAL FREE ENERGY        -130.048615993220 Eh   |
          | GRADIENT NORM               0.000037649214 Eh/α |
          | HOMO-LUMO GAP               0.440770711641 eV   |
           -------------------------------------------------

 * finished run on 2025/08/30 at 19:42:23.224
