   * xtb version 6.7.1 (edcfbbe) compiled by 'albert@albert-system' on 2024-07-22

   ID    Z sym.   atoms
    1    7 N      1, 9, 36, 38, 51
    2    6 C      2-8, 10-15, 17-35, 37, 39-50, 52
    3   14 Si     16
    4    1 H      53-83

          program call               : xtb data2507/toluene/SiTCNCz/SiTCNCz_toluene_S0_finalOpt.xtbopt.xyz --gfn 2 --uhf 2 --gbsa toluene --ohess vtight --parallel 40 --molden --ceasefiles --namespace data2507/toluene/SiTCNCz/SiTCNCz_toluene_T1_preOpt
      * Solvation model:               GBSA
        Solvent                        toluene
        Solvent mass                       9.2140E+01 g/mol
          :  Hamiltonian                  GFN2-xTB          :
 * total energy  :  -130.5857708 Eh     change        0.4689582E-10 Eh
 * total energy  :  -130.5898287 Eh     change       -0.4057851E-02 Eh
 * total energy  :  -130.5915426 Eh     change       -0.1713971E-02 Eh
 * total energy  :  -130.5913485 Eh     change        0.1940957E-03 Eh
 * total energy  :  -130.5918239 Eh     change       -0.4753064E-03 Eh
 * total energy  :  -130.5919030 Eh     change       -0.7911581E-04 Eh
 * total energy  :  -130.5919686 Eh     change       -0.6566864E-04 Eh
 * total energy  :  -130.5919984 Eh     change       -0.2976738E-04 Eh
 * total energy  :  -130.5920253 Eh     change       -0.2685063E-04 Eh
 * total energy  :  -130.5920452 Eh     change       -0.1994480E-04 Eh
 * total energy  :  -130.5923386 Eh     change       -0.2689949E-06 Eh
 * total energy  :  -130.5923389 Eh     change       -0.2909035E-06 Eh
 * total energy  :  -130.5923392 Eh     change       -0.3012412E-06 Eh
 * total energy  :  -130.5923395 Eh     change       -0.2580202E-06 Eh
 * total energy  :  -130.5923395 Eh     change       -0.4168101E-08 Eh
 * total energy  :  -130.5923397 Eh     change       -0.2226139E-06 Eh
 * total energy  :  -130.5923398 Eh     change       -0.1485149E-06 Eh
 * total energy  :  -130.5923399 Eh     change       -0.1164819E-06 Eh
 * total energy  :  -130.5923400 Eh     change       -0.9671700E-07 Eh
   *** GEOMETRY OPTIMIZATION CONVERGED AFTER 82 ITERATIONS ***

 final structure:
================
83
 xtb: 6.7.1 (edcfbbe)
N            5.66308836878897       -6.90889014276506        0.04537777179875
C            5.76009708230957       -5.76536914325799       -0.00611400223454
C            5.88286792736308       -4.36097267080499       -0.06943177500002
C            7.15742465032941       -3.77263752953358       -0.07543609449542
C            7.25759305141396       -2.39053135960190       -0.13958476292157
C            6.12971303239498       -1.60165316185181       -0.19113521849357
C            4.84318053072405       -2.18134172964576       -0.18046763349853
C            3.66790427044476       -1.37039804825226       -0.22320992169318
N            2.46897802709467       -1.94273034497867       -0.31419587384367
C            1.39405178764046       -1.18338865985594       -0.32205934548648
C            0.09021435836772       -1.79412454847800       -0.39687829228956
C           -0.06012223309747       -3.16118690771836       -0.66180535442219
C           -1.31935040571808       -3.71815297433822       -0.72474539848317
C           -2.44528543722431       -2.93331105252351       -0.51378665596450
C           -2.31342967095028       -1.57560749887850       -0.23041045722799
Si          -3.86098455877584       -0.52805914024101        0.15010194192240
C           -5.12705907497874       -0.90892899405925       -1.21260483506840
C           -4.74182376043894       -0.91309455677183       -2.55131419518053
C           -5.65982517866263       -1.16528960375280       -3.55491204994232
C           -6.98266046528791       -1.42428213820710       -3.23386097899374
C           -7.37996970535914       -1.42830369992206       -1.90702643964278
C           -6.45835757946656       -1.17442864765674       -0.90613147398325
C           -3.43099599551992        1.31784903013661        0.17586543842833
C           -3.92509233138822        2.20054630602964       -0.78063738399682
C           -3.61754110963627        3.54900123734529       -0.73154753632895
C           -2.79988014186809        4.03847662276506        0.27333496918653
C           -2.29772634109577        3.17369699794011        1.23231031629514
C           -2.61624332652303        1.82900407640331        1.18475218572267
C           -4.53109224847534       -1.00490709031774        1.86007634250346
C           -4.17443505040190       -2.19365469377387        2.49034870673862
C           -4.70016739223341       -2.53122563158635        3.72528732282441
C           -5.59381726456207       -1.68064210591849        4.35492580520279
C           -5.95485864728863       -0.49021650686928        3.74449377372409
C           -5.42576632327371       -0.15695686817172        2.51093307045521
C           -1.05509881225763       -1.01396814960570       -0.18647685335424
N            1.47406814721040        0.18086310490984       -0.23500703760731
C            2.68908786514764        0.70138107313862       -0.19806524892762
N            2.79269213189143        2.07449788476319       -0.16538494684149
C            1.85819910664479        2.97144613031111       -0.66824953726848
C            0.65485988101618        2.72878079419548       -1.31176773027546
C           -0.07934971642205        3.82053181804396       -1.74323174181686
C            0.37568882248968        5.12028893579612       -1.54984947595754
C            1.58419573760425        5.36774124687363       -0.91949503012083
C            2.33508672246842        4.28818851611292       -0.48163706996304
C            3.61637788567280        4.17642240336416        0.17144134525996
C            4.54573140325252        5.10782188055000        0.60698048033640
C            5.70235023340368        4.65256639092048        1.21885223278734
C            5.92887904915387        3.29216405674941        1.40227994049656
C            5.01145465268720        2.34576644208557        0.97779665770441
C            3.86310105767670        2.79594216738745        0.34505220248928
N            3.79770784899005       -0.00242728187267       -0.18956473559945
C            4.73972775217114       -3.57908987157898       -0.12208987489192
H            8.03706728397838       -4.39616202803021       -0.03283884826509
H            8.23448763850385       -1.92965189854125       -0.14987519740480
H            6.20941241820806       -0.52738837435229       -0.25196141156085
H            0.82298343348441       -3.76063806392832       -0.82445200921934
H           -1.43192705794829       -4.77098646476489       -0.94056344337183
H           -3.42739913139580       -3.37763170470601       -0.57369948090857
H           -3.70950645838688       -0.71835904272213       -2.80637092053114
H           -5.34392812925514       -1.16302974721280       -4.58847235857951
H           -7.70031572628855       -1.62567106187191       -4.01606960753384
H           -8.41014623767568       -1.63132911846230       -1.65127895594614
H           -6.77332394110317       -1.18237161294692        0.12701512245341
H           -4.56328137170165        1.82510228447027       -1.56738423538017
H           -4.01638617699197        4.22004091618262       -1.47905630795907
H           -2.55538283230620        5.08967768604099        0.31275212326434
H           -1.65859327343638        3.55019836988197        2.01846957080382
H           -2.23249002353021        1.16238935420054        1.94473456488855
H           -3.47226462916035       -2.85993236987294        2.01038952279798
H           -4.41104686537826       -3.45899056972908        4.19841300562963
H           -6.00400028396784       -1.94227057164823        5.31962557645132
H           -6.64981424172446        0.17859861031835        4.23203457991769
H           -5.70788440815276        0.77464425527923        2.04143345999963
H           -0.91981362099672        0.03612013913872        0.02457578695057
H            0.30680696621576        1.72049518248154       -1.46885397600265
H           -1.01979696032060        3.65428322391416       -2.24463254554623
H           -0.21959669797755        5.94705704077608       -1.90624358677573
H            1.93969711156417        6.37625095289483       -0.77656484318032
H            4.36908205563497        6.16351188412477        0.47220957545159
H            6.43705293134633        5.36218507243625        1.56784531835217
H            6.83339214793330        2.96503668550561        1.89229466522157
H            5.17697145030595        1.29126121190811        1.13160512237648
H            3.76127722660711       -4.03538056937149       -0.11285509118141

          :  Hamiltonian                  GFN2-xTB          :
         :: gradient norm              0.000072699747 Eh/a0 ::
         :: HOMO-LUMO gap              0.438698887766 eV    ::
         :: SCC energy              -133.033232603052 Eh    ::
         :: -> dispersion             -0.119630642697 Eh    ::
         :: -> Gsolv                  -0.063467498327 Eh    ::
         :: repulsion energy           2.440892560581 Eh    ::

    * Orbital Energies and Occupations

         #    Occupation            Energy/Eh            Energy/eV
      -------------------------------------------------------------
         1        2.0000           -0.7653530             -20.8263
       ...           ...                  ...                  ...
       111        2.0000           -0.4093908             -11.1401
       112        2.0000           -0.4088632             -11.1257
       113        2.0000           -0.4084728             -11.1151
       114        2.0000           -0.4078874             -11.0992
       115        2.0000           -0.4074731             -11.0879
       116        2.0000           -0.3993061             -10.8657
       117        1.9999           -0.3966815             -10.7943
       118        1.9973           -0.3936477             -10.7117
       119        1.9893           -0.3923188             -10.6755
       120        1.9795           -0.3916915             -10.6585
       121        1.7866           -0.3892557             -10.5922
       122        1.2473           -0.3869584             -10.5297
       123        0.9998           -0.2982700              -8.1163 (HOMO)
       124        0.0002           -0.2821482              -7.6776 (LUMO)
       125                         -0.2675148              -7.2794
       126                         -0.2633644              -7.1665
       127                         -0.2483987              -6.7593
       128                         -0.2425068              -6.5989
       129                         -0.2422531              -6.5920
       130                         -0.2419987              -6.5851
       131                         -0.2378605              -6.4725
       132                         -0.2370802              -6.4513
       133                         -0.2272439              -6.1836
       134                         -0.2260589              -6.1514
       ...                                ...                  ...
       244                          1.1590735              31.5400
      -------------------------------------------------------------
                  HL-Gap            0.0161218 Eh            0.4387 eV

     #   Z          covCN         q      C6AA      α(0)
     1   7 N        0.911    -0.281    27.242     7.549
     2   6 C        1.914     0.117    28.211     8.578
     3   6 C        2.970     0.011    27.762     8.643
     4   6 C        2.924    -0.036    28.903     8.816
     5   6 C        2.914    -0.028    28.708     8.786
     6   6 C        2.921    -0.036    28.905     8.817
     7   6 C        2.977    -0.011    28.283     8.724
     8   6 C        2.938     0.170    24.352     8.093
     9   7 N        1.846    -0.276    28.014     7.844
    10   6 C        2.938     0.183    24.098     8.051
    11   6 C        2.980    -0.008    28.216     8.713
    12   6 C        2.922    -0.033    28.827     8.805
    13   6 C        2.915    -0.029    28.715     8.787
    14   6 C        2.935    -0.035    28.882     8.814
    15   6 C        2.861    -0.084    30.089     8.991
    16  14 Si       3.611     0.502    97.884    18.994
    17   6 C        2.863    -0.087    30.168     9.003
    18   6 C        2.936    -0.030    28.754     8.794
    19   6 C        2.917    -0.029    28.718     8.788
    20   6 C        2.920    -0.027    28.667     8.780
    21   6 C        2.917    -0.028    28.705     8.786
    22   6 C        2.934    -0.031    28.785     8.799
    23   6 C        2.862    -0.090    30.254     9.016
    24   6 C        2.934    -0.032    28.802     8.801
    25   6 C        2.917    -0.029    28.728     8.789
    26   6 C        2.920    -0.027    28.667     8.780
    27   6 C        2.917    -0.029    28.732     8.790
    28   6 C        2.938    -0.030    28.755     8.795
    29   6 C        2.862    -0.089    30.222     9.011
    30   6 C        2.933    -0.032    28.797     8.801
    31   6 C        2.917    -0.029    28.729     8.789
    32   6 C        2.920    -0.027    28.675     8.781
    33   6 C        2.917    -0.029    28.725     8.789
    34   6 C        2.938    -0.031    28.777     8.798
    35   6 C        2.940    -0.037    28.917     8.819
    36   7 N        1.847    -0.317    29.081     7.992
    37   6 C        2.865     0.281    22.264     7.734
    38   7 N        2.811    -0.041    22.036     6.972
    39   6 C        3.060     0.056    26.688     8.472
    40   6 C        2.910    -0.041    29.019     8.833
    41   6 C        2.923    -0.029    28.727     8.789
    42   6 C        2.920    -0.031    28.771     8.796
    43   6 C        2.912    -0.029    28.727     8.789
    44   6 C        3.063    -0.011    28.227     8.712
    45   6 C        3.062    -0.010    28.213     8.710
    46   6 C        2.912    -0.029    28.731     8.789
    47   6 C        2.920    -0.031    28.779     8.797
    48   6 C        2.923    -0.030    28.746     8.792
    49   6 C        2.910    -0.041    29.025     8.834
    50   6 C        3.061     0.056    26.690     8.472
    51   7 N        1.846    -0.312    28.932     7.972
    52   6 C        2.932    -0.027    28.681     8.783
    53   1 H        0.926     0.037     2.495     2.470
    54   1 H        0.926     0.043     2.409     2.427
    55   1 H        0.926     0.042     2.419     2.432
    56   1 H        0.926     0.039     2.459     2.452
    57   1 H        0.926     0.041     2.433     2.439
    58   1 H        0.926     0.038     2.469     2.457
    59   1 H        0.926     0.026     2.637     2.540
    60   1 H        0.926     0.035     2.522     2.484
    61   1 H        0.926     0.037     2.493     2.469
    62   1 H        0.926     0.036     2.496     2.471
    63   1 H        0.926     0.030     2.585     2.514
    64   1 H        0.926     0.031     2.568     2.506
    65   1 H        0.926     0.037     2.489     2.467
    66   1 H        0.926     0.037     2.494     2.470
    67   1 H        0.926     0.028     2.608     2.525
    68   1 H        0.925     0.022     2.704     2.572
    69   1 H        0.926     0.027     2.633     2.538
    70   1 H        0.926     0.033     2.548     2.496
    71   1 H        0.926     0.035     2.511     2.478
    72   1 H        0.926     0.036     2.508     2.477
    73   1 H        0.926     0.028     2.613     2.528
    74   1 H        0.926     0.039     2.457     2.451
    75   1 H        0.926     0.048     2.342     2.393
    76   1 H        0.926     0.050     2.322     2.383
    77   1 H        0.926     0.053     2.279     2.361
    78   1 H        0.926     0.054     2.265     2.353
    79   1 H        0.926     0.054     2.265     2.354
    80   1 H        0.926     0.052     2.292     2.367
    81   1 H        0.926     0.049     2.336     2.390
    82   1 H        0.926     0.049     2.338     2.391
    83   1 H        0.926     0.039     2.467     2.456

molecular dipole:
                 x           y           z       tot (Debye)
 q only:       -3.193       4.009      -0.018
   full:       -3.003       4.160       0.008      13.040

 projected vibrational frequencies (cm⁻¹)
eigval :       -0.00    -0.00     0.00     0.00     0.00     0.00
eigval :       -4.96     6.84    11.67    20.74    25.03    27.22
eigval :       30.08    31.68    36.38    36.88    39.57    41.68
eigval :       44.70    48.38    54.41    72.71    86.39    99.49
eigval :      104.08   119.55   133.49   138.87   145.02   152.66
eigval :      156.70   158.97   164.72   172.68   186.26   191.39
eigval :      202.44   211.74   215.14   218.39   223.01   232.86
eigval :      263.79   272.33   291.88   313.58   357.03   357.94
eigval :      358.90   359.59   361.46   376.96   390.94   391.69
eigval :      401.23   410.96   412.45   417.93   423.07   430.85
eigval :      438.25   447.78   463.82   469.82   472.74   504.14
eigval :      510.40   515.02   534.61   541.22   546.54   572.12
eigval :      583.99   586.16   586.75   587.58   588.20   600.55
eigval :      609.07   626.30   639.17   640.28   643.65   655.73
eigval :      656.77   659.41   659.56   670.75   675.84   681.19
eigval :      694.09   698.57   709.70   726.28   730.16   734.66
eigval :      735.57   753.70   767.46   771.20   776.33   777.82
eigval :      801.31   853.04   866.31   867.39   870.25   874.70
eigval :      875.63   877.28   881.10   881.71   885.59   902.43
eigval :      903.53   904.63   906.04   907.64   908.14   916.40
eigval :      919.67   920.15   921.06   929.64   931.68   932.32
eigval :      933.16   933.41   934.21   951.82   956.69   964.41
eigval :      969.39   971.07   977.29  1010.60  1013.28  1047.18
eigval :     1062.99  1066.76  1081.50  1082.41  1083.11  1087.57
eigval :     1100.97  1115.11  1115.69  1118.05  1118.72  1120.91
eigval :     1123.02  1127.36  1131.43  1134.77  1138.77  1149.67
eigval :     1170.00  1174.58  1175.87  1178.31  1180.81  1180.93
eigval :     1181.59  1197.26  1202.82  1205.36  1207.10  1216.39
eigval :     1221.31  1245.52  1247.09  1263.04  1276.65  1282.79
eigval :     1284.54  1284.96  1285.88  1295.06  1307.65  1307.80
eigval :     1309.43  1319.82  1329.20  1339.29  1341.12  1358.85
eigval :     1360.92  1374.12  1376.86  1403.73  1412.14  1414.64
eigval :     1414.87  1416.18  1416.79  1423.05  1447.28  1452.53
eigval :     1456.28  1457.50  1459.05  1462.62  1475.42  1508.44
eigval :     1512.10  1545.89  1559.13  1559.20  1564.92  1568.31
eigval :     1569.35  1570.79  1576.19  1578.40  1578.49  1582.40
eigval :     1597.53  2354.95  3059.01  3062.23  3065.17  3066.23
eigval :     3066.93  3067.09  3070.55  3070.76  3072.39  3073.27
eigval :     3076.54  3077.17  3078.05  3079.33  3081.98  3085.81
eigval :     3086.17  3086.49  3086.64  3088.04  3088.87  3090.69
eigval :     3092.81  3093.00  3096.16  3097.11  3100.23  3101.97
eigval :     3102.50  3104.95  3109.28

   temp. (K)  partition function   enthalpy   heat capacity  entropy
                                   cal/mol     cal/K/mol   cal/K/mol   J/K/mol
 298.15  VIB  0.857E+23            26301.838    155.872    168.051
         ROT  0.108E+09              888.752      2.981     39.748
         INT  0.929E+31            27190.591    158.853    207.798
         TR   0.172E+29             1481.254      4.968     45.419
         TOT                       28671.8445   163.8211   253.2179  1059.4639

       T/K    H(0)-H(T)+PV         H(T)/Eh          T*S/Eh         G(T)/Eh
   ------------------------------------------------------------------------
    298.15    0.456915E-01    0.663849E+00    0.120312E+00    0.543537E+00
   ------------------------------------------------------------------------

         :::::::::::::::::::::::::::::::::::::::::::::::::::::
         ::                  THERMODYNAMIC                  ::
         :::::::::::::::::::::::::::::::::::::::::::::::::::::
         :: total free energy        -130.048803124697 Eh   ::
         ::.................................................::
         :: total energy             -130.592340043004 Eh   ::
         :: zero point energy           0.618157444700 Eh   ::
         :: G(RRHO) w/o ZPVE           -0.074620526393 Eh   ::
         :: G(RRHO) contrib.            0.543536918306 Eh   ::
         :::::::::::::::::::::::::::::::::::::::::::::::::::::

           -------------------------------------------------
          | TOTAL ENERGY             -130.592340043004 Eh   |
          | TOTAL ENTHALPY           -129.928491105779 Eh   |
          | TOTAL FREE ENERGY        -130.048803124697 Eh   |
          | GRADIENT NORM               0.000070184592 Eh/α |
          | HOMO-LUMO GAP               0.438696322742 eV   |
           -------------------------------------------------

 * finished run on 2025/08/30 at 19:27:15.260
