   * xtb version 6.7.1 (edcfbbe) compiled by 'albert@albert-system' on 2024-07-22

   ID    Z sym.   atoms
    1    7 N      1, 9, 36, 38, 51
    2    6 C      2-8, 10-15, 17-35, 37, 39-50, 52
    3   14 Si     16
    4    1 H      53-83

          program call               : xtb data2507/toluene/SiTCNCz/SiTCNCz.xyz --gfn 2 --gbsa toluene --ohess vtight --parallel 40 --molden --ceasefiles --namespace data2507/toluene/SiTCNCz/SiTCNCz_toluene_S0_preOpt
      * Solvation model:               GBSA
        Solvent                        toluene
        Solvent mass                       9.2140E+01 g/mol
          :  Hamiltonian                  GFN2-xTB          :
 * total energy  :  -130.6554040 Eh     change       -0.2901231E-08 Eh
 * total energy  :  -130.6718667 Eh     change       -0.1646274E-01 Eh
 * total energy  :  -130.6761272 Eh     change       -0.4260527E-02 Eh
 * total energy  :  -130.6768512 Eh     change       -0.7239815E-03 Eh
 * total energy  :  -130.6767810 Eh     change        0.7025918E-04 Eh
 * total energy  :  -130.6772728 Eh     change       -0.4918546E-03 Eh
 * total energy  :  -130.6773114 Eh     change       -0.3860385E-04 Eh
 * total energy  :  -130.6773376 Eh     change       -0.2614149E-04 Eh
 * total energy  :  -130.6773594 Eh     change       -0.2186298E-04 Eh
 * total energy  :  -130.6773790 Eh     change       -0.1955905E-04 Eh
 * total energy  :  -130.6775051 Eh     change       -0.2875085E-06 Eh
 * total energy  :  -130.6775056 Eh     change       -0.5712731E-06 Eh
 * total energy  :  -130.6775062 Eh     change       -0.5377305E-06 Eh
 * total energy  :  -130.6775066 Eh     change       -0.4438080E-06 Eh
 * total energy  :  -130.6775072 Eh     change       -0.5830954E-06 Eh
 * total energy  :  -130.6775073 Eh     change       -0.1296610E-06 Eh
 * total energy  :  -130.6775076 Eh     change       -0.2319075E-06 Eh
 * total energy  :  -130.6775078 Eh     change       -0.1996104E-06 Eh
 * total energy  :  -130.6775078 Eh     change       -0.7141139E-07 Eh
   *** GEOMETRY OPTIMIZATION CONVERGED AFTER 71 ITERATIONS ***

 final structure:
================
83
 xtb: 6.7.1 (edcfbbe)
N            5.51853783211997       -7.43992748075386       -0.28122139319323
C            5.66245145054497       -6.32165928422601       -0.06944713228715
C            5.84463329124350       -4.94341598569347        0.19173457498196
C            7.11835816319399       -4.45297344226262        0.49135317972582
C            7.28721184313640       -3.10354306612513        0.74399282974572
C            6.20429413531479       -2.24266502547617        0.69618071386264
C            4.93194782505485       -2.72756668151038        0.39619905656941
C            3.77849772827275       -1.81965168555082        0.34406948139268
N            2.56782004565424       -2.36166705811292        0.41234998464450
C            1.55133455683685       -1.49935298329305        0.37693112103319
C            0.19089855619217       -2.02553668423001        0.46201291225056
C           -0.04034464487061       -3.34013039562866        0.86629900112621
C           -1.33747958454475       -3.80676823242516        0.96224617856341
C           -2.40450356984413       -2.97015681728625        0.67183743378569
C           -2.19748393133252       -1.65644375833539        0.26273423764423
Si          -3.61479413225130       -0.44926839683731       -0.11606542217629
C           -3.16973161508042        0.42341492232492       -1.73998630819034
C           -3.28155610672370        1.80267095801605       -1.88680590032336
C           -2.93892506574699        2.42511478939975       -3.07436990520852
C           -2.47912397969951        1.67411204839066       -4.14331458964739
C           -2.36265525149347        0.29927600153171       -4.01585761524764
C           -2.70232230516260       -0.31576698855715       -2.82444165350904
C           -3.74410953038463        0.82353226554140        1.28480948324342
C           -4.88726695354496        1.61004071686158        1.41203464754049
C           -4.99045781392729        2.56724676586106        2.40529992702826
C           -3.94626531342042        2.75652358101328        3.29613557082915
C           -2.80455971952851        1.97968182580739        3.18867620529447
C           -2.70811752217549        1.02402971322570        2.19222522306513
C           -5.25630995734216       -1.38643518798536       -0.25510050958716
C           -5.86702411149327       -1.61467179023879       -1.48470701459308
C           -7.06319627485000       -2.30541831591265       -1.57069715236617
C           -7.67289016215335       -2.78238820376890       -0.42219771501490
C           -7.08114434565609       -2.56126983075423        0.81100040603856
C           -5.88620031596918       -1.86925243458018        0.89046171444678
C           -0.89015322253174       -1.20487018965611        0.15178406431569
N            1.69520871030397       -0.18393246677944        0.27793041160074
C            2.94565004055756        0.26636271971001        0.20293025935710
N            3.13437714845742        1.61081833849082        0.09330819586170
C            4.33133512300278        2.25284407587379       -0.24814568171466
C            5.56606646851564        1.72332997171681       -0.58370468104121
C            6.58714451028445        2.60332578287914       -0.90415301266994
C            6.39035827309286        3.97954446168990       -0.89889304974364
C            5.15520576068064        4.51335888403675       -0.58199649776081
C            4.12083400500374        3.64693451919580       -0.25931542580126
C            2.74098150580800        3.86683665641053        0.09286577657618
C            1.98626264283611        5.02067422536978        0.24811573160172
C            0.65834148014827        4.89792173739678        0.61252030196874
C            0.09545055319070        3.64549475050639        0.82966771911587
C            0.83485711670641        2.48368631822705        0.68039716042959
C            2.16096684124486        2.59841235059863        0.29850022350341
N            4.02407382788116       -0.52149968867675        0.23573415249445
C            4.75070353371246       -4.08285465618926        0.14712168187940
H            7.95743892029169       -5.13169451613382        0.52382030585615
H            8.26842501592116       -2.72109670383639        0.97979217878197
H            6.32562335586449       -1.18989484251626        0.89899235866646
H            0.80168887868557       -3.97165688169723        1.10554055781842
H           -1.51883619547586       -4.82582423337564        1.27181735473718
H           -3.41448361489835       -3.34292395788949        0.75841165473360
H           -3.63988478641214        2.39500903942748       -1.05742146131341
H           -3.02923791313704        3.49815802650772       -3.16709893200806
H           -2.21118355347958        2.15718392354268       -5.07221009810426
H           -2.00332470758364       -0.29279352077722       -4.84614809223162
H           -2.60079610662000       -1.38827502080135       -2.72925244762706
H           -5.70621448512922        1.46408045275303        0.72189674252282
H           -5.88540455790041        3.16789067434164        2.48612976881173
H           -4.02260736066459        3.50428938904304        4.07247653643435
H           -1.98636436889632        2.12064213576008        3.88130131323911
H           -1.81401792986811        0.42111964326112        2.11803163755097
H           -5.39966421733299       -1.24107737974496       -2.38440807506822
H           -7.52226215272762       -2.47152525586700       -2.53510205986530
H           -8.60677517050486       -3.32220031922702       -0.48719528225712
H           -7.55385553036769       -2.92851837054831        1.71107593672163
H           -5.43283771624286       -1.69353341938313        1.85610185604080
H           -0.69431792158068       -0.20122981530835       -0.19469016916523
H            5.72482637155992        0.65875492331709       -0.59970857202603
H            7.55664863449909        2.20663510038022       -1.16618689372334
H            7.21029828535815        4.63492938108358       -1.15119126117799
H            4.99187263308237        5.57991317775810       -0.58797808404202
H            2.43257969004319        5.99014816438206        0.08915063027570
H            0.05129090036434        5.78202029444789        0.73641779202847
H           -0.94013425266236        3.56895783183625        1.12477668046121
H            0.39051032864824        1.52032938594350        0.85762258488321
H            3.76381398790504       -4.45391995590280       -0.08380736238608

          :  Hamiltonian                  GFN2-xTB          :
         :: gradient norm              0.000044131644 Eh/a0 ::
         :: HOMO-LUMO gap              2.254717400969 eV    ::
         :: SCC energy              -133.125887806222 Eh    ::
         :: -> dispersion             -0.118302821977 Eh    ::
         :: -> Gsolv                  -0.061787828110 Eh    ::
         :: repulsion energy           2.448379964341 Eh    ::

    * Orbital Energies and Occupations

         #    Occupation            Energy/Eh            Energy/eV
      -------------------------------------------------------------
         1        2.0000           -0.7592389             -20.6599
       ...           ...                  ...                  ...
       110        2.0000           -0.4080434             -11.1034
       111        2.0000           -0.4076832             -11.0936
       112        2.0000           -0.4051082             -11.0236
       113        2.0000           -0.4046861             -11.0121
       114        2.0000           -0.4043624             -11.0033
       115        2.0000           -0.4034720             -10.9790
       116        2.0000           -0.3940013             -10.7213
       117        2.0000           -0.3924220             -10.6783
       118        2.0000           -0.3913806             -10.6500
       119        2.0000           -0.3893111             -10.5937
       120        2.0000           -0.3886028             -10.5744
       121        2.0000           -0.3875266             -10.5451
       122        2.0000           -0.3859359             -10.5019 (HOMO)
       123                         -0.3030766              -8.2471 (LUMO)
       124                         -0.2882629              -7.8440
       125                         -0.2834184              -7.7122
       126                         -0.2589519              -7.0464
       127                         -0.2482453              -6.7551
       128                         -0.2441826              -6.6445
       129                         -0.2406666              -6.5489
       130                         -0.2381502              -6.4804
       131                         -0.2345169              -6.3815
       132                         -0.2331694              -6.3449
       133                         -0.2236369              -6.0855
       ...                                ...                  ...
       244                          1.1505251              31.3074
      -------------------------------------------------------------
                  HL-Gap            0.0828593 Eh            2.2547 eV

     #   Z          covCN         q      C6AA      α(0)
     1   7 N        0.911    -0.253    26.568     7.455
     2   6 C        1.912     0.120    28.161     8.570
     3   6 C        2.972     0.022    27.513     8.604
     4   6 C        2.926    -0.014    28.367     8.734
     5   6 C        2.917    -0.021    28.537     8.760
     6   6 C        2.922    -0.019    28.471     8.750
     7   6 C        2.983    -0.002    28.066     8.690
     8   6 C        2.990     0.216    23.444     7.942
     9   7 N        1.843    -0.334    29.515     8.051
    10   6 C        2.986     0.219    23.395     7.934
    11   6 C        2.982    -0.011    28.295     8.726
    12   6 C        2.923    -0.026    28.663     8.780
    13   6 C        2.916    -0.029    28.718     8.788
    14   6 C        2.933    -0.026    28.655     8.779
    15   6 C        2.860    -0.092    30.304     9.023
    16  14 Si       3.612     0.490    98.171    19.021
    17   6 C        2.862    -0.092    30.311     9.024
    18   6 C        2.935    -0.033    28.818     8.804
    19   6 C        2.917    -0.031    28.769     8.796
    20   6 C        2.920    -0.030    28.745     8.792
    21   6 C        2.917    -0.032    28.797     8.800
    22   6 C        2.938    -0.033    28.818     8.804
    23   6 C        2.862    -0.091    30.286     9.021
    24   6 C        2.938    -0.031    28.783     8.799
    25   6 C        2.917    -0.030    28.752     8.793
    26   6 C        2.920    -0.029    28.724     8.789
    27   6 C        2.917    -0.031    28.765     8.795
    28   6 C        2.935    -0.032    28.796     8.801
    29   6 C        2.862    -0.091    30.283     9.020
    30   6 C        2.935    -0.033    28.819     8.804
    31   6 C        2.917    -0.030    28.754     8.793
    32   6 C        2.920    -0.029    28.714     8.787
    33   6 C        2.917    -0.030    28.758     8.794
    34   6 C        2.938    -0.032    28.805     8.802
    35   6 C        2.948    -0.029    28.714     8.789
    36   7 N        1.848    -0.331    29.438     8.041
    37   6 C        2.919     0.282    22.243     7.734
    38   7 N        2.804    -0.053    22.269     7.009
    39   6 C        3.049     0.053    26.772     8.486
    40   6 C        2.911    -0.049    29.222     8.864
    41   6 C        2.924    -0.033    28.822     8.804
    42   6 C        2.920    -0.036    28.902     8.816
    43   6 C        2.913    -0.034    28.836     8.806
    44   6 C        3.061    -0.013    28.267     8.719
    45   6 C        3.061    -0.013    28.279     8.721
    46   6 C        2.913    -0.034    28.841     8.806
    47   6 C        2.920    -0.036    28.891     8.814
    48   6 C        2.924    -0.032    28.795     8.800
    49   6 C        2.911    -0.049    29.207     8.862
    50   6 C        3.049     0.053    26.761     8.484
    51   7 N        1.846    -0.334    29.514     8.051
    52   6 C        2.931    -0.016    28.411     8.741
    53   1 H        0.926     0.062     2.181     2.310
    54   1 H        0.926     0.065     2.143     2.289
    55   1 H        0.926     0.063     2.168     2.302
    56   1 H        0.926     0.044     2.393     2.419
    57   1 H        0.926     0.044     2.390     2.418
    58   1 H        0.926     0.042     2.417     2.431
    59   1 H        0.926     0.027     2.627     2.535
    60   1 H        0.926     0.032     2.557     2.501
    61   1 H        0.926     0.031     2.572     2.508
    62   1 H        0.925     0.028     2.621     2.532
    63   1 H        0.925     0.020     2.740     2.588
    64   1 H        0.926     0.026     2.641     2.541
    65   1 H        0.926     0.033     2.542     2.493
    66   1 H        0.926     0.033     2.548     2.496
    67   1 H        0.925     0.027     2.624     2.533
    68   1 H        0.926     0.016     2.792     2.613
    69   1 H        0.926     0.025     2.655     2.548
    70   1 H        0.926     0.031     2.571     2.508
    71   1 H        0.926     0.032     2.554     2.499
    72   1 H        0.926     0.032     2.562     2.503
    73   1 H        0.926     0.025     2.659     2.550
    74   1 H        0.926     0.037     2.491     2.468
    75   1 H        0.926     0.050     2.317     2.380
    76   1 H        0.926     0.044     2.399     2.422
    77   1 H        0.926     0.045     2.387     2.416
    78   1 H        0.926     0.046     2.368     2.406
    79   1 H        0.926     0.047     2.364     2.404
    80   1 H        0.926     0.045     2.383     2.414
    81   1 H        0.926     0.043     2.404     2.424
    82   1 H        0.926     0.051     2.304     2.373
    83   1 H        0.926     0.058     2.227     2.334

molecular dipole:
                 x           y           z       tot (Debye)
 q only:       -0.544       1.851       0.251
   full:       -0.375       2.056       0.319       5.373

 projected vibrational frequencies (cm⁻¹)
eigval :       -0.00    -0.00     0.00     0.00     0.00     0.00
eigval :        0.93    11.23    14.30    20.31    22.39    27.45
eigval :       30.87    31.45    33.75    36.79    39.01    43.11
eigval :       46.86    48.40    50.63    70.01    88.83    97.29
eigval :      101.55   120.91   133.73   140.28   151.36   158.94
eigval :      160.58   166.96   173.08   183.75   190.63   199.43
eigval :      212.36   213.88   218.63   226.04   227.45   240.54
eigval :      265.26   275.45   300.41   324.13   353.58   359.44
eigval :      360.64   362.76   378.95   379.95   390.82   396.74
eigval :      410.87   416.35   421.16   425.67   428.06   433.59
eigval :      439.49   449.47   476.62   478.14   487.01   512.39
eigval :      516.42   535.79   538.85   545.80   569.58   587.42
eigval :      588.60   589.11   589.64   614.46   623.66   625.24
eigval :      644.99   650.38   651.25   662.67   663.56   664.36
eigval :      666.41   674.94   680.43   688.57   705.25   706.08
eigval :      712.22   714.96   732.98   734.01   737.91   752.01
eigval :      762.97   770.04   774.37   784.91   800.84   805.42
eigval :      835.04   873.45   875.89   879.33   881.15   885.48
eigval :      890.97   894.65   897.68   904.23   904.67   906.45
eigval :      907.33   908.31   910.07   915.95   921.61   929.57
eigval :      930.51   932.34   932.69   933.81   934.19   934.41
eigval :      935.61   937.27   939.46   974.47   976.06   976.28
eigval :      981.91   990.34  1015.63  1021.93  1050.35  1068.48
eigval :     1074.28  1082.67  1083.68  1084.87  1104.52  1116.50
eigval :     1117.09  1118.85  1120.02  1121.69  1140.12  1142.68
eigval :     1144.83  1148.29  1148.77  1149.29  1169.26  1174.31
eigval :     1175.91  1178.62  1180.58  1181.58  1181.82  1188.84
eigval :     1204.19  1206.21  1210.55  1215.15  1220.55  1225.13
eigval :     1240.20  1245.95  1257.43  1265.36  1277.62  1284.41
eigval :     1286.47  1289.98  1295.51  1308.39  1309.03  1309.49
eigval :     1319.73  1321.83  1347.18  1350.80  1361.02  1370.87
eigval :     1406.84  1411.81  1416.99  1417.54  1419.19  1419.69
eigval :     1422.01  1441.71  1454.08  1461.20  1461.99  1463.56
eigval :     1466.79  1471.38  1480.04  1506.26  1526.71  1566.44
eigval :     1570.22  1573.71  1574.22  1574.79  1578.94  1580.05
eigval :     1582.04  1589.30  1591.19  1591.44  1592.66  1596.72
eigval :     1607.85  2368.70  3056.47  3060.20  3060.75  3062.66
eigval :     3063.11  3063.72  3067.73  3069.38  3069.69  3073.23
eigval :     3073.78  3074.49  3074.98  3081.66  3083.29  3083.49
eigval :     3083.67  3083.74  3084.32  3088.42  3089.02  3089.72
eigval :     3091.34  3096.88  3098.09  3098.73  3100.57  3102.38
eigval :     3106.66  3129.49  3139.91

   temp. (K)  partition function   enthalpy   heat capacity  entropy
                                   cal/mol     cal/K/mol   cal/K/mol   J/K/mol
 298.15  VIB  0.694E+21            25274.281    151.989    159.022
         ROT  0.105E+09              888.752      2.981     39.691
         INT  0.731E+29            26163.033    154.970    198.713
         TR   0.172E+29             1481.254      4.968     45.419
         TOT                       27644.2868   159.9381   244.1322  1021.4489

       T/K    H(0)-H(T)+PV         H(T)/Eh          T*S/Eh         G(T)/Eh
   ------------------------------------------------------------------------
    298.15    0.440540E-01    0.668165E+00    0.115995E+00    0.552170E+00
   ------------------------------------------------------------------------

         :::::::::::::::::::::::::::::::::::::::::::::::::::::
         ::                  THERMODYNAMIC                  ::
         :::::::::::::::::::::::::::::::::::::::::::::::::::::
         :: total free energy        -130.125337664956 Eh   ::
         ::.................................................::
         :: total energy             -130.677507843206 Eh   ::
         :: zero point energy           0.624111269140 Eh   ::
         :: G(RRHO) w/o ZPVE           -0.071941090891 Eh   ::
         :: G(RRHO) contrib.            0.552170178250 Eh   ::
         :::::::::::::::::::::::::::::::::::::::::::::::::::::

           -------------------------------------------------
          | TOTAL ENERGY             -130.677507843206 Eh   |
          | TOTAL ENTHALPY           -130.009342598892 Eh   |
          | TOTAL FREE ENERGY        -130.125337664956 Eh   |
          | GRADIENT NORM               0.000044131117 Eh/α |
          | HOMO-LUMO GAP               2.254717278280 eV   |
           -------------------------------------------------

 * finished run on 2025/08/30 at 19:17:05.357
