   * xtb version 6.7.1 (edcfbbe) compiled by 'albert@albert-system' on 2024-07-22

   ID    Z sym.   atoms
    1    8 O      1, 3
    2    5 B      2
    3    6 C      4-9, 11-28
    4   14 Si     10
    5    1 H      29-49

          program call               : xtb data2507/gas/s-triazine/s-triazine_gas_S0_finalOpt.xtbopt.xyz --gfn 2 --spinpol --tblite --uhf 2 --ohess vtight --parallel 40 --molden --ceasefiles --namespace data2507/gas/s-triazine/s-triazine_gas_T1_preOpt
 * total energy  :   -73.0749797 Eh     change        0.7010215E-10 Eh
 * total energy  :   -73.0782343 Eh     change       -0.3254529E-02 Eh
 * total energy  :   -73.0805269 Eh     change       -0.2292641E-02 Eh
 * total energy  :   -73.0819455 Eh     change       -0.1418618E-02 Eh
 * total energy  :   -73.0832680 Eh     change       -0.1322486E-02 Eh
 * total energy  :   -73.0848121 Eh     change       -0.1544115E-02 Eh
 * total energy  :   -73.0857860 Eh     change       -0.9738464E-03 Eh
 * total energy  :   -73.0868700 Eh     change       -0.1084055E-02 Eh
 * total energy  :   -73.0874114 Eh     change       -0.5413360E-03 Eh
 * total energy  :   -73.0877725 Eh     change       -0.3610925E-03 Eh
 * total energy  :   -73.0913029 Eh     change       -0.6475533E-06 Eh
 * total energy  :   -73.0913032 Eh     change       -0.3710252E-06 Eh
 * total energy  :   -73.0913044 Eh     change       -0.1115843E-05 Eh
 * total energy  :   -73.0913052 Eh     change       -0.8354433E-06 Eh
 * total energy  :   -73.0913057 Eh     change       -0.5140870E-06 Eh
 * total energy  :   -73.0913062 Eh     change       -0.4594000E-06 Eh
 * total energy  :   -73.0913065 Eh     change       -0.3456365E-06 Eh
 * total energy  :   -73.0913067 Eh     change       -0.1818112E-06 Eh
 * total energy  :   -73.0913067 Eh     change       -0.2276610E-07 Eh
   *** GEOMETRY OPTIMIZATION CONVERGED AFTER 129 ITERATIONS ***

 final structure:
================
49
 xtb: 6.7.1 (edcfbbe)
O            4.28664136009460        0.21960085334752       -0.10903194746904
B            3.07369926751339       -0.40423680851684       -0.21413492756045
O            2.73095666066540       -1.27817227642567        0.77054257494059
C            2.07600421835720       -0.19207522492014       -1.38716312629513
C            2.34142546206551        0.54358213488310       -2.53569686040151
C            1.52918803718319        0.45168639517970       -3.65581449995305
C            0.44132303918155       -0.46826263353761       -3.68214521212795
C            0.09981155177127       -1.14394225806606       -2.55762398196011
C            0.73277440875348       -0.74291823199089       -1.33493031168733
Si          -0.41182111386966       -0.09493304268146        0.04182686635272
C            0.63858553199811        0.82963282916931        1.30757749442919
C            1.42420692603543        1.90692047608170        0.90929413448248
C            2.24652251426840        2.56105785264723        1.80859801266814
C            2.29758811763183        2.14428139187141        3.12806916841003
C            1.51824965621126        1.07652758493577        3.54071297681082
C            0.69769165734322        0.42677814666684        2.63603288509972
C           -1.78296551848144        1.04057490562561       -0.60114966600570
C           -1.88445668759760        2.37407499173664       -0.20665376149013
C           -2.86510985456782        3.20056372700815       -0.72240551988652
C           -3.76992956272425        2.71193229921449       -1.65067175851585
C           -3.68497591252781        1.38989215789715       -2.05620229101635
C           -2.70241949421510        0.56840263062311       -1.53790211349159
C           -1.15397950626721       -1.68799318636548        0.76429255145877
C           -2.51770627482578       -1.80320123994283        1.00923511708735
C           -3.04289805473216       -2.95851936730827        1.56095166520579
C           -2.20861750170747       -4.01796345319421        1.87618356710299
C           -0.84743121532771       -3.91447310896098        1.64061711376964
C           -0.32480988225565       -2.75911599248680        1.08772833913085
H            4.50090084272368        0.83075594996514       -0.81076807315876
H            3.38800547151966       -1.33404230471033        1.46481044177845
H            3.26698897844398        1.10436748259168       -2.60938849728702
H            1.81414260647134        0.95163246071873       -4.56877048763727
H           -0.05344960340369       -0.66903766410396       -4.62122291614199
H           -0.68547026955658       -1.88420576794987       -2.54795751015230
H            1.38827363161224        2.23453410936486       -0.12028889997701
H            2.85132599570121        3.39526803919183        1.48189936259319
H            2.94325342398141        2.64961957806227        3.83196900871359
H            1.55418731032929        0.74814080678287        4.57000465844313
H            0.09694754184365       -0.41028543063983        2.96156089889549
H           -1.18824083502922        2.76288157775396        0.52272357928281
H           -2.92751852085294        4.22994481665498       -0.39864768276044
H           -4.53722203716711        3.35647396547970       -2.05437458674191
H           -4.38851690171671        1.00057626643046       -2.77859894242408
H           -2.64625514181118       -0.46131782325704       -1.85898447191343
H           -3.17237930034717       -0.97833638084728        0.76752077248170
H           -4.10518820093221       -3.03252147662362        1.74613277843111
H           -2.61869380169010       -4.92125551078490        2.30479730598085
H           -0.19303681627194       -4.73837624452168        1.88769224242548
H            0.73608460683687       -2.67376214534543        0.90553065615543

 projected vibrational frequencies (cm⁻¹)
eigval :       -0.00    -0.00    -0.00    -0.00     0.00     0.00
eigval :       17.34    23.53    29.31    35.66    37.72    44.34
eigval :       48.14    57.83    68.25    74.06    82.12    99.26
eigval :      116.68   160.07   171.20   171.72   187.49   214.41
eigval :      219.24   225.28   242.20   304.33   325.74   357.76
eigval :      359.50   362.05   365.73   387.84   417.48   420.81
eigval :      431.13   454.41   469.26   477.97   499.87   508.49
eigval :      524.00   580.73   588.02   589.17   589.66   602.25
eigval :      626.11   658.95   660.16   662.07   667.68   693.07
eigval :      700.21   712.27   712.97   731.91   736.21   739.05
eigval :      781.90   860.22   872.56   877.78   880.72   883.69
eigval :      898.69   904.48   909.70   917.99   927.56   929.38
eigval :      931.28   933.45   933.77   936.14   938.81   950.04
eigval :      972.01   975.01   977.46  1021.28  1033.46  1083.65
eigval :     1084.57  1085.84  1120.31  1121.54  1122.74  1129.84
eigval :     1135.76  1137.86  1153.38  1155.24  1175.39  1181.95
eigval :     1182.10  1182.71  1206.21  1206.87  1209.89  1249.22
eigval :     1262.62  1285.42  1288.43  1290.05  1291.55  1297.90
eigval :     1310.35  1313.82  1315.32  1358.57  1417.62  1419.78
eigval :     1420.86  1421.15  1458.13  1458.84  1466.21  1507.01
eigval :     1566.78  1574.00  1577.37  1583.73  1585.55  1591.73
eigval :     3010.52  3061.30  3062.56  3063.82  3063.90  3064.67
eigval :     3066.05  3069.19  3071.12  3073.46  3074.88  3076.80
eigval :     3077.05  3080.22  3083.95  3084.50  3086.45  3089.32
eigval :     3095.35  3626.67  3658.87

   temp. (K)  partition function   enthalpy   heat capacity  entropy
                                   cal/mol     cal/K/mol   cal/K/mol   J/K/mol
 298.15  VIB  0.138E+13            15027.253     90.163     95.195
         ROT  0.129E+08              888.752      2.981     35.516
         INT  0.178E+20            15916.006     93.144    130.711
         TR   0.718E+28             1481.254      4.968     43.680
         TOT                       17397.2594    98.1125   174.3908   729.6513

       T/K    H(0)-H(T)+PV         H(T)/Eh          T*S/Eh         G(T)/Eh
   ------------------------------------------------------------------------
    298.15    0.277243E-01    0.399336E+00    0.828587E-01    0.316477E+00
   ------------------------------------------------------------------------

         :::::::::::::::::::::::::::::::::::::::::::::::::::::
         ::                  THERMODYNAMIC                  ::
         :::::::::::::::::::::::::::::::::::::::::::::::::::::
         :: total free energy         -72.774829543328 Eh   ::
         ::.................................................::
         :: total energy              -73.091306720354 Eh   ::
         :: zero point energy           0.371611595340 Eh   ::
         :: G(RRHO) w/o ZPVE           -0.055134418314 Eh   ::
         :: G(RRHO) contrib.            0.316477177026 Eh   ::
         :::::::::::::::::::::::::::::::::::::::::::::::::::::

           -------------------------------------------------
          | TOTAL ENERGY              -73.091306720354 Eh   |
          | TOTAL ENTHALPY            -72.691970827356 Eh   |
          | TOTAL FREE ENERGY         -72.774829543328 Eh   |
          | GRADIENT NORM               0.000120171089 Eh/α |
           -------------------------------------------------

 * finished run on 2025/09/10 at 07:15:47.045
