   * xtb version 6.7.1 (edcfbbe) compiled by 'albert@albert-system' on 2024-07-22

   ID    Z sym.   atoms
    1    8 O      1, 3
    2    5 B      2
    3    6 C      4-9, 11-28
    4   14 Si     10
    5    1 H      29-49

          program call               : xtb data2507/gas/s-triazine/s-triazine_gas_S0_crest.xyz --gfn 2 --ohess vtight --parallel 40 --molden --ceasefiles --namespace data2507/gas/s-triazine/s-triazine_gas_S0_finalOpt
          :  Hamiltonian                  GFN2-xTB          :
 * total energy  :   -73.2072814 Eh     change       -0.1185697E-08 Eh
 * total energy  :   -73.2072821 Eh     change       -0.7010881E-06 Eh
 * total energy  :   -73.2072825 Eh     change       -0.4694403E-06 Eh
 * total energy  :   -73.2072830 Eh     change       -0.4831774E-06 Eh
 * total energy  :   -73.2072836 Eh     change       -0.6153762E-06 Eh
 * total energy  :   -73.2072844 Eh     change       -0.7902839E-06 Eh
 * total energy  :   -73.2072850 Eh     change       -0.6177142E-06 Eh
 * total energy  :   -73.2072853 Eh     change       -0.2324021E-06 Eh
 * total energy  :   -73.2072852 Eh     change        0.3429938E-07 Eh
 * total energy  :   -73.2072854 Eh     change       -0.1468196E-06 Eh
 * total energy  :   -73.2072854 Eh     change        0.1190206E-07 Eh
 * total energy  :   -73.2072855 Eh     change       -0.1097413E-06 Eh
 * total energy  :   -73.2072856 Eh     change       -0.1084945E-06 Eh
 * total energy  :   -73.2072857 Eh     change       -0.1303090E-06 Eh
 * total energy  :   -73.2072859 Eh     change       -0.1466118E-06 Eh
 * total energy  :   -73.2072860 Eh     change       -0.1181424E-06 Eh
 * total energy  :   -73.2072860 Eh     change       -0.1960457E-07 Eh
   *** GEOMETRY OPTIMIZATION CONVERGED AFTER 17 ITERATIONS ***

 final structure:
================
49
 xtb: 6.7.1 (edcfbbe)
O            4.13735637330068       -0.57708734736132        0.14818392942027
B            2.81569465269486       -0.76525060886874       -0.11288927495139
O            2.03849075269585       -1.27495815890144        0.86446574935347
C            2.12931385274982       -0.44573478865279       -1.49596063499888
C            2.86062522851451       -0.49785782547904       -2.68227879093776
C            2.27048418237809       -0.25062293072717       -3.90825721919107
C            0.92392916444934        0.06403871130064       -3.96336917552962
C            0.18676242466905        0.12864419732685       -2.79446666571848
C            0.76528307702181       -0.12438698489327       -1.55504969559399
Si          -0.28846003774508        0.02233032412007        0.01685960309363
C            0.60933153880404        1.06894332733546        1.31905880692531
C            1.47421234261359        2.08215915897622        0.91710463361062
C            2.15380393584788        2.85315475223459        1.84284755518730
C            1.97958257807302        2.62272532465197        3.19713746858455
C            1.12435977766306        1.61724770778404        3.61480772114538
C            0.44798021120363        0.85054589384136        2.68227878117144
C           -1.85198345498321        1.00217051961204       -0.46165856975054
C           -1.93271001175880        2.38059854889733       -0.29347948337134
C           -3.07029241781855        3.08223041910102       -0.65135737632746
C           -4.15691718299105        2.41310318249490       -1.18813986391285
C           -4.09739917049415        1.04031536026442       -1.36088444070306
C           -2.95641327979481        0.34727913774353       -0.99956561755025
C           -0.92729882043208       -1.65148445863080        0.63230299969233
C           -1.93900617203485       -1.70527184887543        1.58694595475560
C           -2.43633406233289       -2.91568423599552        2.03505132839530
C           -1.93359417015489       -4.10105062216580        1.52540616096225
C           -0.93699579039976       -4.06533933434141        0.56452837037188
C           -0.44159209866105       -2.85121976297681        0.12388507744450
H            4.65897084132738       -0.20413268420666       -0.56041319500574
H            2.48020818778359       -1.43215532350440        1.69935232575686
H            3.91270878387026       -0.75477198188143       -2.64733766253981
H            2.85715200895907       -0.30250416271606       -4.81440776807201
H            0.45076963545527        0.26110645731911       -4.91480693091494
H           -0.86199773711779        0.38441136200656       -2.84353616723497
H            1.61934050376900        2.26427242204024       -0.13897265171551
H            2.82127149599037        3.63569430100950        1.50976458079697
H            2.50942339184238        3.22280412226870        3.92302987600388
H            0.98609082882949        1.43091459166445        4.67074351411537
H           -0.20957232090203        0.06118184230393        3.01585298052206
H           -1.09092642707035        2.90996228404727        0.12990273368707
H           -3.11146444762211        4.15325547626253       -0.51065772315825
H           -5.04704245306984        2.95805095837239       -1.46837748217543
H           -4.94305601124856        0.51079326107683       -1.77691403328349
H           -2.91813646364122       -0.72509130028771       -1.13184069536860
H           -2.34971375624403       -0.78326408223422        1.97448082708639
H           -3.21980340036310       -2.93668990279165        2.77962756742320
H           -2.32086985807170       -5.04853643062404        1.87225889169165
H           -0.54759059379565       -4.98807835830377        0.15759222709664
H            0.33770029894138       -2.82603086903640       -0.62308627098853

          :  Hamiltonian                  GFN2-xTB          :
         :: gradient norm              0.000089710248 Eh/a0 ::
         :: HOMO-LUMO gap              3.540236441541 eV    ::
         :: SCC energy               -74.492692674498 Eh    ::
         :: -> dispersion             -0.064820743861 Eh    ::
         :: repulsion energy           1.285406664997 Eh    ::

    * Orbital Energies and Occupations

         #    Occupation            Energy/Eh            Energy/eV
      -------------------------------------------------------------
         1        2.0000           -0.7465017             -20.3133
       ...           ...                  ...                  ...
        56        2.0000           -0.4109795             -11.1833
        57        2.0000           -0.4016187             -10.9286
        58        2.0000           -0.4002411             -10.8911
        59        2.0000           -0.3985096             -10.8440
        60        2.0000           -0.3965353             -10.7903
        61        2.0000           -0.3959312             -10.7738
        62        2.0000           -0.3943332             -10.7304
        63        2.0000           -0.3941896             -10.7264
        64        2.0000           -0.3925273             -10.6812
        65        2.0000           -0.3919696             -10.6660
        66        2.0000           -0.3769570             -10.2575
        67        2.0000           -0.3747766             -10.1982
        68        2.0000           -0.3715389             -10.1101 (HOMO)
        69                         -0.2414375              -6.5698 (LUMO)
        70                         -0.2277960              -6.1986
        71                         -0.2257636              -6.1433
        72                         -0.2246703              -6.1136
        73                         -0.2202832              -5.9942
        74                         -0.2144492              -5.8355
        75                         -0.2125508              -5.7838
        76                         -0.2105775              -5.7301
        77                         -0.1405593              -3.8248
        78                         -0.1323032              -3.6002
        79                         -0.1269125              -3.4535
       ...                                ...                  ...
       138                          0.6854232              18.6513
      -------------------------------------------------------------
                  HL-Gap            0.1301014 Eh            3.5402 eV

     #   Z          covCN         q      C6AA      α(0)
     1   8 O        1.593    -0.483    22.569     6.411
     2   5 B        2.478     0.429    17.414     7.364
     3   8 O        1.596    -0.457    22.016     6.332
     4   6 C        2.898    -0.094    30.353     9.033
     5   6 C        2.921    -0.036    28.886     8.814
     6   6 C        2.916    -0.030    28.757     8.794
     7   6 C        2.918    -0.028    28.694     8.784
     8   6 C        2.937    -0.033    28.816     8.804
     9   6 C        2.864    -0.091    30.276     9.019
    10  14 Si       3.612     0.502    97.876    18.992
    11   6 C        2.862    -0.088    30.198     9.008
    12   6 C        2.940    -0.035    28.869     8.812
    13   6 C        2.918    -0.031    28.776     8.797
    14   6 C        2.920    -0.031    28.780     8.797
    15   6 C        2.918    -0.032    28.792     8.799
    16   6 C        2.935    -0.034    28.841     8.808
    17   6 C        2.860    -0.101    30.540     9.058
    18   6 C        2.935    -0.033    28.822     8.805
    19   6 C        2.917    -0.030    28.758     8.794
    20   6 C        2.921    -0.030    28.748     8.793
    21   6 C        2.917    -0.031    28.766     8.795
    22   6 C        2.938    -0.032    28.807     8.803
    23   6 C        2.863    -0.084    30.104     8.993
    24   6 C        2.939    -0.032    28.788     8.800
    25   6 C        2.917    -0.031    28.772     8.796
    26   6 C        2.921    -0.030    28.745     8.792
    27   6 C        2.918    -0.030    28.760     8.794
    28   6 C        2.936    -0.028    28.706     8.787
    29   1 H        0.806     0.302     0.715     1.328
    30   1 H        0.806     0.312     0.685     1.300
    31   1 H        0.925     0.013     2.843     2.637
    32   1 H        0.926     0.027     2.630     2.536
    33   1 H        0.926     0.029     2.603     2.523
    34   1 H        0.926     0.026     2.647     2.544
    35   1 H        0.925     0.014     2.826     2.629
    36   1 H        0.926     0.025     2.660     2.550
    37   1 H        0.926     0.027     2.633     2.538
    38   1 H        0.926     0.026     2.644     2.543
    39   1 H        0.926     0.025     2.661     2.551
    40   1 H        0.926     0.020     2.736     2.587
    41   1 H        0.926     0.025     2.654     2.548
    42   1 H        0.926     0.026     2.641     2.542
    43   1 H        0.926     0.025     2.653     2.547
    44   1 H        0.926     0.017     2.777     2.606
    45   1 H        0.926     0.020     2.738     2.588
    46   1 H        0.926     0.026     2.639     2.540
    47   1 H        0.926     0.027     2.633     2.537
    48   1 H        0.926     0.026     2.645     2.543
    49   1 H        0.926     0.025     2.656     2.549

molecular dipole:
                 x           y           z       tot (Debye)
 q only:        0.481      -0.057      -0.019
   full:        0.814      -0.037      -0.077       2.079

 projected vibrational frequencies (cm⁻¹)
eigval :       -0.00    -0.00    -0.00    -0.00     0.00     0.00
eigval :       15.49    24.97    28.37    31.12    38.24    43.60
eigval :       46.88    49.19    58.53    82.96   103.04   113.05
eigval :      163.82   168.57   175.60   198.82   206.63   207.69
eigval :      216.89   223.85   228.82   315.78   340.04   358.55
eigval :      359.92   363.50   406.08   412.68   416.55   429.58
eigval :      454.18   472.01   483.13   485.27   525.70   548.08
eigval :      567.08   589.41   590.10   590.55   622.65   649.19
eigval :      664.27   664.93   665.37   681.56   692.23   695.35
eigval :      713.18   731.57   736.05   736.75   737.70   767.29
eigval :      881.09   882.95   884.24   889.82   902.51   905.83
eigval :      907.22   919.14   929.97   931.71   932.59   932.89
eigval :      934.24   934.65   935.34   944.30   949.11   975.80
eigval :      976.66   977.86  1022.20  1085.44  1085.98  1086.29
eigval :     1099.82  1119.29  1121.99  1123.45  1142.53  1145.33
eigval :     1148.14  1153.86  1163.66  1182.85  1183.00  1183.39
eigval :     1186.55  1205.92  1208.31  1211.25  1258.51  1271.98
eigval :     1286.13  1288.83  1291.62  1299.75  1301.06  1311.33
eigval :     1311.83  1312.76  1412.42  1419.71  1420.46  1422.16
eigval :     1452.07  1465.25  1466.24  1467.36  1562.17  1577.25
eigval :     1577.76  1578.71  1584.53  1593.84  1594.09  1595.27
eigval :     3033.46  3057.82  3059.59  3060.62  3062.70  3063.12
eigval :     3063.56  3065.17  3069.42  3069.76  3070.70  3073.13
eigval :     3075.00  3078.85  3080.09  3082.06  3083.19  3084.54
eigval :     3086.56  3615.53  3648.00

   temp. (K)  partition function   enthalpy   heat capacity  entropy
                                   cal/mol     cal/K/mol   cal/K/mol   J/K/mol
 298.15  VIB  0.827E+12            14618.179     87.732     92.143
         ROT  0.132E+08              888.752      2.981     35.559
         INT  0.109E+20            15506.932     90.713    127.702
         TR   0.718E+28             1481.254      4.968     43.680
         TOT                       16988.1857    95.6810   171.3822   717.0632

       T/K    H(0)-H(T)+PV         H(T)/Eh          T*S/Eh         G(T)/Eh
   ------------------------------------------------------------------------
    298.15    0.270724E-01    0.402937E+00    0.814292E-01    0.321508E+00
   ------------------------------------------------------------------------

         :::::::::::::::::::::::::::::::::::::::::::::::::::::
         ::                  THERMODYNAMIC                  ::
         :::::::::::::::::::::::::::::::::::::::::::::::::::::
         :: total free energy         -72.885777936445 Eh   ::
         ::.................................................::
         :: total energy              -73.207286009496 Eh   ::
         :: zero point energy           0.375864896431 Eh   ::
         :: G(RRHO) w/o ZPVE           -0.054356823379 Eh   ::
         :: G(RRHO) contrib.            0.321508073051 Eh   ::
         :::::::::::::::::::::::::::::::::::::::::::::::::::::

           -------------------------------------------------
          | TOTAL ENERGY              -73.207286009496 Eh   |
          | TOTAL ENTHALPY            -72.804348715924 Eh   |
          | TOTAL FREE ENERGY         -72.885777936445 Eh   |
          | GRADIENT NORM               0.000089653541 Eh/α |
          | HOMO-LUMO GAP               3.540239348906 eV   |
           -------------------------------------------------

 * finished run on 2025/09/10 at 07:15:38.186
