   * xtb version 6.7.1 (edcfbbe) compiled by 'albert@albert-system' on 2024-07-22

   ID    Z sym.   atoms
    1    8 O      1, 3
    2    5 B      2
    3    6 C      4-9, 11-28
    4   14 Si     10
    5    1 H      29-49

          program call               : xtb data2507/gas/s-triazine/s-triazine_gas_T1_crest.xyz --gfn 2 --spinpol --tblite --uhf 2 --ohess vtight --parallel 40 --molden --ceasefiles --namespace data2507/gas/s-triazine/s-triazine_gas_T1_finalOpt
 * total energy  :   -73.0903619 Eh     change       -0.6917077E-08 Eh
 * total energy  :   -73.0904964 Eh     change       -0.1345037E-03 Eh
 * total energy  :   -73.0905890 Eh     change       -0.9266727E-04 Eh
 * total energy  :   -73.0906230 Eh     change       -0.3399575E-04 Eh
 * total energy  :   -73.0906779 Eh     change       -0.5487747E-04 Eh
 * total energy  :   -73.0907049 Eh     change       -0.2697531E-04 Eh
 * total energy  :   -73.0907295 Eh     change       -0.2460366E-04 Eh
 * total energy  :   -73.0907497 Eh     change       -0.2020991E-04 Eh
 * total energy  :   -73.0907604 Eh     change       -0.1074785E-04 Eh
 * total energy  :   -73.0907826 Eh     change       -0.2213817E-04 Eh
 * total energy  :   -73.0913001 Eh     change       -0.1608408E-05 Eh
 * total energy  :   -73.0913014 Eh     change       -0.1354826E-05 Eh
 * total energy  :   -73.0913025 Eh     change       -0.1062857E-05 Eh
 * total energy  :   -73.0913033 Eh     change       -0.8241628E-06 Eh
 * total energy  :   -73.0913042 Eh     change       -0.8462168E-06 Eh
 * total energy  :   -73.0913049 Eh     change       -0.7714520E-06 Eh
 * total energy  :   -73.0913054 Eh     change       -0.4575983E-06 Eh
 * total energy  :   -73.0913056 Eh     change       -0.2248311E-06 Eh
 * total energy  :   -73.0913056 Eh     change       -0.3359929E-08 Eh
   *** GEOMETRY OPTIMIZATION CONVERGED AFTER 94 ITERATIONS ***

 final structure:
================
49
 xtb: 6.7.1 (edcfbbe)
O            4.26895703083173        0.10108186191985       -0.47755131389919
B            2.99220378875810       -0.27195152909327       -0.79738955904282
O            2.63413238228009       -1.56026538404810       -0.54688562912104
C            1.93667063508715        0.67157626072968       -1.43928076512420
C            2.19155488060015        1.95931790673358       -1.89481648732992
C            1.29122678859075        2.62816169577845       -2.71024097637021
C            0.11152307740719        1.97325716119089       -3.16844178790477
C           -0.21397451174384        0.74954500514541       -2.68441040429505
C            0.55009342413659        0.25984708993897       -1.57414590150061
Si          -0.41017212986859       -0.07886139021252        0.03463619385849
C            0.82521074947853       -0.20398235225930        1.45534406185415
C            1.68858268118495        0.85350944717660        1.72493197308348
C            2.64047762022736        0.76024659148843        2.72395737021856
C            2.74571162048713       -0.40004533247303        3.47226833928490
C            1.89078976459210       -1.45957602045037        3.21877964003984
C            0.94055183386575       -1.35949626080585        2.21829200548632
C           -1.70007909837897        1.25008396228259        0.42554472455468
C           -1.62650027930039        2.03673861153009        1.57443436455315
C           -2.55115670479923        3.03463395958949        1.81926795277216
C           -3.57433709136555        3.27238864015872        0.91608532623052
C           -3.66406749882763        2.50202371566632       -0.23193149875033
C           -2.73680186329224        1.50629099224121       -0.47190758893836
C           -1.25775478543611       -1.74258726543941       -0.31819156803502
C           -2.60104369068227       -1.94550535422454       -0.02245398587737
C           -3.20147563736552       -3.16933089882283       -0.26051512502577
C           -2.46431246281118       -4.21031519038854       -0.79975643386178
C           -1.12397605097146       -4.02244567985831       -1.09496430872377
C           -0.52610915161570       -2.79781718983734       -0.85714377373515
H            4.49262380715614        1.01148087708964       -0.65922926202751
H            3.33224799300292       -2.06743866403700       -0.13189819309925
H            3.16382932461151        2.40641204908975       -1.71768217229577
H            1.55812703953921        3.58357581878853       -3.13518618504888
H           -0.47242318474668        2.43232654369736       -3.95280260653812
H           -1.07164627431619        0.19994306999224       -3.04084826664828
H            1.61036854586248        1.76071556152663        1.14225096550276
H            3.30403611035211        1.59089976079738        2.91922440403323
H            3.49212197359225       -0.47826443914233        4.24975040069749
H            1.96863259822896       -2.36704394460718        3.80102493504884
H            0.28069721989361       -2.19179824316183        2.01975663086020
H           -0.83670166028340        1.85408545754049        2.28908168047387
H           -2.47704508699026        3.62911718723902        2.71895623720262
H           -4.29806482944535        4.05163383150604        1.10619646185952
H           -4.46075964450966        2.67995679816901       -0.94045475711321
H           -2.81715409684931        0.90989138754641       -1.36881221617818
H           -3.17980013065490       -1.13703728395164        0.40041991049772
H           -4.24660077960407       -3.31170295518439       -0.02461531453010
H           -2.93351567228578       -5.16535343254967       -0.98832993980425
H           -0.54482965618631       -4.83355987890903       -1.51303750662720
H            0.51933281355562       -2.64897162379180       -1.08268898417065

 projected vibrational frequencies (cm⁻¹)
eigval :       -0.00    -0.00    -0.00     0.00     0.00     0.00
eigval :       16.29    23.85    29.14    35.25    37.68    43.90
eigval :       48.12    57.85    68.23    74.04    82.28    98.65
eigval :      116.40   160.01   171.24   171.61   187.14   214.46
eigval :      219.10   225.34   242.26   304.19   325.49   357.33
eigval :      359.25   361.97   365.69   387.83   417.49   420.57
eigval :      430.85   454.36   469.26   477.98   500.16   508.39
eigval :      523.80   580.50   588.01   589.19   589.72   602.43
eigval :      626.02   658.88   660.16   662.08   667.73   693.09
eigval :      700.16   712.28   712.99   731.76   736.13   738.87
eigval :      781.52   858.81   872.20   877.66   880.63   883.45
eigval :      898.62   904.45   909.50   918.09   927.44   929.27
eigval :      931.18   933.37   933.58   935.97   938.94   949.38
eigval :      972.09   975.09   977.38  1021.39  1033.20  1083.88
eigval :     1084.55  1085.85  1120.37  1121.62  1122.88  1130.04
eigval :     1135.82  1137.85  1153.29  1155.08  1175.28  1181.78
eigval :     1181.91  1182.57  1206.06  1206.69  1209.70  1249.24
eigval :     1262.78  1285.32  1288.28  1289.91  1291.60  1298.02
eigval :     1310.38  1313.84  1315.33  1358.24  1417.42  1419.68
eigval :     1420.59  1420.97  1458.02  1458.99  1466.32  1506.96
eigval :     1566.65  1574.00  1577.26  1583.61  1585.44  1591.63
eigval :     3010.60  3061.27  3062.54  3063.80  3063.97  3064.87
eigval :     3065.94  3069.33  3071.21  3073.48  3074.98  3076.79
eigval :     3077.14  3079.93  3084.01  3084.56  3086.52  3089.18
eigval :     3095.33  3627.06  3658.78

   temp. (K)  partition function   enthalpy   heat capacity  entropy
                                   cal/mol     cal/K/mol   cal/K/mol   J/K/mol
 298.15  VIB  0.150E+13            15032.987     90.154     95.274
         ROT  0.129E+08              888.752      2.981     35.517
         INT  0.194E+20            15921.740     93.135    130.791
         TR   0.718E+28             1481.254      4.968     43.680
         TOT                       17402.9938    98.1035   174.4711   729.9871

       T/K    H(0)-H(T)+PV         H(T)/Eh          T*S/Eh         G(T)/Eh
   ------------------------------------------------------------------------
    298.15    0.277334E-01    0.399320E+00    0.828969E-01    0.316423E+00
   ------------------------------------------------------------------------

         :::::::::::::::::::::::::::::::::::::::::::::::::::::
         ::                  THERMODYNAMIC                  ::
         :::::::::::::::::::::::::::::::::::::::::::::::::::::
         :: total free energy         -72.774882470060 Eh   ::
         ::.................................................::
         :: total energy              -73.091305615289 Eh   ::
         :: zero point energy           0.371586562342 Eh   ::
         :: G(RRHO) w/o ZPVE           -0.055163417113 Eh   ::
         :: G(RRHO) contrib.            0.316423145229 Eh   ::
         :::::::::::::::::::::::::::::::::::::::::::::::::::::

           -------------------------------------------------
          | TOTAL ENERGY              -73.091305615289 Eh   |
          | TOTAL ENTHALPY            -72.691985617086 Eh   |
          | TOTAL FREE ENERGY         -72.774882470060 Eh   |
          | GRADIENT NORM               0.000052770484 Eh/α |
           -------------------------------------------------

 * finished run on 2025/09/10 at 07:18:32.548
