   * xtb version 6.7.1 (edcfbbe) compiled by 'albert@albert-system' on 2024-07-22

   ID    Z sym.   atoms
    1    8 O      1, 3
    2    5 B      2
    3    6 C      4-9, 11-28
    4   14 Si     10
    5    1 H      29-49

          program call               : xtb data2507/gas/s-triazine/s-triazine.xyz --gfn 2 --ohess vtight --parallel 40 --molden --ceasefiles --namespace data2507/gas/s-triazine/s-triazine_gas_S0_preOpt
          :  Hamiltonian                  GFN2-xTB          :
 * total energy  :   -73.1134401 Eh     change       -0.1879684E-08 Eh
 * total energy  :   -73.1435998 Eh     change       -0.3015966E-01 Eh
 * total energy  :   -73.1596849 Eh     change       -0.1608512E-01 Eh
 * total energy  :   -73.1663048 Eh     change       -0.6619885E-02 Eh
 * total energy  :   -73.1705917 Eh     change       -0.4286945E-02 Eh
 * total energy  :   -73.1756360 Eh     change       -0.5044263E-02 Eh
 * total energy  :   -73.1813556 Eh     change       -0.5719658E-02 Eh
 * total energy  :   -73.1848176 Eh     change       -0.3461968E-02 Eh
 * total energy  :   -73.1900364 Eh     change       -0.5218802E-02 Eh
 * total energy  :   -73.1921449 Eh     change       -0.2108472E-02 Eh
 * total energy  :   -73.2068340 Eh     change        0.7800745E-07 Eh
 * total energy  :   -73.2068344 Eh     change       -0.3683962E-06 Eh
 * total energy  :   -73.2068343 Eh     change        0.7211462E-07 Eh
 * total energy  :   -73.2068345 Eh     change       -0.2677254E-06 Eh
 * total energy  :   -73.2068345 Eh     change        0.3955813E-07 Eh
 * total energy  :   -73.2068347 Eh     change       -0.2049461E-06 Eh
 * total energy  :   -73.2068349 Eh     change       -0.1674138E-06 Eh
 * total energy  :   -73.2068350 Eh     change       -0.1512427E-06 Eh
 * total energy  :   -73.2068351 Eh     change       -0.9388987E-07 Eh
   *** GEOMETRY OPTIMIZATION CONVERGED AFTER 179 ITERATIONS ***

 final structure:
================
49
 xtb: 6.7.1 (edcfbbe)
O            2.16346645586714        0.68835506516330        2.02379030399081
B            2.82153205612396        0.18368077593318        0.94484835281181
O            3.93862170265848        0.82393412620715        0.53956564096342
C            2.40712125831082       -1.14216948607668        0.17904791129417
C            3.37170209640169       -2.12606483481698       -0.02899432666160
C            3.06996193752543       -3.31100772771622       -0.67570145906632
C            1.78491160365925       -3.52907083695146       -1.14182989193690
C            0.81941014073701       -2.55652865617584       -0.95945986426633
C            1.10656585397271       -1.36394430414582       -0.30071681682010
Si          -0.24511784544705       -0.04919717063603       -0.11451514773941
C           -1.04324616160233       -0.20681532142701        1.60372166641299
C           -2.16885477954842        0.54407124359218        1.93290423376570
C           -2.75672421415744        0.44373901546532        3.18071624754879
C           -2.23136431409280       -0.42078251550785        4.12696769928407
C           -1.12410786771178       -1.19011776084034        3.81268578635457
C           -0.53923840068192       -1.08245747300374        2.56273703068289
C            0.52442853645282        1.66023452374965       -0.37794863774499
C            0.22047097887926        2.75084848974814        0.42948329642440
C            0.82137868074453        3.97957458540059        0.22434350571872
C            1.74177984974442        4.13939368940133       -0.79767952503029
C            2.05738048818511        3.06370758663921       -1.61053565728565
C            1.45390550620032        1.83777523370075       -1.39917000083145
C           -1.61772161122964       -0.33427051706105       -1.39124656836732
C           -1.63646475124292        0.34188536586556       -2.60683754085864
C           -2.63358846954862        0.11031781280891       -3.53739519475960
C           -3.63493614212590       -0.80682242686877       -3.26666582860834
C           -3.63439220918467       -1.48632275750189       -2.05985494453819
C           -2.63498195374775       -1.24905801566054       -1.13402590950981
H            1.37782755241733        0.22766589903270        2.31775350277547
H            4.13392106607061        1.61129691595881        1.04975682187019
H            4.37620593174978       -1.94876207851174        0.32687874780364
H            3.83553766525936       -4.05983944466920       -0.82060059509523
H            1.53842709400499       -4.44943925611595       -1.65205721822369
H           -0.17993629807223       -2.72006592592528       -1.33844502253699
H           -2.59327575615155        1.20772134814958        1.19282690993937
H           -3.62828147841382        1.03731921066951        3.41692606843356
H           -2.68851769069475       -0.50075563342011        5.10238866899882
H           -0.71794478568900       -1.87718182494513        4.54112884928863
H            0.31122933787144       -1.70565781346285        2.31734512384920
H           -0.48799938547768        2.63340722917572        1.23680026961820
H            0.57519550496721        4.81448409175032        0.86516765786698
H            2.21453110289995        5.09796294935622       -0.95749857107933
H            2.77933902383892        3.17973053974027       -2.40605877621641
H            1.71629152286732        0.99887644084080       -2.02789482629325
H           -0.86085680893089        1.06288329457024       -2.82223609229288
H           -2.63133693104625        0.64607611316874       -4.47602994822934
H           -4.41446687280521       -0.98991007669260       -3.99209295796838
H           -4.41515313320809       -2.20104852579546       -1.84140860668561
H           -2.64263708658004       -1.77765316216655       -0.19088236704072

          :  Hamiltonian                  GFN2-xTB          :
         :: gradient norm              0.000052638523 Eh/a0 ::
         :: HOMO-LUMO gap              3.687441146176 eV    ::
         :: SCC energy               -74.491215655329 Eh    ::
         :: -> dispersion             -0.065184335318 Eh    ::
         :: repulsion energy           1.284380529783 Eh    ::

    * Orbital Energies and Occupations

         #    Occupation            Energy/Eh            Energy/eV
      -------------------------------------------------------------
         1        2.0000           -0.7558404             -20.5675
       ...           ...                  ...                  ...
        56        2.0000           -0.4166375             -11.3373
        57        2.0000           -0.4089125             -11.1271
        58        2.0000           -0.4070969             -11.0777
        59        2.0000           -0.4026036             -10.9554
        60        2.0000           -0.4009089             -10.9093
        61        2.0000           -0.4001441             -10.8885
        62        2.0000           -0.3981656             -10.8346
        63        2.0000           -0.3972494             -10.8097
        64        2.0000           -0.3950729             -10.7505
        65        2.0000           -0.3938506             -10.7172
        66        2.0000           -0.3845243             -10.4634
        67        2.0000           -0.3815343             -10.3821
        68        2.0000           -0.3776906             -10.2775 (HOMO)
        69                         -0.2421795              -6.5900 (LUMO)
        70                         -0.2368575              -6.4452
        71                         -0.2332427              -6.3469
        72                         -0.2279326              -6.2024
        73                         -0.2249700              -6.1217
        74                         -0.2199369              -5.9848
        75                         -0.2183518              -5.9417
        76                         -0.2154901              -5.8638
        77                         -0.1426248              -3.8810
        78                         -0.1410455              -3.8380
        79                         -0.1380231              -3.7558
       ...                                ...                  ...
       138                          0.6781753              18.4541
      -------------------------------------------------------------
                  HL-Gap            0.1355111 Eh            3.6874 eV

     #   Z          covCN         q      C6AA      α(0)
     1   8 O        1.593    -0.496    22.839     6.449
     2   5 B        2.476     0.432    17.416     7.370
     3   8 O        1.593    -0.462    22.134     6.349
     4   6 C        2.897    -0.091    30.279     9.022
     5   6 C        2.922    -0.029    28.722     8.789
     6   6 C        2.917    -0.029    28.713     8.787
     7   6 C        2.917    -0.030    28.740     8.791
     8   6 C        2.936    -0.034    28.835     8.807
     9   6 C        2.865    -0.102    30.572     9.063
    10  14 Si       3.614     0.491    98.139    19.016
    11   6 C        2.861    -0.101    30.529     9.057
    12   6 C        2.937    -0.030    28.737     8.792
    13   6 C        2.917    -0.028    28.709     8.786
    14   6 C        2.921    -0.028    28.694     8.784
    15   6 C        2.917    -0.030    28.748     8.792
    16   6 C        2.935    -0.043    29.065     8.842
    17   6 C        2.863    -0.098    30.450     9.045
    18   6 C        2.934    -0.031    28.773     8.797
    19   6 C        2.918    -0.030    28.751     8.793
    20   6 C        2.921    -0.030    28.742     8.792
    21   6 C        2.917    -0.029    28.724     8.789
    22   6 C        2.942    -0.031    28.772     8.797
    23   6 C        2.863    -0.097    30.423     9.041
    24   6 C        2.935    -0.032    28.795     8.801
    25   6 C        2.918    -0.029    28.730     8.790
    26   6 C        2.921    -0.028    28.707     8.786
    27   6 C        2.917    -0.030    28.744     8.792
    28   6 C        2.939    -0.032    28.793     8.800
    29   1 H        0.806     0.301     0.718     1.331
    30   1 H        0.806     0.308     0.696     1.310
    31   1 H        0.926     0.030     2.585     2.514
    32   1 H        0.926     0.028     2.611     2.527
    33   1 H        0.926     0.027     2.631     2.537
    34   1 H        0.925     0.020     2.731     2.584
    35   1 H        0.926     0.024     2.672     2.556
    36   1 H        0.926     0.031     2.577     2.510
    37   1 H        0.926     0.031     2.568     2.506
    38   1 H        0.926     0.030     2.590     2.517
    39   1 H        0.925     0.018     2.762     2.599
    40   1 H        0.926     0.023     2.692     2.566
    41   1 H        0.926     0.028     2.621     2.531
    42   1 H        0.926     0.028     2.612     2.527
    43   1 H        0.926     0.030     2.587     2.515
    44   1 H        0.926     0.021     2.713     2.576
    45   1 H        0.926     0.023     2.687     2.563
    46   1 H        0.926     0.028     2.611     2.527
    47   1 H        0.926     0.029     2.602     2.523
    48   1 H        0.926     0.028     2.619     2.531
    49   1 H        0.926     0.018     2.769     2.602

molecular dipole:
                 x           y           z       tot (Debye)
 q only:       -0.369       0.092       0.281
   full:       -0.419       0.100       0.411       1.514

 projected vibrational frequencies (cm⁻¹)
eigval :       -0.00    -0.00    -0.00     0.00     0.00     0.00
eigval :       23.57    27.31    31.27    36.90    38.74    44.40
eigval :       46.37    49.23    66.00    75.50   101.65   117.31
eigval :      157.28   162.63   169.07   194.03   206.25   207.88
eigval :      219.28   226.22   229.58   311.42   320.30   358.49
eigval :      360.83   366.16   403.26   413.27   418.27   424.44
eigval :      467.80   471.68   481.98   495.10   523.52   569.01
eigval :      574.64   589.10   589.85   590.12   639.49   648.97
eigval :      663.00   663.64   666.21   679.12   690.83   703.94
eigval :      710.13   730.64   735.41   737.37   739.67   767.78
eigval :      880.08   882.93   887.85   891.08   904.20   907.11
eigval :      911.88   920.60   929.91   931.91   932.87   934.22
eigval :      934.91   936.14   937.22   955.08   957.42   975.30
eigval :      976.82   977.37  1023.44  1084.79  1085.82  1086.29
eigval :     1096.41  1119.84  1121.82  1124.39  1140.38  1144.12
eigval :     1149.66  1152.86  1161.79  1182.37  1182.80  1183.18
eigval :     1184.49  1206.08  1207.74  1211.62  1254.00  1262.52
eigval :     1285.30  1287.95  1289.72  1292.52  1298.47  1309.94
eigval :     1312.36  1313.45  1409.13  1417.84  1420.10  1421.65
eigval :     1448.96  1463.36  1465.56  1466.48  1559.38  1575.08
eigval :     1577.29  1578.15  1584.13  1592.09  1593.91  1595.42
eigval :     3050.08  3060.33  3061.81  3064.32  3065.77  3065.98
eigval :     3067.03  3067.19  3071.82  3072.32  3073.15  3076.19
eigval :     3077.57  3078.24  3079.32  3084.18  3085.71  3086.12
eigval :     3088.70  3601.19  3609.52

   temp. (K)  partition function   enthalpy   heat capacity  entropy
                                   cal/mol     cal/K/mol   cal/K/mol   J/K/mol
 298.15  VIB  0.405E+12            14596.895     87.908     91.858
         ROT  0.131E+08              888.752      2.981     35.554
         INT  0.532E+19            15485.648     90.889    127.411
         TR   0.718E+28             1481.254      4.968     43.680
         TOT                       16966.9018    95.8575   171.0913   715.8460

       T/K    H(0)-H(T)+PV         H(T)/Eh          T*S/Eh         G(T)/Eh
   ------------------------------------------------------------------------
    298.15    0.270385E-01    0.402963E+00    0.812910E-01    0.321672E+00
   ------------------------------------------------------------------------

         :::::::::::::::::::::::::::::::::::::::::::::::::::::
         ::                  THERMODYNAMIC                  ::
         :::::::::::::::::::::::::::::::::::::::::::::::::::::
         :: total free energy         -72.885162713242 Eh   ::
         ::.................................................::
         :: total energy              -73.206835125542 Eh   ::
         :: zero point energy           0.375924929111 Eh   ::
         :: G(RRHO) w/o ZPVE           -0.054252516811 Eh   ::
         :: G(RRHO) contrib.            0.321672412300 Eh   ::
         :::::::::::::::::::::::::::::::::::::::::::::::::::::

           -------------------------------------------------
          | TOTAL ENERGY              -73.206835125542 Eh   |
          | TOTAL ENTHALPY            -72.803871717411 Eh   |
          | TOTAL FREE ENERGY         -72.885162713242 Eh   |
          | GRADIENT NORM               0.000052692766 Eh/α |
          | HOMO-LUMO GAP               3.687444616728 eV   |
           -------------------------------------------------

 * finished run on 2025/09/10 at 07:13:09.595
