   * xtb version 6.7.1 (edcfbbe) compiled by 'albert@albert-system' on 2024-07-22

   ID    Z sym.   atoms
    1    6 C      1-4, 6-20, 22-35, 37-53, 55-67
    2    7 N      5, 21, 36, 54
    3    1 H      68-109

          program call               : xtb data2507/gas/TPACzPI/TPACzPI.xyz --gfn 2 --ohess vtight --parallel 40 --molden --ceasefiles --namespace data2507/gas/TPACzPI/TPACzPI_gas_S0_preOpt
          :  Hamiltonian                  GFN2-xTB          :
 * total energy  :  -168.0748230 Eh     change       -0.2819320E-08 Eh
 * total energy  :  -168.0936523 Eh     change       -0.1882927E-01 Eh
 * total energy  :  -168.0996010 Eh     change       -0.5948670E-02 Eh
 * total energy  :  -168.1014999 Eh     change       -0.1898899E-02 Eh
 * total energy  :  -168.1026333 Eh     change       -0.1133392E-02 Eh
 * total energy  :  -168.1031472 Eh     change       -0.5139434E-03 Eh
 * total energy  :  -168.1034544 Eh     change       -0.3071774E-03 Eh
 * total energy  :  -168.1036983 Eh     change       -0.2439055E-03 Eh
 * total energy  :  -168.1039208 Eh     change       -0.2224950E-03 Eh
 * total energy  :  -168.1041391 Eh     change       -0.2183623E-03 Eh
 * total energy  :  -168.1108101 Eh     change       -0.5178418E-06 Eh
 * total energy  :  -168.1108106 Eh     change       -0.5510435E-06 Eh
 * total energy  :  -168.1108112 Eh     change       -0.5527861E-06 Eh
 * total energy  :  -168.1108116 Eh     change       -0.4253696E-06 Eh
 * total energy  :  -168.1108119 Eh     change       -0.3063569E-06 Eh
 * total energy  :  -168.1108123 Eh     change       -0.3221271E-06 Eh
 * total energy  :  -168.1108127 Eh     change       -0.4168582E-06 Eh
 * total energy  :  -168.1108133 Eh     change       -0.6652969E-06 Eh
 * total energy  :  -168.1108133 Eh     change       -0.1694929E-08 Eh
   *** GEOMETRY OPTIMIZATION CONVERGED AFTER 185 ITERATIONS ***

 final structure:
================
109
 xtb: 6.7.1 (edcfbbe)
C          -10.42379105221646       -1.06250377142876       -3.80477301822875
C          -11.10549356640504       -0.80882922344203       -2.62579404038783
C          -10.42178100879450       -0.70157596453851       -1.43050683777424
C           -9.03609271238532       -0.85679463711228       -1.39710171263617
N           -8.33842710019414       -0.75601948123693       -0.18831755022986
C           -8.90424769762278       -1.25326554596570        0.99117323573543
C           -9.66300480335946       -2.42342561270092        0.97413921600764
C          -10.22452183732471       -2.90575543509263        2.14024577372538
C          -10.03374201134174       -2.23947173500416        3.33969275022874
C           -9.27650439469969       -1.07971341659755        3.36304099906107
C           -8.71799795290867       -0.58450266207077        2.20096499662066
C           -7.07482309618707       -0.15862124876999       -0.15917577759195
C           -6.79296056649437        0.94797096707247       -0.96092246719808
C           -5.54616085883635        1.53516615850123       -0.92820118126393
C           -4.53832400084974        1.03997724047364       -0.10179713912032
C           -3.21302099916491        1.66923340623152       -0.07143183516797
C           -2.05552204330842        0.89615100525160       -0.00464820688139
C           -0.80630751230041        1.48215011467048        0.01352789672121
C           -0.67847034327292        2.86938839154613       -0.03406205261802
C            0.60181267103325        3.55505289293193       -0.00510703629896
N            0.77485729408482        4.71485671266387        0.58030474783042
C            2.08493395387790        5.02838147063742        0.41214739955010
C            2.77583425836144        6.17426179709152        0.89518783485440
C            2.11913910000302        7.14950834768068        1.65295851356909
C            2.80851551696046        8.23447795676274        2.13328672346164
C            4.17024834792775        8.35406541523136        1.86252508784617
C            4.82453875882665        7.40353802616320        1.11440612988859
C            4.15335123595144        6.28425158559141        0.59834230941918
C            4.80855736666670        5.27849511827115       -0.22004366706734
C            6.15646847432864        5.39615619634175       -0.58764323038734
C            6.77800235692545        4.47020178619912       -1.39133414680490
C            6.06457950187635        3.38108745068406       -1.88104746041133
C            4.74353321592655        3.22558760568663       -1.54127363212622
C            4.09735424323764        4.14442485702194       -0.70165985110616
C            2.73179496337118        4.03048087994156       -0.31611151009006
N            1.76658204933442        3.08224304790283       -0.56897810063178
C            1.88454181758840        1.87589244855527       -1.28894401738757
C            1.19101251463479        1.72016122809001       -2.48285353726769
C            1.29077476638558        0.52393479109365       -3.17086737560270
C            2.07378962321520       -0.50358489068325       -2.67948504745164
C            2.77153102524495       -0.35873999321124       -1.48055922419786
C            3.59723000662204       -1.45366109597824       -0.95201190072221
C            4.40260628097041       -2.20285161790660       -1.82103976539504
C            5.18757123403099       -3.24534093947710       -1.37512924767265
C            5.15062598280465       -3.55723137255656       -0.02298335559240
C            4.36273687007512       -2.79803544796760        0.87345069274184
C            3.58933812287694       -1.74783159647586        0.40529080745155
C            4.58568644800972       -3.35103173122591        2.18006830189867
C            4.08895361960874       -3.05152957615369        3.44178465883655
C            4.50393738939266       -3.81590568605545        4.51357094959002
C            5.39094944441219       -4.87568487660858        4.33704953309904
C            5.89932656810234       -5.19231053516333        3.09187810215515
C            5.50398065594809       -4.41294451640424        2.01430909471925
N            5.83574567744589       -4.52582982234565        0.67789463037593
C            6.71400284455570       -5.47063012052159        0.12709194991831
C            6.31753412161866       -6.24144469361067       -0.96176011897120
C            7.18782338181478       -7.16887847944178       -1.50382558500466
C            8.45045015703823       -7.34242086505689       -0.96176488053413
C            8.84449966658446       -6.57907576676416        0.12465442014883
C            7.98512684847159       -5.64175204031361        0.66719420764181
C            2.66407089780732        0.84187648338027       -0.78622271152924
C           -1.83643740197539        3.64833024918756       -0.07186702052485
C           -3.08074055385490        3.05778446271774       -0.09774867434744
C           -4.82574687573360       -0.06683302418771        0.69575688946641
C           -6.07125385372838       -0.65730890598454        0.67198388760849
C           -8.35500369435876       -1.11547074856310       -2.58660599991849
C           -9.04693068583742       -1.21234568650076       -3.77798326726346
H          -10.96146939065972       -1.14278795745100       -4.73729854302305
H          -12.17843580318775       -0.68469442538037       -2.63755527953502
H          -10.95497902983526       -0.49383887972390       -0.51429461112895
H           -9.80526389640790       -2.95054768029906        0.04199327153933
H          -10.80863690355562       -3.81398353184281        2.11304761043967
H          -10.47196148553758       -2.62114980722821        4.24932180624230
H           -9.12646526586768       -0.55030657118061        4.29253579442732
H           -8.13656474915229        0.32569116062156        2.22044313650452
H           -7.56240410076631        1.34453212770467       -1.60724340748755
H           -5.34401199189956        2.38436254183593       -1.56432851332749
H           -2.13487026665692       -0.18108130719653        0.01690680628118
H            0.06819372499069        0.85350337263298        0.08467953515909
H            1.06652084259995        7.01286901815426        1.84644869738177
H            2.30622667251657        8.98947603203161        2.72006855367148
H            4.71927310536840        9.20294863241220        2.24433036293026
H            5.87932773068423        7.53786323262299        0.93370395846935
H            6.73433461344257        6.23847914457124       -0.24303156567170
H            7.81873604830987        4.59512345623214       -1.65230027466500
H            6.54485989155492        2.66236757305240       -2.52863162722190
H            4.19155451553415        2.38907685541375       -1.93886614686167
H            0.58230586243632        2.52921307550492       -2.85723038176633
H            0.75164827290646        0.39470095690782       -4.09737050540612
H            2.13190234088344       -1.43832399204573       -3.21660926284609
H            4.42757069821708       -1.93661899392468       -2.86743558810906
H            5.81955634981793       -3.79209816895755       -2.05857856518263
H            2.97296050743072       -1.18187093065282        1.08747319636049
H            3.38954151741489       -2.24019347211058        3.57584165042106
H            4.13155854891006       -3.59910005665705        5.50363009460075
H            5.68534427291472       -5.46566572256235        5.19239935370458
H            6.57257451803648       -6.02629858747261        2.96284355740495
H            5.32420176211153       -6.11862006050068       -1.36709014991999
H            6.87506560873993       -7.76498230294652       -2.34831411259289
H            9.12558152256099       -8.07071560410340       -1.38485835998256
H            9.82976837267740       -6.70813175923691        0.54751723986358
H            8.29617920854100       -5.02919873202374        1.50025970973209
H            3.20561680260560        0.98834351626482        0.13733914992092
H           -1.73264118905309        4.72216596487343       -0.07910591107065
H           -3.96640625735785        3.67585780974060       -0.11712284797031
H           -4.06612526367375       -0.45988791955742        1.35529302608540
H           -6.27724199596595       -1.51384595975497        1.29729195744529
H           -7.28247384801357       -1.24302419993790       -2.56713033104078
H           -8.50709752425935       -1.41554417799630       -4.69131004046579

          :  Hamiltonian                  GFN2-xTB          :
         :: gradient norm              0.000032243662 Eh/a0 ::
         :: HOMO-LUMO gap              2.402313272880 eV    ::
         :: SCC energy              -171.304855817568 Eh    ::
         :: -> dispersion             -0.155950988133 Eh    ::
         :: repulsion energy           3.194042481435 Eh    ::

    * Orbital Energies and Occupations

         #    Occupation            Energy/Eh            Energy/eV
      -------------------------------------------------------------
         1        2.0000           -0.6803437             -18.5131
       ...           ...                  ...                  ...
       145        2.0000           -0.4044315             -11.0051
       146        2.0000           -0.4032851             -10.9739
       147        2.0000           -0.4031104             -10.9692
       148        2.0000           -0.4012127             -10.9176
       149        2.0000           -0.3997968             -10.8790
       150        2.0000           -0.3933727             -10.7042
       151        2.0000           -0.3878614             -10.5542
       152        2.0000           -0.3819376             -10.3931
       153        2.0000           -0.3746963             -10.1960
       154        2.0000           -0.3695410             -10.0557
       155        2.0000           -0.3645669              -9.9204
       156        2.0000           -0.3573038              -9.7227
       157        2.0000           -0.3468671              -9.4387 (HOMO)
       158                         -0.2585837              -7.0364 (LUMO)
       159                         -0.2511462              -6.8340
       160                         -0.2492233              -6.7817
       161                         -0.2436103              -6.6290
       162                         -0.2402248              -6.5368
       163                         -0.2370021              -6.4492
       164                         -0.2366548              -6.4397
       165                         -0.2339266              -6.3655
       166                         -0.2292829              -6.2391
       167                         -0.2261704              -6.1544
       168                         -0.2222520              -6.0478
       ...                                ...                  ...
       310                          0.7441318              20.2489
      -------------------------------------------------------------
                  HL-Gap            0.0882834 Eh            2.4023 eV

     #   Z          covCN         q      C6AA      α(0)
     1   6 C        2.919    -0.039    28.960     8.825
     2   6 C        2.920    -0.029    28.732     8.790
     3   6 C        2.922    -0.048    29.183     8.859
     4   6 C        2.924     0.065    26.539     8.448
     5   7 N        2.752    -0.075    22.703     7.077
     6   6 C        2.924     0.065    26.542     8.449
     7   6 C        2.922    -0.048    29.186     8.859
     8   6 C        2.920    -0.029    28.734     8.790
     9   6 C        2.919    -0.039    28.957     8.824
    10   6 C        2.920    -0.029    28.730     8.790
    11   6 C        2.922    -0.048    29.182     8.859
    12   6 C        2.924     0.064    26.575     8.454
    13   6 C        2.920    -0.048    29.203     8.862
    14   6 C        2.924    -0.034    28.852     8.809
    15   6 C        2.976     0.002    27.984     8.677
    16   6 C        2.976     0.011    27.766     8.643
    17   6 C        2.924    -0.035    28.876     8.812
    18   6 C        2.920    -0.035    28.876     8.812
    19   6 C        2.974    -0.000    28.026     8.684
    20   6 C        3.192     0.127    24.757     8.114
    21   7 N        1.895    -0.293    28.445     7.907
    22   6 C        3.208     0.057    26.137     8.325
    23   6 C        2.986     0.003    27.960     8.674
    24   6 C        2.922    -0.031    28.782     8.798
    25   6 C        2.917    -0.031    28.766     8.795
    26   6 C        2.917    -0.033    28.833     8.805
    27   6 C        2.922    -0.035    28.873     8.812
    28   6 C        2.979    -0.002    28.065     8.690
    29   6 C        2.980     0.002    27.987     8.678
    30   6 C        2.922    -0.034    28.848     8.808
    31   6 C        2.916    -0.034    28.843     8.807
    32   6 C        2.917    -0.032    28.797     8.800
    33   6 C        2.919    -0.040    28.998     8.831
    34   6 C        2.978    -0.002    28.064     8.690
    35   6 C        3.073     0.020    27.491     8.597
    36   7 N        2.842    -0.046    22.124     6.986
    37   6 C        2.911     0.067    26.493     8.440
    38   6 C        2.921    -0.042    29.038     8.837
    39   6 C        2.919    -0.028    28.691     8.784
    40   6 C        2.925    -0.037    28.927     8.820
    41   6 C        2.977     0.014    27.688     8.631
    42   6 C        2.977    -0.002    28.078     8.692
    43   6 C        2.929    -0.038    28.936     8.822
    44   6 C        2.908    -0.051    29.264     8.870
    45   6 C        3.077     0.047    26.870     8.499
    46   6 C        3.066    -0.017    28.358     8.732
    47   6 C        2.918    -0.037    28.909     8.817
    48   6 C        3.068    -0.017    28.358     8.732
    49   6 C        2.912    -0.032    28.800     8.800
    50   6 C        2.920    -0.040    28.994     8.830
    51   6 C        2.924    -0.033    28.812     8.803
    52   6 C        2.910    -0.050    29.249     8.868
    53   6 C        3.078     0.047    26.863     8.497
    54   7 N        2.803    -0.042    22.057     6.975
    55   6 C        2.913     0.065    26.553     8.450
    56   6 C        2.922    -0.042    29.047     8.838
    57   6 C        2.920    -0.028    28.693     8.784
    58   6 C        2.919    -0.033    28.812     8.802
    59   6 C        2.920    -0.028    28.689     8.783
    60   6 C        2.922    -0.042    29.040     8.837
    61   6 C        2.927    -0.044    29.087     8.845
    62   6 C        2.927    -0.029    28.719     8.788
    63   6 C        2.923    -0.034    28.838     8.806
    64   6 C        2.924    -0.034    28.848     8.808
    65   6 C        2.920    -0.048    29.204     8.862
    66   6 C        2.922    -0.048    29.187     8.859
    67   6 C        2.920    -0.029    28.734     8.790
    68   1 H        0.926     0.030     2.589     2.516
    69   1 H        0.926     0.031     2.569     2.506
    70   1 H        0.926     0.032     2.563     2.503
    71   1 H        0.926     0.031     2.569     2.506
    72   1 H        0.926     0.031     2.572     2.508
    73   1 H        0.926     0.030     2.587     2.515
    74   1 H        0.926     0.032     2.563     2.504
    75   1 H        0.926     0.032     2.560     2.502
    76   1 H        0.926     0.032     2.553     2.499
    77   1 H        0.926     0.034     2.528     2.487
    78   1 H        0.926     0.032     2.561     2.503
    79   1 H        0.926     0.027     2.636     2.539
    80   1 H        0.926     0.050     2.322     2.383
    81   1 H        0.926     0.029     2.604     2.524
    82   1 H        0.926     0.026     2.637     2.540
    83   1 H        0.926     0.029     2.596     2.520
    84   1 H        0.926     0.033     2.543     2.494
    85   1 H        0.926     0.027     2.631     2.537
    86   1 H        0.926     0.025     2.654     2.547
    87   1 H        0.926     0.026     2.641     2.541
    88   1 H        0.926     0.037     2.486     2.466
    89   1 H        0.926     0.037     2.484     2.465
    90   1 H        0.926     0.038     2.476     2.461
    91   1 H        0.926     0.032     2.553     2.498
    92   1 H        0.926     0.030     2.587     2.515
    93   1 H        0.926     0.033     2.539     2.492
    94   1 H        0.926     0.032     2.559     2.501
    95   1 H        0.926     0.030     2.589     2.516
    96   1 H        0.926     0.030     2.580     2.512
    97   1 H        0.926     0.028     2.610     2.526
    98   1 H        0.926     0.040     2.443     2.444
    99   1 H        0.926     0.037     2.491     2.468
   100   1 H        0.926     0.036     2.500     2.473
   101   1 H        0.926     0.037     2.486     2.466
   102   1 H        0.926     0.041     2.430     2.438
   103   1 H        0.926     0.042     2.419     2.432
   104   1 H        0.926     0.052     2.299     2.371
   105   1 H        0.926     0.036     2.502     2.473
   106   1 H        0.926     0.034     2.532     2.488
   107   1 H        0.926     0.032     2.556     2.500
   108   1 H        0.926     0.031     2.572     2.508
   109   1 H        0.926     0.031     2.574     2.509

molecular dipole:
                 x           y           z       tot (Debye)
 q only:        0.243      -1.655      -0.541
   full:        0.577      -1.979      -0.803       5.623

 projected vibrational frequencies (cm⁻¹)
eigval :       -0.00    -0.00    -0.00    -0.00     0.00     0.00
eigval :        4.57     6.18     8.16    11.71    14.96    17.58
eigval :       26.97    28.76    36.36    41.30    45.82    52.24
eigval :       53.30    61.28    62.15    68.35    71.59    74.67
eigval :       77.95    83.71    87.26    93.49   107.65   110.63
eigval :      121.97   125.56   138.99   159.96   162.54   178.18
eigval :      195.34   205.12   215.82   222.29   226.22   232.54
eigval :      236.05   250.33   254.64   259.39   266.86   270.02
eigval :      285.92   301.23   310.31   317.41   333.05   342.42
eigval :      353.55   365.44   373.72   378.22   379.63   380.48
eigval :      382.79   387.50   394.09   397.10   398.79   413.42
eigval :      415.05   423.88   426.10   433.43   438.27   444.74
eigval :      449.77   463.04   475.74   479.86   487.52   492.02
eigval :      508.80   517.80   523.24   534.69   535.18   538.47
eigval :      541.65   567.63   581.18   583.92   585.48   586.44
eigval :      592.42   593.13   601.20   602.65   606.79   612.58
eigval :      616.86   618.03   639.66   647.61   659.48   660.33
eigval :      663.77   666.42   669.67   673.54   678.12   680.86
eigval :      684.04   686.22   688.96   705.59   707.62   715.00
eigval :      722.90   735.39   749.61   756.91   757.01   763.77
eigval :      764.64   766.02   775.93   782.14   791.11   803.31
eigval :      805.86   825.53   831.88   844.76   861.54   868.42
eigval :      869.85   873.82   874.44   874.51   874.92   876.75
eigval :      882.92   891.69   892.49   892.73   896.30   900.11
eigval :      904.61   907.06   909.50   910.02   913.90   914.32
eigval :      914.62   916.39   921.25   922.82   923.41   924.66
eigval :      925.30   927.07   927.43   928.53   928.77   928.94
eigval :      929.80   931.62   933.62   934.33   940.47   965.39
eigval :      979.06   988.71   998.34  1005.00  1009.95  1019.07
eigval :     1022.38  1034.50  1071.16  1072.14  1080.46  1081.51
eigval :     1082.62  1083.45  1084.31  1086.40  1108.64  1118.11
eigval :     1122.04  1122.93  1124.38  1128.85  1134.43  1138.20
eigval :     1146.75  1153.12  1157.09  1174.79  1178.71  1180.74
eigval :     1180.82  1181.14  1182.59  1183.35  1186.19  1187.38
eigval :     1187.58  1195.15  1195.86  1201.68  1203.67  1206.14
eigval :     1217.10  1223.58  1242.30  1248.65  1256.00  1259.06
eigval :     1267.16  1269.39  1273.43  1275.12  1278.93  1280.15
eigval :     1284.50  1287.68  1291.21  1307.04  1313.32  1313.61
eigval :     1318.03  1318.87  1320.44  1322.73  1326.34  1327.29
eigval :     1330.44  1338.42  1339.35  1348.75  1350.92  1361.77
eigval :     1368.12  1372.79  1397.33  1407.73  1414.34  1415.26
eigval :     1421.07  1428.94  1431.38  1436.07  1436.39  1436.84
eigval :     1443.35  1447.89  1460.25  1466.42  1472.77  1476.93
eigval :     1482.65  1485.03  1493.89  1496.98  1514.48  1516.76
eigval :     1541.75  1554.24  1560.85  1565.12  1565.65  1570.50
eigval :     1574.64  1577.27  1581.16  1583.27  1584.00  1587.82
eigval :     1590.03  1595.11  1595.26  1596.30  1599.32  1599.67
eigval :     1604.46  1605.30  1615.51  3070.69  3074.09  3075.24
eigval :     3075.65  3076.07  3076.68  3076.97  3077.88  3078.22
eigval :     3079.46  3079.74  3080.17  3081.78  3081.89  3082.42
eigval :     3082.73  3082.93  3084.76  3085.02  3085.75  3086.54
eigval :     3088.24  3088.50  3089.51  3089.93  3090.34  3090.96
eigval :     3091.01  3091.72  3093.29  3094.47  3095.93  3097.01
eigval :     3097.22  3097.36  3097.62  3099.76  3099.99  3104.65
eigval :     3104.96  3109.86  3116.83

   temp. (K)  partition function   enthalpy   heat capacity  entropy
                                   cal/mol     cal/K/mol   cal/K/mol   J/K/mol
 298.15  VIB  0.167E+27            31288.722    196.595    198.368
         ROT  0.369E+09              888.752      2.981     42.181
         INT  0.616E+35            32177.474    199.576    240.550
         TR   0.242E+29             1481.254      4.968     46.094
         TOT                       33658.7279   204.5440   286.6435  1199.3162

       T/K    H(0)-H(T)+PV         H(T)/Eh          T*S/Eh         G(T)/Eh
   ------------------------------------------------------------------------
    298.15    0.536386E-01    0.895888E+00    0.136194E+00    0.759694E+00
   ------------------------------------------------------------------------

         :::::::::::::::::::::::::::::::::::::::::::::::::::::
         ::                  THERMODYNAMIC                  ::
         :::::::::::::::::::::::::::::::::::::::::::::::::::::
         :: total free energy        -167.351118900275 Eh   ::
         ::.................................................::
         :: total energy             -168.110813336132 Eh   ::
         :: zero point energy           0.842249393770 Eh   ::
         :: G(RRHO) w/o ZPVE           -0.082554957913 Eh   ::
         :: G(RRHO) contrib.            0.759694435857 Eh   ::
         :::::::::::::::::::::::::::::::::::::::::::::::::::::

           -------------------------------------------------
          | TOTAL ENERGY             -168.110813336132 Eh   |
          | TOTAL ENTHALPY           -167.214925345280 Eh   |
          | TOTAL FREE ENERGY        -167.351118900275 Eh   |
          | GRADIENT NORM               0.000032242903 Eh/α |
          | HOMO-LUMO GAP               2.402313744534 eV   |
           -------------------------------------------------

 * finished run on 2025/08/25 at 23:05:17.645
