   * xtb version 6.7.1 (edcfbbe) compiled by 'albert@albert-system' on 2024-07-22

   ID    Z sym.   atoms
    1    6 C      1-4, 6-20, 22-35, 37-53, 55-67
    2    7 N      5, 21, 36, 54
    3    1 H      68-109

          program call               : xtb data2507/gas/TPACzPI/TPACzPI_gas_S0_finalOpt.xtbopt.xyz --gfn 2 --spinpol --tblite --uhf 2 --ohess vtight --parallel 40 --molden --ceasefiles --namespace data2507/gas/TPACzPI/TPACzPI_gas_T1_preOpt
 * total energy  :  -168.0259359 Eh     change        0.1559303E-07 Eh
 * total energy  :  -168.0315499 Eh     change       -0.5614005E-02 Eh
 * total energy  :  -168.0350086 Eh     change       -0.3458656E-02 Eh
 * total energy  :  -168.0361029 Eh     change       -0.1094357E-02 Eh
 * total energy  :  -168.0374983 Eh     change       -0.1395378E-02 Eh
 * total energy  :  -168.0382514 Eh     change       -0.7530649E-03 Eh
 * total energy  :  -168.0387531 Eh     change       -0.5017320E-03 Eh
 * total energy  :  -168.0391364 Eh     change       -0.3833100E-03 Eh
 * total energy  :  -168.0394260 Eh     change       -0.2896221E-03 Eh
 * total energy  :  -168.0396037 Eh     change       -0.1776885E-03 Eh
 * total energy  :  -168.0404856 Eh     change       -0.1323517E-05 Eh
 * total energy  :  -168.0404865 Eh     change       -0.8868126E-06 Eh
 * total energy  :  -168.0404872 Eh     change       -0.6703648E-06 Eh
 * total energy  :  -168.0404877 Eh     change       -0.5170743E-06 Eh
 * total energy  :  -168.0404878 Eh     change       -0.1535263E-06 Eh
 * total energy  :  -168.0404880 Eh     change       -0.1614063E-06 Eh
 * total energy  :  -168.0404881 Eh     change       -0.4844111E-07 Eh
 * total energy  :  -168.0404882 Eh     change       -0.1170702E-06 Eh
 * total energy  :  -168.0404882 Eh     change       -0.5861608E-07 Eh
   *** GEOMETRY OPTIMIZATION CONVERGED AFTER 60 ITERATIONS ***

 final structure:
================
109
 xtb: 6.7.1 (edcfbbe)
C            7.00168403553879        4.50113774204001       -1.85980273241715
C            7.67484318688353        4.14412357420690       -0.70187052477829
C            7.12239607072151        3.23248738956539        0.17560461493214
C            5.88036989884791        2.65757054422238       -0.09899111080973
N            5.32146912627494        1.72620194376997        0.78379346966611
C            6.14771389328433        0.79096896598436        1.41640017692805
C            5.88506961889166        0.38342174972934        2.72516009427092
C            6.69973334273091       -0.54549135178338        3.34010538950907
C            7.79023089046635       -1.07680319515474        2.67024704441118
C            8.05713755120168       -0.67460151843215        1.37145589193944
C            7.24367583781965        0.24713807535895        0.74364808419432
C            3.94813441042768        1.71763667707556        1.00818924159875
C            3.26525021871513        0.51551495947498        1.25548315726744
C            1.91084367356971        0.50206246123818        1.43371974258827
C            1.13122217262580        1.68708447828434        1.38050870705748
C           -0.28491030842360        1.63714473626059        1.49383256964848
C           -1.13409565883993        2.70774977791934        1.06730795513901
C           -2.47735115383842        2.55701652827889        0.96445775991858
C           -3.10067093499784        1.30103933673707        1.24484225988808
C           -4.40930402298295        1.08081233738326        0.79795454011090
N           -5.29290172269780        2.06129291905023        0.56274094037417
C           -6.42573013233113        1.46806582182001        0.19368771150347
C           -7.67941948895577        2.08907383222662       -0.08042840071925
C           -7.83899021615413        3.46950689848102        0.06326895675746
C           -9.06447387286712        4.05466538846234       -0.15467876522129
C          -10.14568348798809        3.25513928756955       -0.51132682400466
C           -9.99655846222790        1.89349779654797       -0.66401190617765
C           -8.76020774680112        1.26356553763358       -0.46641307906973
C           -8.55644848047099       -0.16120142758585       -0.66809775119561
C           -9.57172533316272       -0.98069714594105       -1.16952325215205
C           -9.37742924754278       -2.32118914209151       -1.42130181295386
C           -8.12766862498075       -2.89663329321747       -1.20107516579053
C           -7.10567124458864       -2.13361333107507       -0.69959854514643
C           -7.29074244909507       -0.76987057257375       -0.39475384977186
C           -6.27008092789918        0.05792595698828        0.12146579150884
N           -4.98093765424508       -0.18134759836363        0.52484506324429
C           -4.24932122968537       -1.37461569443042        0.57091686878342
C           -4.68730707930992       -2.46647668317733        1.31849934317575
C           -3.87954452813352       -3.58400064654811        1.42015322768173
C           -2.62082695713371       -3.60226091011656        0.84309526676949
C           -2.16165958585234       -2.50777392255712        0.11175698764514
C           -0.77843337928604       -2.42919230549318       -0.37794801728694
C           -0.47839365857748       -1.80411869448270       -1.59567338551760
C            0.81909790257019       -1.62034030388081       -2.02596689698360
C            1.84833225262737       -2.07604904982679       -1.21435927489693
C            1.56718917474492       -2.70664824730236        0.01924924914801
C            0.25554991064603       -2.88654187271246        0.42934545789445
C            2.83546502397075       -2.99347670754010        0.62964767126944
C            3.20663251723239       -3.58753845308668        1.82837135622669
C            4.55112805039474       -3.71264970384647        2.11587336339743
C            5.51961057314305       -3.27113635899200        1.21752683415804
C            5.17534933548990       -2.67300522693060        0.02072287943569
C            3.82536976631763       -2.51825594763288       -0.26189686910710
N            3.21470568010120       -1.97023352090393       -1.37252792495392
C            3.87408002118221       -1.35573560485007       -2.44613430023283
C            3.55964468841885       -1.70140329628165       -3.75699380792910
C            4.21334230189554       -1.08447271384162       -4.80773652996682
C            5.18744807682195       -0.13067022800830       -4.56295921221499
C            5.50565936604542        0.21001978893014       -3.25872806313500
C            4.85000314204201       -0.39407027111696       -2.20248125178012
C           -3.00704475789672       -1.41754020294807       -0.05753320604858
C           -2.29370652016574        0.33126784945291        1.92199981540256
C           -0.95278994121715        0.49500810435290        2.02854762888078
C            1.84650097233188        2.89271492510021        1.16103155781067
C            3.20218421148715        2.90794741342664        0.98188938095570
C            5.20557570567986        3.02103880901136       -1.26582715955285
C            5.76606715408369        3.93652692573752       -2.13436133989112
H            7.43687752843050        5.21480053269820       -2.54249297136715
H            8.63457323243905        4.58505508609849       -0.47666359538399
H            7.64297834517182        2.96327308519428        1.08297676871562
H            5.04613297370273        0.80991590432598        3.25454416318743
H            6.48721377673584       -0.84973661495912        4.35401910809856
H            8.42848212367758       -1.79795195934529        3.15783480226573
H            8.90107425541877       -1.08804464381242        0.83892332504734
H            7.45073072580114        0.55009075917107       -0.27267507281405
H            3.81890581537998       -0.41156519090874        1.28073708167651
H            1.42190121082301       -0.44891058097130        1.56730962348791
H           -0.69076896183476        3.64432099012203        0.76739943195353
H           -3.10656085315712        3.34920164256180        0.59046869088230
H           -6.97691594959512        4.04797878379875        0.35677631941736
H           -9.19200402624729        5.12114181230177       -0.04326199102815
H          -11.11521893731518        3.70474955834011       -0.67164947337744
H          -10.86549285670924        1.31587262639092       -0.93706152733829
H          -10.54155058396154       -0.56136586448055       -1.38462258464580
H          -10.18832586056196       -2.92057158828790       -1.80770528835321
H           -7.96254251178575       -3.93899262479410       -1.43095300575464
H           -6.13362523123656       -2.57791626698650       -0.55917638283631
H           -5.64018731727060       -2.42402149269077        1.82512464112192
H           -4.22264664117622       -4.43721613169440        1.98681380400474
H           -1.99066244128324       -4.47120532751796        0.95868674500792
H           -1.28959629035522       -1.46288658934301       -2.22130691005448
H            1.02256159392283       -1.11699991914022       -2.95893762846407
H            0.04367219181497       -3.33904899576051        1.38654698545366
H            2.45581310923416       -3.94458666296297        2.51716196716418
H            4.86180857608173       -4.16750564459666        3.04447380050243
H            6.56351800122740       -3.39774592945310        1.46085430040478
H            5.93549681050782       -2.34385977802783       -0.67128239825582
H            2.81586316132912       -2.46140594028694       -3.94435903784060
H            3.96614448688285       -1.35628020046299       -5.82331045773537
H            5.69777832227458        0.34549684363416       -5.38643473820433
H            6.25867919164055        0.95952737559080       -3.06253123434456
H            5.07786805975043       -0.11962218542398       -1.18490065769693
H           -2.68068611712321       -0.56570241066585       -0.63413943204597
H           -2.77142234260345       -0.50973523343241        2.40118596619752
H           -0.37872848445652       -0.24306951309714        2.56781378644650
H            1.31897060575522        3.83332775571132        1.16702359243783
H            3.71720926671687        3.84687191674484        0.83550208098793
H            4.24961741128344        2.57128760101098       -1.48970621762472
H            5.23729411824358        4.20335846657115       -3.03737834971305

 projected vibrational frequencies (cm⁻¹)
eigval :       -0.00    -0.00    -0.00     0.00     0.00     0.00
eigval :       13.19    13.82    17.32    20.85    25.08    31.28
eigval :       36.14    42.59    45.86    51.88    56.46    57.16
eigval :       62.96    66.93    71.41    76.79    79.88    84.61
eigval :       85.93    90.68   104.61   108.58   113.00   117.43
eigval :      123.12   130.06   148.11   170.36   176.50   183.92
eigval :      192.73   198.30   217.91   221.74   230.82   238.12
eigval :      243.96   244.90   254.24   267.38   270.32   278.79
eigval :      288.09   304.22   315.60   318.39   327.48   329.23
eigval :      339.55   353.47   378.31   379.43   380.46   383.76
eigval :      389.07   389.99   394.11   398.40   399.42   407.10
eigval :      413.56   419.42   422.19   426.97   432.77   442.21
eigval :      448.16   450.19   463.96   476.79   480.15   486.08
eigval :      496.93   504.65   505.23   527.36   530.98   535.95
eigval :      538.72   563.54   578.34   580.78   582.96   585.55
eigval :      586.17   590.81   592.10   602.59   607.91   609.26
eigval :      609.62   612.90   616.86   633.30   647.43   658.11
eigval :      659.08   661.63   662.39   664.26   670.95   672.58
eigval :      673.60   675.95   682.76   684.08   704.77   708.86
eigval :      720.89   729.55   740.24   750.81   757.03   759.23
eigval :      761.26   763.97   774.48   776.89   787.29   794.21
eigval :      796.87   802.31   812.24   825.79   835.10   846.20
eigval :      857.26   868.22   869.70   873.06   875.44   876.13
eigval :      883.23   886.02   893.73   894.55   895.25   898.96
eigval :      900.35   902.37   902.72   904.08   907.62   909.84
eigval :      910.67   913.49   913.67   917.17   919.00   920.93
eigval :      922.94   923.37   924.06   926.10   927.86   929.65
eigval :      930.23   930.86   931.08   933.63   936.13   942.65
eigval :      962.28   976.97   988.91   999.30   999.90  1002.22
eigval :     1007.73  1023.88  1029.06  1059.22  1072.61  1081.28
eigval :     1082.04  1082.58  1083.24  1085.87  1095.09  1104.97
eigval :     1117.98  1122.62  1123.70  1125.11  1126.23  1128.90
eigval :     1138.84  1154.56  1156.61  1160.43  1170.32  1177.78
eigval :     1179.53  1180.40  1181.39  1181.46  1182.91  1183.87
eigval :     1185.94  1192.04  1194.01  1195.99  1200.40  1203.42
eigval :     1220.02  1223.33  1242.35  1243.21  1246.44  1253.61
eigval :     1255.99  1261.90  1266.73  1272.03  1275.69  1278.13
eigval :     1280.89  1281.30  1285.73  1291.53  1298.43  1309.99
eigval :     1312.07  1318.03  1318.85  1320.14  1321.99  1328.60
eigval :     1333.57  1335.92  1338.02  1340.51  1350.50  1358.10
eigval :     1363.01  1373.95  1379.88  1392.07  1405.73  1410.35
eigval :     1413.01  1421.32  1429.17  1432.52  1433.18  1436.33
eigval :     1437.41  1442.01  1446.48  1455.05  1464.34  1465.73
eigval :     1467.67  1470.29  1476.53  1482.32  1485.01  1490.22
eigval :     1492.40  1503.76  1520.15  1543.88  1546.06  1556.77
eigval :     1565.45  1567.57  1567.90  1571.54  1573.04  1576.75
eigval :     1583.24  1584.61  1584.91  1585.53  1588.78  1595.09
eigval :     1596.34  1598.44  1614.79  3071.54  3073.17  3075.19
eigval :     3075.38  3076.95  3077.04  3077.25  3078.95  3079.53
eigval :     3080.57  3080.69  3081.16  3081.98  3084.35  3084.40
eigval :     3085.53  3085.94  3086.05  3088.13  3088.40  3088.77
eigval :     3089.00  3090.49  3091.34  3091.54  3092.39  3092.74
eigval :     3093.44  3094.78  3095.30  3097.84  3098.28  3098.97
eigval :     3099.95  3100.49  3101.54  3105.44  3106.69  3108.11
eigval :     3116.15  3116.41  3116.99

   temp. (K)  partition function   enthalpy   heat capacity  entropy
                                   cal/mol     cal/K/mol   cal/K/mol   J/K/mol
 298.15  VIB  0.220E+24            31133.877    200.031    192.722
         ROT  0.187E+09              888.752      2.981     40.836
         INT  0.412E+32            32022.629    203.011    233.558
         TR   0.242E+29             1481.254      4.968     46.094
         TOT                       33503.8829   207.9796   279.6522  1170.0648

       T/K    H(0)-H(T)+PV         H(T)/Eh          T*S/Eh         G(T)/Eh
   ------------------------------------------------------------------------
    298.15    0.533918E-01    0.892815E+00    0.132872E+00    0.759943E+00
   ------------------------------------------------------------------------

         :::::::::::::::::::::::::::::::::::::::::::::::::::::
         ::                  THERMODYNAMIC                  ::
         :::::::::::::::::::::::::::::::::::::::::::::::::::::
         :: total free energy        -167.280545103849 Eh   ::
         ::.................................................::
         :: total energy             -168.040488307431 Eh   ::
         :: zero point energy           0.839423150460 Eh   ::
         :: G(RRHO) w/o ZPVE           -0.079479946878 Eh   ::
         :: G(RRHO) contrib.            0.759943203582 Eh   ::
         :::::::::::::::::::::::::::::::::::::::::::::::::::::

           -------------------------------------------------
          | TOTAL ENERGY             -168.040488307431 Eh   |
          | TOTAL ENTHALPY           -167.147673321075 Eh   |
          | TOTAL FREE ENERGY        -167.280545103849 Eh   |
          | GRADIENT NORM               0.000055886240 Eh/α |
           -------------------------------------------------

 * finished run on 2025/08/25 at 23:15:11.357
