   * xtb version 6.7.1 (edcfbbe) compiled by 'albert@albert-system' on 2024-07-22

   ID    Z sym.   atoms
    1    6 C      1-4, 6-20, 22-35, 37-53, 55-67
    2    7 N      5, 21, 36, 54
    3    1 H      68-109

          program call               : xtb data2507/gas/TPACzPI/TPACzPI_gas_T1_crest.xyz --gfn 2 --spinpol --tblite --uhf 2 --ohess vtight --parallel 40 --molden --ceasefiles --namespace data2507/gas/TPACzPI/TPACzPI_gas_T1_finalOpt
 * total energy  :  -168.0404716 Eh     change       -0.2756704E-07 Eh
 * total energy  :  -168.0404808 Eh     change       -0.9251494E-05 Eh
 * total energy  :  -168.0404844 Eh     change       -0.3609841E-05 Eh
 * total energy  :  -168.0404853 Eh     change       -0.8603921E-06 Eh
 * total energy  :  -168.0404861 Eh     change       -0.8476652E-06 Eh
 * total energy  :  -168.0404870 Eh     change       -0.8599338E-06 Eh
 * total energy  :  -168.0404879 Eh     change       -0.9241526E-06 Eh
 * total energy  :  -168.0404883 Eh     change       -0.3770540E-06 Eh
 * total energy  :  -168.0404885 Eh     change       -0.1537839E-06 Eh
 * total energy  :  -168.0404886 Eh     change       -0.1748793E-06 Eh
 * total energy  :  -168.0404888 Eh     change       -0.1726639E-06 Eh
 * total energy  :  -168.0404889 Eh     change       -0.1397100E-06 Eh
 * total energy  :  -168.0404890 Eh     change       -0.9679979E-07 Eh
   *** GEOMETRY OPTIMIZATION CONVERGED AFTER 13 ITERATIONS ***

 final structure:
================
109
 xtb: 6.7.1 (edcfbbe)
C            6.97281633201314        4.51506640574648       -1.87140173025352
C            7.66147470881752        4.14362617171624       -0.72719961387836
C            7.11975294777370        3.22286426348278        0.14743135569145
C            5.87302631607705        2.65305416225490       -0.11633575344582
N            5.32488689235989        1.71209545118603        0.76298391627319
C            6.15795101866874        0.76875314497735        1.37405251799361
C            5.91047108689195        0.34530575083176        2.68072630239398
C            6.73206570845759       -0.59103759606632        3.27482923410691
C            7.81456950861861       -1.11427961972202        2.58592514026663
C            8.06622952711198       -0.69656892076238        1.28898018794761
C            7.24569102678886        0.23274790834388        0.68191838193993
C            3.95439283594341        1.70231226341955        1.00439192676389
C            3.27237340710857        0.49790762433099        1.24278368410132
C            1.91979733840234        0.48389304825623        1.43450323690283
C            1.14135436298003        1.67060155802999        1.40496832784828
C           -0.27393363503981        1.62115696699163        1.52790773306458
C           -1.12411628169061        2.70001078033806        1.12454195056773
C           -2.46811941034405        2.55287250684122        1.02694126056144
C           -3.09173702333823        1.29321306894786        1.28978988233765
C           -4.40325704800599        1.08258536766059        0.84680233510606
N           -5.28582839485297        2.06853002276395        0.63119985503628
C           -6.42203076276446        1.48349500338587        0.25933405472122
C           -7.67538604562952        2.11160556986768        0.00019718342417
C           -7.83009470876857        3.49054769875251        0.16243603872717
C           -9.05478251740543        4.08212779610842       -0.04213511329034
C          -10.14018179322256        3.29045347922900       -0.40357055266739
C           -9.99596852129649        1.93044637661186       -0.57430346604210
C           -8.76053147246539        1.29436220166506       -0.39112067534811
C           -8.56191476653869       -0.12811440993021       -0.61302165491410
C           -9.58260851598011       -0.93826316665314       -1.11868509691175
C           -9.39319122645886       -2.27549709077865       -1.39059290022932
C           -8.14326470015057       -2.85675596991944       -1.18728201393824
C           -7.11616396873306       -2.10324903318720       -0.68187023723701
C           -7.29600920857766       -0.74358837156845       -0.35644448726129
C           -6.27019970618765        0.07428535723948        0.16541654344468
N           -4.97936480814274       -0.17395010114165        0.55782707557180
C           -4.24975347416998       -1.36916645259243        0.58050150642595
C           -4.68436006198270       -2.47146898489622        1.31457610914565
C           -3.87790200237940       -3.59177852704404        1.39357934068026
C           -2.62345601912798       -3.60348895966129        0.80713531080512
C           -2.16782969624766       -2.49899133183341        0.08881043393042
C           -0.78833544729624       -2.41571369644814       -0.41057536180105
C           -0.49728841354169       -1.77674739056067       -1.62322045423049
C            0.79700893659547       -1.58935345077848       -2.06154011417550
C            1.83202627524968       -2.05533772931425       -1.26323061716062
C            1.55991336331196       -2.69989765732176       -0.03482239724135
C            0.25132526885205       -2.88346575559016        0.38328899208391
C            2.83261336725519       -2.99486750639737        0.56231188134150
C            3.21257777858292       -3.60267289877368        1.75135862698086
C            4.55916037460390       -3.73207907755524        2.02694717956048
C            5.52102561149046       -3.28143165310991        1.12602556977631
C            5.16798811398897       -2.66955582620890       -0.06123501569015
C            3.81598852602013       -2.51035677165949       -0.33144370782186
N            3.19723591117940       -1.94905819733410       -1.43089562557736
C            3.84896122494419       -1.32156728603067       -2.50166346426864
C            3.52486607163981       -1.65066988842868       -3.81442042922714
C            4.17124936716840       -1.02082305573599       -4.86203387949557
C            5.14753273440754       -0.07051801975296       -4.61236941561183
C            5.47532499575074        0.25370560816876       -3.30631224433454
C            4.82703090985758       -0.36336240442028       -2.25304249879063
C           -3.01222966899494       -1.40474041005641       -0.05766527381068
C           -2.28232353246302        0.31135791633773        1.94632491652545
C           -0.94058449390789        0.47144366920233        2.04790579962621
C            1.85663557022342        2.87836315978509        1.19693505689522
C            3.21034145546841        2.89409478329337        1.00380386762430
C            5.18250702143884        3.03129383506324       -1.26922502854186
C            5.73236697378614        3.95583461540743       -2.13493980040893
H            7.39974749134050        5.23572085888654       -2.55196256211750
H            8.62510738879621        4.58027950878187       -0.51048245615399
H            7.65255881697702        2.94242942752698        1.04424500880850
H            5.07789506482335        0.76544646998816        3.22502228575163
H            6.53136977924286       -0.90747350383102        4.28742442848253
H            8.45838030409624       -1.84126042731985        3.05728523348178
H            8.90370327305165       -1.10371329407291        0.74159340543935
H            7.44090689938673        0.54776032238151       -0.33307690851845
H            3.82492232222134       -0.43014266287839        1.24952358183272
H            1.43089123730390       -0.46820853836020        1.55994894448725
H           -0.68122824407595        3.64093413898284        0.83793269345629
H           -3.09833439561036        3.35207490714753        0.66998231010155
H           -6.96482320864111        4.06267227118615        0.45894942546501
H           -9.17844448557954        5.14751918414612        0.08317409179665
H          -11.10911308262989        3.74497523747279       -0.55333750336029
H          -10.86800708984465        1.35896449826433       -0.85033908864717
H          -10.55294748737419       -0.51382457397049       -1.32105735799452
H          -10.20816159104399       -2.86758009383231       -1.77967172996961
H           -7.98213788329245       -3.89611240262069       -1.43304530643176
H           -6.14428034685906       -2.55171591352936       -0.55414584941360
H           -5.63351665067004       -2.43504860109355        1.82860529945930
H           -4.21839481486134       -4.45278642128669        1.94992521603756
H           -1.99383243557647       -4.47499133604354        0.90513659656291
H           -1.31311961523419       -1.42741607836224       -2.23829661348743
H            0.99376215040126       -1.07561465671306       -2.99027596823931
H            0.04623501001840       -3.34710658042799        1.33664253696647
H            2.46684392563446       -3.96680358842882        2.44196323866207
H            4.87667365904936       -4.19750753328084        2.94796637116952
H            6.56667390859046       -3.41163891906930        1.35976807373539
H            5.92299573455686       -2.33324466205817       -0.75541548108954
H            2.77941427926886       -2.40799585217465       -4.00593138615733
H            3.91659164861997       -1.27975026908229       -5.87912821533911
H            5.65207688678521        0.41578310638668       -5.43348432793199
H            6.22998814289388        1.00050662731647       -3.10617731355238
H            5.06220903224420       -0.10179711740839       -1.23372873978926
H           -2.68827878130770       -0.54481373460216       -0.62356240595469
H           -2.75854569610451       -0.53681133788250        2.41424119967181
H           -0.36457328759091       -0.27623255089033        2.57165761144441
H            1.33093826528843        3.81965250118891        1.22275397858426
H            3.72551755873066        3.83421645890586        0.86582982736959
H            4.22265633119552        2.58584118430864       -1.48486254622859
H            5.19138335255540        4.23397270934514       -3.02724758687855

 projected vibrational frequencies (cm⁻¹)
eigval :       -0.00    -0.00    -0.00     0.00     0.00     0.00
eigval :       12.84    13.66    17.15    20.71    24.93    31.17
eigval :       36.00    42.43    45.77    51.88    56.31    57.09
eigval :       62.77    66.80    71.22    76.63    79.81    84.51
eigval :       85.62    90.50   104.56   108.47   112.86   117.35
eigval :      123.15   130.01   148.04   170.18   176.35   183.75
eigval :      192.71   198.28   217.83   221.65   230.81   238.08
eigval :      243.89   244.83   254.26   267.23   270.13   278.71
eigval :      288.06   304.14   315.55   318.46   327.38   329.09
eigval :      339.48   353.37   378.24   379.33   380.33   383.69
eigval :      388.93   389.99   393.97   398.31   399.33   407.03
eigval :      413.47   419.44   422.16   426.90   432.75   442.12
eigval :      448.12   450.04   463.93   476.70   480.13   485.92
eigval :      496.82   504.61   505.07   527.28   531.07   535.90
eigval :      538.67   563.61   578.28   580.76   582.95   585.52
eigval :      586.15   590.78   592.06   602.61   607.91   609.24
eigval :      609.60   612.94   616.85   633.31   647.39   658.07
eigval :      659.02   661.60   662.37   664.27   670.93   672.51
eigval :      673.58   676.04   682.74   684.01   704.90   709.00
eigval :      721.16   729.54   740.36   750.82   756.81   758.96
eigval :      761.06   763.74   774.19   776.61   787.30   793.84
eigval :      796.70   801.86   811.78   825.54   834.43   846.26
eigval :      856.95   867.94   869.39   872.80   875.20   875.90
eigval :      882.99   885.82   893.53   894.30   895.02   898.74
eigval :      900.05   902.19   902.53   903.88   907.51   909.72
eigval :      910.37   913.22   913.43   916.89   918.70   920.64
eigval :      922.54   923.05   924.05   926.09   927.62   929.43
eigval :      929.88   930.55   930.81   933.36   935.95   942.75
eigval :      962.35   976.99   989.02   999.34   999.93  1002.19
eigval :     1007.74  1023.86  1028.99  1059.21  1072.49  1081.18
eigval :     1081.96  1082.54  1083.18  1085.79  1095.06  1104.90
eigval :     1117.73  1122.45  1123.49  1124.93  1126.05  1128.60
eigval :     1138.65  1154.28  1156.30  1160.19  1170.50  1177.38
eigval :     1179.08  1179.96  1180.95  1181.02  1182.68  1183.51
eigval :     1185.51  1191.72  1193.65  1195.67  1200.17  1203.09
eigval :     1220.11  1223.07  1242.15  1243.05  1246.33  1253.38
eigval :     1255.82  1261.77  1266.32  1271.84  1275.43  1277.93
eigval :     1280.96  1281.07  1285.56  1291.30  1298.30  1309.93
eigval :     1311.98  1317.88  1318.85  1320.13  1321.97  1328.61
eigval :     1333.55  1335.83  1337.97  1340.46  1350.47  1358.05
eigval :     1362.95  1373.88  1379.79  1391.83  1405.56  1410.17
eigval :     1412.91  1421.05  1429.05  1432.41  1433.09  1436.28
eigval :     1437.29  1441.97  1446.30  1455.00  1464.17  1465.62
eigval :     1467.61  1470.28  1476.44  1482.27  1484.98  1490.20
eigval :     1492.49  1503.84  1520.21  1544.04  1546.03  1556.72
eigval :     1565.52  1567.53  1567.88  1571.56  1573.04  1576.70
eigval :     1583.22  1584.61  1584.88  1585.56  1588.79  1595.11
eigval :     1596.32  1598.45  1614.83  3071.29  3072.90  3074.94
eigval :     3075.13  3076.67  3076.83  3077.07  3078.70  3079.28
eigval :     3080.35  3080.46  3080.90  3081.68  3084.07  3084.16
eigval :     3085.24  3085.65  3085.80  3088.01  3088.19  3088.52
eigval :     3088.80  3090.21  3091.11  3091.30  3092.12  3092.48
eigval :     3093.14  3094.54  3095.06  3097.39  3098.09  3098.73
eigval :     3099.75  3100.32  3101.34  3105.22  3106.52  3107.89
eigval :     3115.90  3116.21  3116.72

   temp. (K)  partition function   enthalpy   heat capacity  entropy
                                   cal/mol     cal/K/mol   cal/K/mol   J/K/mol
 298.15  VIB  0.242E+24            31143.292    200.038    192.839
         ROT  0.187E+09              888.752      2.981     40.835
         INT  0.453E+32            32032.044    203.019    233.675
         TR   0.242E+29             1481.254      4.968     46.094
         TOT                       33513.2979   207.9872   279.7686  1170.5519

       T/K    H(0)-H(T)+PV         H(T)/Eh          T*S/Eh         G(T)/Eh
   ------------------------------------------------------------------------
    298.15    0.534068E-01    0.892734E+00    0.132927E+00    0.759807E+00
   ------------------------------------------------------------------------

         :::::::::::::::::::::::::::::::::::::::::::::::::::::
         ::                  THERMODYNAMIC                  ::
         :::::::::::::::::::::::::::::::::::::::::::::::::::::
         :: total free energy        -167.280682077767 Eh   ::
         ::.................................................::
         :: total energy             -168.040488941142 Eh   ::
         :: zero point energy           0.839327124078 Eh   ::
         :: G(RRHO) w/o ZPVE           -0.079520260704 Eh   ::
         :: G(RRHO) contrib.            0.759806863374 Eh   ::
         :::::::::::::::::::::::::::::::::::::::::::::::::::::

           -------------------------------------------------
          | TOTAL ENERGY             -168.040488941142 Eh   |
          | TOTAL ENTHALPY           -167.147754977376 Eh   |
          | TOTAL FREE ENERGY        -167.280682077767 Eh   |
          | GRADIENT NORM               0.000066518654 Eh/α |
           -------------------------------------------------

 * finished run on 2025/08/25 at 23:24:21.497
