   * xtb version 6.7.1 (edcfbbe) compiled by 'albert@albert-system' on 2024-07-22

   ID    Z sym.   atoms
    1    6 C      1-4, 6-20, 22-35, 37-53, 55-67
    2    7 N      5, 21, 36, 54
    3    1 H      68-109

          program call               : xtb data2507/gas/TPACzPI/TPACzPI_gas_S0_crest.xyz --gfn 2 --ohess vtight --parallel 40 --molden --ceasefiles --namespace data2507/gas/TPACzPI/TPACzPI_gas_S0_finalOpt
          :  Hamiltonian                  GFN2-xTB          :
 * total energy  :  -168.1230401 Eh     change       -0.3506557E-08 Eh
 * total energy  :  -168.1230412 Eh     change       -0.1090088E-05 Eh
 * total energy  :  -168.1230422 Eh     change       -0.9756079E-06 Eh
 * total energy  :  -168.1230440 Eh     change       -0.1800666E-05 Eh
 * total energy  :  -168.1230450 Eh     change       -0.9466849E-06 Eh
 * total energy  :  -168.1230459 Eh     change       -0.9510748E-06 Eh
 * total energy  :  -168.1230471 Eh     change       -0.1228337E-05 Eh
 * total energy  :  -168.1230483 Eh     change       -0.1209788E-05 Eh
 * total energy  :  -168.1230495 Eh     change       -0.1132174E-05 Eh
 * total energy  :  -168.1230508 Eh     change       -0.1278573E-05 Eh
 * total energy  :  -168.1230545 Eh     change       -0.7583586E-06 Eh
 * total energy  :  -168.1230553 Eh     change       -0.8124880E-06 Eh
 * total energy  :  -168.1230560 Eh     change       -0.6680847E-06 Eh
 * total energy  :  -168.1230564 Eh     change       -0.4228243E-06 Eh
 * total energy  :  -168.1230568 Eh     change       -0.3541312E-06 Eh
 * total energy  :  -168.1230571 Eh     change       -0.3535079E-06 Eh
 * total energy  :  -168.1230575 Eh     change       -0.3758794E-06 Eh
 * total energy  :  -168.1230579 Eh     change       -0.3724325E-06 Eh
 * total energy  :  -168.1230579 Eh     change       -0.3536314E-08 Eh
   *** GEOMETRY OPTIMIZATION CONVERGED AFTER 22 ITERATIONS ***

 final structure:
================
109
 xtb: 6.7.1 (edcfbbe)
C            7.26358406955375        4.39432522973383       -1.74317793074200
C            7.85197831682524        4.02968455932907       -0.54305620538043
C            7.21928497580630        3.14246694844287        0.30566584132666
C            5.98296741995668        2.59795250504511       -0.04086419763659
N            5.34816950030816        1.68507778845560        0.81221452352504
C            6.11278453624816        0.72883598300743        1.49330887610247
C            5.77252350459891        0.33724644347531        2.78762970330412
C            6.52782278023426       -0.61007697172021        3.44979205622757
C            7.63831883591565       -1.17297226299986        2.84309677293899
C            7.98398448878135       -0.78493028734643        1.55950516858541
C            7.22730778223494        0.15225907336022        0.88404317273291
C            3.95805433267923        1.70948468051688        0.95203336278173
C            3.24251825925682        0.52847721755758        1.15080283558667
C            1.86890468075187        0.55168447316897        1.24804431559681
C            1.15634673848709        1.74520388965932        1.13852917607668
C           -0.30961939159672        1.72347951709327        1.15066261019721
C           -1.04033963825448        2.54677810617876        0.29478917370457
C           -2.41079911375307        2.42406894224697        0.19510604374741
C           -3.08878197820531        1.46817822450960        0.94761595323146
C           -4.49990908605956        1.22426332351149        0.66980330380088
N           -5.42639235301011        2.14057165502598        0.60036607378479
C           -6.57303189349463        1.48739851957509        0.26247195284106
C           -7.87640069515947        2.03606989674956        0.11318106539012
C           -8.11979574878159        3.39660761182737        0.32962220336298
C           -9.39271413433024        3.89807785815438        0.22396722774172
C          -10.44260276406721        3.03909406381328       -0.09573326179502
C          -10.21349974135691        1.70160902084764       -0.31892338340827
C           -8.92481403408815        1.15280183611451       -0.23295181235780
C           -8.64181145534396       -0.24459766150110       -0.50994250148077
C           -9.63914373413386       -1.12215972434087       -0.95888659584905
C           -9.36785250739982       -2.42993976970281       -1.28393584676910
C           -8.06697395907921       -2.91563092126102       -1.19638340790522
C           -7.06300628322451       -2.09258487668859       -0.74998077337716
C           -7.32650914377959       -0.76756625161474       -0.37348835593453
C           -6.32409834402457        0.12636527685693        0.09882978905470
N           -4.98504705123314       -0.03649814380660        0.37689732688597
C           -4.22066481758271       -1.21262171379500        0.48781703411510
C           -4.65315154459507       -2.25995781242991        1.29555282808748
C           -3.84067403378888       -3.36792556665790        1.45608889502210
C           -2.58400441689373       -3.40847264512571        0.88052613338501
C           -2.12393044545929       -2.34831587646228        0.10016339641369
C           -0.74005437685395       -2.30063601607604       -0.39094377429812
C           -0.42379895800793       -1.68073515076647       -1.60799542454460
C            0.87715129839575       -1.53299006461130       -2.04140307968584
C            1.89613455423447       -2.02496270507633       -1.23764323348542
C            1.59903043125108       -2.65582161192199       -0.00726711846303
C            0.28449666026550       -2.79326609023345        0.40888610088807
C            2.85927395697497       -2.98659864688364        0.59707202491364
C            3.21526938746557       -3.60165062368162        1.78996143320597
C            4.55601683910993       -3.76973558657796        2.07207936291986
C            5.53488347373179       -3.34989893941863        1.17451491209570
C            5.20580174888932       -2.73177839651366       -0.01619730820113
C            3.86041266116504       -2.53470367724416       -0.29370402496190
N            3.26332993838873       -1.95926807743984       -1.39848224519818
C            3.94034848489510       -1.34871253002923       -2.46427175652759
C            3.61639669107810       -1.66754754381865       -3.77943041597195
C            4.28823321444987       -1.05557439208612       -4.82173513772371
C            5.28988928710992       -0.13441013779785       -4.56365617758907
C            5.61739405325888        0.17906092772617       -3.25488730682058
C            4.94347490248540       -0.41926476907243       -2.20678128322624
C           -2.97821708996976       -1.27341991226168       -0.12799343557498
C           -2.37667906274603        0.71104488705913        1.87620773498599
C           -1.00701897673212        0.83738737506512        1.97185368324026
C            1.87780713472717        2.92572412607637        0.96645242394339
C            3.25412442709331        2.91290117853805        0.88399617531232
C            5.39479707021463        2.96804869044989       -1.25027531666597
C            6.03271690010642        3.86124336014965       -2.08908466750197
H            7.76026114430533        5.08930806222485       -2.40302508471113
H            8.80823564756644        4.44528936038057       -0.26131566288557
H            7.67661708543871        2.86552475562282        1.24429951047291
H            4.91635110618456        0.78536219489452        3.26988706186606
H            6.25262672839115       -0.90266907093681        4.45224379182391
H            8.23067168872296       -1.90720424708934        3.36787944588899
H            8.84542769630467       -1.22099521816519        1.07483080543271
H            7.49904659377783        0.44602334942598       -0.11980776149798
H            3.76967771811881       -0.41109988655841        1.22099226568547
H            1.33449139336166       -0.37771240085570        1.36999246383116
H           -0.52210026788478        3.25486546548332       -0.33494985340394
H           -2.97065304748843        3.03712720920788       -0.49486121010078
H           -7.28043294651665        4.02356565778077        0.58754458015152
H           -9.58597086228100        4.94731189053602        0.39245903119188
H          -11.44826862103617        3.42758475675294       -0.16979774510602
H          -11.05744609210002        1.07477489335675       -0.56019476068786
H          -10.65225227902834       -0.77053043277534       -1.06940681504551
H          -10.16288974141137       -3.07634032725990       -1.62578928211556
H           -7.84590237044850       -3.93315131613052       -1.48340268369979
H           -6.05153247647960       -2.46533687064114       -0.70706492424436
H           -5.61186273832046       -2.19898254811207        1.78871891609641
H           -4.18275754190818       -4.19474211912784        2.06079935069143
H           -1.95468096925515       -4.27205878658102        1.03383215780995
H           -1.22452057937101       -1.31465718468203       -2.23281646079208
H            1.09171640607748       -1.03054433930115       -2.97226503597886
H            0.06678472753735       -3.23993044203177        1.36736775304012
H            2.45572376381467       -3.94145693332271        2.47793427081251
H            4.85549891048055       -4.24127207233077        2.99594976089761
H            6.57488889881753       -3.50967297151494        1.41415556124182
H            5.97331393182377       -2.41941875064503       -0.70756015286682
H            2.85121215834814       -2.40334452160778       -3.97725878637828
H            4.03361367048371       -1.30614627227268       -5.84094869777328
H            5.81457462413661        0.33750654790803       -5.38053289394971
H            6.39200015194830        0.90288732018092       -3.04769459486823
H            5.17926821193582       -0.16423892110934       -1.18587887675748
H           -2.65430378180964       -0.44875550119401       -0.74367107018999
H           -2.89727824962592        0.01387771203123        2.51686218269339
H           -0.46665357817529        0.23834063195046        2.68966255738536
H            1.35548189251313        3.87002848256730        0.92121996860999
H            3.79632364065418        3.83940382576482        0.76307159626957
H            4.44077272914162        2.54606097053391       -1.53045338140422
H            5.56765229863068        4.13435221968387       -3.02501635672294

          :  Hamiltonian                  GFN2-xTB          :
         :: gradient norm              0.000042420264 Eh/a0 ::
         :: HOMO-LUMO gap              2.502650493785 eV    ::
         :: SCC energy              -171.317358653384 Eh    ::
         :: -> dispersion             -0.177373338241 Eh    ::
         :: repulsion energy           3.194300756512 Eh    ::

    * Orbital Energies and Occupations

         #    Occupation            Energy/Eh            Energy/eV
      -------------------------------------------------------------
         1        2.0000           -0.6810770             -18.5330
       ...           ...                  ...                  ...
       145        2.0000           -0.4067724             -11.0688
       146        2.0000           -0.4053423             -11.0299
       147        2.0000           -0.4050489             -11.0219
       148        2.0000           -0.4021241             -10.9424
       149        2.0000           -0.3985752             -10.8458
       150        2.0000           -0.3910670             -10.6415
       151        2.0000           -0.3894192             -10.5966
       152        2.0000           -0.3812038             -10.3731
       153        2.0000           -0.3751361             -10.2080
       154        2.0000           -0.3710058             -10.0956
       155        2.0000           -0.3639406              -9.9033
       156        2.0000           -0.3587171              -9.7612
       157        2.0000           -0.3499387              -9.5223 (HOMO)
       158                         -0.2579680              -7.0197 (LUMO)
       159                         -0.2516278              -6.8471
       160                         -0.2491778              -6.7805
       161                         -0.2452148              -6.6726
       162                         -0.2418852              -6.5820
       163                         -0.2363183              -6.4305
       164                         -0.2352690              -6.4020
       165                         -0.2332341              -6.3466
       166                         -0.2313437              -6.2952
       167                         -0.2295131              -6.2454
       168                         -0.2243892              -6.1059
       ...                                ...                  ...
       310                          0.7437895              20.2395
      -------------------------------------------------------------
                  HL-Gap            0.0919707 Eh            2.5027 eV

     #   Z          covCN         q      C6AA      α(0)
     1   6 C        2.919    -0.038    28.952     8.824
     2   6 C        2.920    -0.029    28.732     8.790
     3   6 C        2.922    -0.047    29.168     8.857
     4   6 C        2.924     0.065    26.534     8.447
     5   7 N        2.752    -0.077    22.736     7.082
     6   6 C        2.924     0.065    26.553     8.450
     7   6 C        2.923    -0.047    29.165     8.856
     8   6 C        2.920    -0.028    28.701     8.785
     9   6 C        2.919    -0.037    28.909     8.817
    10   6 C        2.920    -0.028    28.711     8.787
    11   6 C        2.923    -0.048    29.184     8.859
    12   6 C        2.923     0.063    26.590     8.456
    13   6 C        2.921    -0.050    29.244     8.868
    14   6 C        2.926    -0.035    28.863     8.810
    15   6 C        2.976     0.001    28.007     8.681
    16   6 C        2.977     0.011    27.762     8.643
    17   6 C        2.924    -0.034    28.851     8.809
    18   6 C        2.925    -0.029    28.720     8.788
    19   6 C        2.974     0.002    27.984     8.677
    20   6 C        3.197     0.130    24.681     8.099
    21   7 N        1.891    -0.290    28.373     7.897
    22   6 C        3.211     0.056    26.128     8.320
    23   6 C        2.986     0.003    27.952     8.673
    24   6 C        2.922    -0.031    28.783     8.798
    25   6 C        2.917    -0.031    28.763     8.795
    26   6 C        2.917    -0.033    28.832     8.805
    27   6 C        2.921    -0.035    28.873     8.812
    28   6 C        2.979    -0.002    28.067     8.690
    29   6 C        2.980     0.001    27.993     8.679
    30   6 C        2.922    -0.034    28.847     8.808
    31   6 C        2.916    -0.034    28.844     8.807
    32   6 C        2.917    -0.032    28.802     8.801
    33   6 C        2.919    -0.040    28.990     8.829
    34   6 C        2.978    -0.001    28.057     8.689
    35   6 C        3.072     0.019    27.507     8.599
    36   7 N        2.841    -0.046    22.120     6.985
    37   6 C        2.911     0.065    26.550     8.449
    38   6 C        2.921    -0.042    29.051     8.839
    39   6 C        2.918    -0.030    28.748     8.792
    40   6 C        2.924    -0.038    28.953     8.824
    41   6 C        2.976     0.014    27.696     8.632
    42   6 C        2.976    -0.002    28.073     8.691
    43   6 C        2.928    -0.037    28.916     8.819
    44   6 C        2.908    -0.050    29.246     8.868
    45   6 C        3.076     0.048    26.850     8.496
    46   6 C        3.066    -0.016    28.341     8.729
    47   6 C        2.919    -0.037    28.929     8.820
    48   6 C        3.068    -0.017    28.356     8.732
    49   6 C        2.912    -0.033    28.817     8.803
    50   6 C        2.920    -0.040    28.997     8.831
    51   6 C        2.924    -0.032    28.803     8.801
    52   6 C        2.910    -0.050    29.237     8.866
    53   6 C        3.078     0.049    26.829     8.492
    54   7 N        2.803    -0.042    22.042     6.973
    55   6 C        2.913     0.064    26.568     8.452
    56   6 C        2.922    -0.043    29.059     8.840
    57   6 C        2.920    -0.028    28.700     8.785
    58   6 C        2.919    -0.033    28.817     8.803
    59   6 C        2.920    -0.026    28.664     8.780
    60   6 C        2.923    -0.042    29.050     8.839
    61   6 C        2.930    -0.047    29.157     8.855
    62   6 C        2.921    -0.031    28.766     8.795
    63   6 C        2.924    -0.034    28.849     8.808
    64   6 C        2.923    -0.034    28.854     8.809
    65   6 C        2.921    -0.050    29.237     8.867
    66   6 C        2.922    -0.046    29.154     8.854
    67   6 C        2.920    -0.029    28.736     8.791
    68   1 H        0.926     0.031     2.578     2.511
    69   1 H        0.926     0.032     2.557     2.500
    70   1 H        0.926     0.032     2.555     2.499
    71   1 H        0.926     0.033     2.548     2.496
    72   1 H        0.926     0.032     2.555     2.500
    73   1 H        0.926     0.030     2.585     2.514
    74   1 H        0.926     0.031     2.578     2.511
    75   1 H        0.926     0.029     2.597     2.520
    76   1 H        0.926     0.031     2.573     2.508
    77   1 H        0.926     0.034     2.533     2.489
    78   1 H        0.926     0.036     2.506     2.476
    79   1 H        0.926     0.045     2.385     2.415
    80   1 H        0.926     0.050     2.317     2.380
    81   1 H        0.926     0.029     2.603     2.523
    82   1 H        0.926     0.027     2.635     2.538
    83   1 H        0.926     0.030     2.593     2.518
    84   1 H        0.926     0.033     2.543     2.494
    85   1 H        0.926     0.027     2.627     2.535
    86   1 H        0.926     0.026     2.644     2.543
    87   1 H        0.926     0.027     2.624     2.533
    88   1 H        0.926     0.041     2.440     2.443
    89   1 H        0.926     0.037     2.492     2.469
    90   1 H        0.926     0.038     2.477     2.461
    91   1 H        0.926     0.032     2.556     2.500
    92   1 H        0.926     0.030     2.589     2.516
    93   1 H        0.926     0.033     2.539     2.492
    94   1 H        0.926     0.031     2.574     2.509
    95   1 H        0.926     0.029     2.603     2.523
    96   1 H        0.926     0.030     2.581     2.513
    97   1 H        0.926     0.028     2.621     2.532
    98   1 H        0.926     0.040     2.447     2.446
    99   1 H        0.926     0.037     2.493     2.469
   100   1 H        0.926     0.036     2.507     2.476
   101   1 H        0.926     0.036     2.509     2.477
   102   1 H        0.926     0.044     2.401     2.423
   103   1 H        0.926     0.038     2.472     2.458
   104   1 H        0.926     0.027     2.628     2.535
   105   1 H        0.926     0.033     2.544     2.494
   106   1 H        0.926     0.035     2.518     2.481
   107   1 H        0.926     0.032     2.556     2.500
   108   1 H        0.926     0.032     2.562     2.503
   109   1 H        0.926     0.031     2.571     2.507

molecular dipole:
                 x           y           z       tot (Debye)
 q only:        1.686      -0.520      -0.421
   full:        1.697      -0.907      -0.527       5.070

 projected vibrational frequencies (cm⁻¹)
eigval :       -0.00    -0.00     0.00     0.00     0.00     0.00
eigval :       13.57    14.34    16.13    20.55    25.95    31.23
eigval :       38.12    41.35    46.30    50.93    56.25    57.20
eigval :       62.02    69.31    71.57    76.79    79.25    83.40
eigval :       89.10    89.54    95.56   103.51   110.71   120.89
eigval :      125.77   128.53   141.58   165.83   175.30   184.43
eigval :      185.13   202.33   216.92   220.69   230.40   239.51
eigval :      244.25   251.87   264.18   268.03   271.58   280.16
eigval :      287.59   311.69   317.47   327.98   331.47   335.50
eigval :      348.58   372.66   376.94   380.11   382.26   384.11
eigval :      385.92   390.44   395.58   398.87   401.40   414.05
eigval :      416.77   421.80   429.61   430.97   438.69   447.80
eigval :      451.75   464.16   477.29   481.18   487.97   491.61
eigval :      506.85   519.85   529.44   535.57   536.58   539.25
eigval :      546.31   563.55   580.96   584.58   585.22   586.39
eigval :      590.91   593.84   598.88   604.93   611.08   613.67
eigval :      617.37   617.45   637.72   644.98   658.36   660.62
eigval :      665.43   667.08   670.53   675.49   678.78   680.13
eigval :      683.78   685.17   692.31   705.27   708.08   713.86
eigval :      723.28   735.56   748.10   757.67   758.39   764.61
eigval :      765.37   767.58   774.66   782.95   794.95   800.74
eigval :      808.57   825.99   832.57   850.43   864.93   867.93
eigval :      868.72   874.49   875.06   875.94   877.15   879.61
eigval :      884.13   893.62   894.96   895.64   899.60   901.06
eigval :      904.53   908.50   909.56   909.66   913.42   914.71
eigval :      916.04   916.99   921.57   922.76   924.19   925.13
eigval :      926.87   927.28   928.68   929.33   930.70   931.53
eigval :      932.29   933.72   937.32   937.97   940.23   965.39
eigval :      978.46   988.46   999.28  1004.72  1009.70  1018.65
eigval :     1023.99  1034.80  1070.84  1072.75  1081.29  1081.91
eigval :     1083.93  1085.09  1085.21  1088.99  1107.77  1118.25
eigval :     1122.98  1124.65  1125.54  1127.06  1134.18  1137.05
eigval :     1149.94  1152.34  1158.48  1173.89  1178.24  1180.59
eigval :     1181.08  1181.86  1182.81  1183.83  1185.57  1188.59
eigval :     1189.74  1195.46  1197.13  1200.55  1204.31  1205.88
eigval :     1218.54  1224.74  1245.92  1249.06  1256.26  1263.33
eigval :     1267.95  1269.32  1275.65  1276.20  1279.56  1280.49
eigval :     1283.92  1285.18  1292.56  1304.31  1311.15  1313.25
eigval :     1316.99  1318.60  1318.61  1321.15  1325.97  1327.66
eigval :     1328.08  1337.04  1339.39  1346.31  1351.88  1361.90
eigval :     1366.65  1378.60  1395.81  1408.74  1409.15  1416.64
eigval :     1420.81  1426.35  1431.58  1435.13  1436.49  1437.58
eigval :     1442.33  1443.52  1463.81  1471.92  1472.95  1476.34
eigval :     1482.87  1485.31  1490.49  1500.01  1515.01  1519.58
eigval :     1549.57  1554.69  1562.00  1564.94  1565.99  1572.26
eigval :     1576.58  1577.59  1581.59  1583.19  1584.81  1586.55
eigval :     1589.46  1595.08  1595.31  1596.29  1599.26  1599.93
eigval :     1604.71  1606.37  1615.23  3070.89  3072.90  3074.28
eigval :     3074.93  3076.31  3077.44  3077.89  3078.30  3079.04
eigval :     3080.19  3080.46  3081.53  3081.83  3082.48  3083.41
eigval :     3083.71  3084.70  3086.50  3087.33  3087.65  3088.92
eigval :     3089.29  3089.88  3090.68  3091.58  3091.78  3092.55
eigval :     3093.74  3095.11  3095.53  3096.97  3097.06  3097.72
eigval :     3098.01  3098.40  3102.55  3102.89  3104.67  3105.16
eigval :     3106.14  3109.58  3116.35

   temp. (K)  partition function   enthalpy   heat capacity  entropy
                                   cal/mol     cal/K/mol   cal/K/mol   J/K/mol
 298.15  VIB  0.187E+24            30881.050    198.115    191.589
         ROT  0.187E+09              888.752      2.981     40.834
         INT  0.351E+32            31769.803    201.096    232.423
         TR   0.242E+29             1481.254      4.968     46.094
         TOT                       33251.0566   206.0643   278.5173  1165.3162

       T/K    H(0)-H(T)+PV         H(T)/Eh          T*S/Eh         G(T)/Eh
   ------------------------------------------------------------------------
    298.15    0.529889E-01    0.896406E+00    0.132333E+00    0.764074E+00
   ------------------------------------------------------------------------

         :::::::::::::::::::::::::::::::::::::::::::::::::::::
         ::                  THERMODYNAMIC                  ::
         :::::::::::::::::::::::::::::::::::::::::::::::::::::
         :: total free energy        -167.358984298143 Eh   ::
         ::.................................................::
         :: total energy             -168.123057896873 Eh   ::
         :: zero point energy           0.843417207301 Eh   ::
         :: G(RRHO) w/o ZPVE           -0.079343608571 Eh   ::
         :: G(RRHO) contrib.            0.764073598730 Eh   ::
         :::::::::::::::::::::::::::::::::::::::::::::::::::::

           -------------------------------------------------
          | TOTAL ENERGY             -168.123057896873 Eh   |
          | TOTAL ENTHALPY           -167.226651758056 Eh   |
          | TOTAL FREE ENERGY        -167.358984298143 Eh   |
          | GRADIENT NORM               0.000042420243 Eh/α |
          | HOMO-LUMO GAP               2.502650057344 eV   |
           -------------------------------------------------

 * finished run on 2025/08/25 at 23:14:47.118
