   * xtb version 6.7.1 (edcfbbe) compiled by 'albert@albert-system' on 2024-07-22

   ID    Z sym.   atoms
    1    7 N      1, 23, 26
    2    6 C      2-22, 24, 25, 27, 28
    3    1 H      29-43

          program call               : xtb data2507/toluene/PyDCN/PyDCN_toluene_S0_finalOpt.xtbopt.xyz --gfn 2 --uhf 2 --gbsa toluene --ohess vtight --parallel 40 --molden --ceasefiles --namespace data2507/toluene/PyDCN/PyDCN_toluene_T1_preOpt
      * Solvation model:               GBSA
        Solvent                        toluene
        Solvent mass                       9.2140E+01 g/mol
          :  Hamiltonian                  GFN2-xTB          :
 * total energy  :   -69.7888845 Eh     change       -0.7842260E-09 Eh
 * total energy  :   -69.7930407 Eh     change       -0.4156110E-02 Eh
 * total energy  :   -69.7948886 Eh     change       -0.1847909E-02 Eh
 * total energy  :   -69.7952276 Eh     change       -0.3390017E-03 Eh
 * total energy  :   -69.7956224 Eh     change       -0.3948311E-03 Eh
 * total energy  :   -69.7958200 Eh     change       -0.1976059E-03 Eh
 * total energy  :   -69.7959389 Eh     change       -0.1189290E-03 Eh
 * total energy  :   -69.7960553 Eh     change       -0.1163240E-03 Eh
 * total energy  :   -69.7961452 Eh     change       -0.8990854E-04 Eh
 * total energy  :   -69.7962403 Eh     change       -0.9515130E-04 Eh
 * total energy  :   -69.7967781 Eh     change       -0.1145976E-06 Eh
 * total energy  :   -69.7967801 Eh     change       -0.1961651E-05 Eh
 * total energy  :   -69.7967808 Eh     change       -0.6894758E-06 Eh
 * total energy  :   -69.7967803 Eh     change        0.4699937E-06 Eh
 * total energy  :   -69.7967815 Eh     change       -0.1225315E-05 Eh
 * total energy  :   -69.7967817 Eh     change       -0.2014829E-06 Eh
 * total energy  :   -69.7967819 Eh     change       -0.1631981E-06 Eh
 * total energy  :   -69.7967819 Eh     change       -0.2480246E-07 Eh
 * total energy  :   -69.7967819 Eh     change       -0.4514696E-07 Eh
   *** GEOMETRY OPTIMIZATION CONVERGED AFTER 31 ITERATIONS ***

 final structure:
================
43
 xtb: 6.7.1 (edcfbbe)
N           -6.69134841381374       -3.98399414698303        0.01279724221400
C           -5.75914659954023       -3.30490205178557        0.02327019436760
C           -4.62946949728136       -2.47978541344406        0.03807475875144
C           -3.35384852901526       -3.00615053340061       -0.25326536593832
C           -2.25727599949338       -2.19156303818836       -0.24348702185533
C           -2.36604637020245       -0.81144208864777        0.05712069844438
C           -1.17541322985775       -0.01107812702513        0.09060054386958
C           -1.19835292885526        1.41404245979220        0.10749039241612
C           -0.00158141760515        2.10866143335980        0.00080857888064
C           -0.00187226021566        3.58506931493877       -0.00028157710994
C           -0.90740244464542        4.28685939413924       -0.79086916160900
C           -0.90181950677077        5.67028169641666       -0.79433286169508
C           -0.00243647198484        6.36560081518993       -0.00274687699790
C            0.89717839831597        5.67203295411603        0.79010195974703
C            0.90340350094473        4.28860241049823        0.78903572861804
C            1.19696453955218        1.41445378312299       -0.10550422108913
C            1.17394365658457       -0.00972253921163       -0.08806813875250
C            2.36690569861961       -0.81002979638458       -0.05608233582483
C            3.64818877709145       -0.29572053755411       -0.35087955394333
C            4.75181539744080       -1.10664358665873       -0.35206847553104
C            4.63169636502397       -2.47433255385391       -0.03823924214947
C            5.76308521496875       -3.29824465272203       -0.02413311010091
N            6.69604816875290       -3.97584922599316       -0.01404522192174
C            3.35898414081028       -3.00094204706457        0.26193109513039
C            2.26079612465366       -2.18749433158969        0.25252118467791
N            0.00041984130054       -0.61186371648015        0.00221301872490
C           -3.65065489372746       -0.29749074596482        0.34272023679076
C           -4.75253492184049       -1.10979441656572        0.34371473382013
H           -3.25821259167437       -4.05871727916294       -0.47725646121408
H           -1.27695279563333       -2.58959765926560       -0.45772169502076
H           -2.14087377421027        1.93230022931391        0.10285636343116
H           -1.60064769998177        3.74912370299138       -1.42091985904742
H           -1.60390154771636        6.20638095938325       -1.41601320456779
H           -0.00267649574206        7.44556261162702       -0.00365485886509
H            1.59896958365493        6.20952302127607        1.41090763068212
H            1.59696000322261        3.75230679027846        1.41996648619682
H            2.13892106628520        1.93363563757679       -0.10010812918902
H            3.77115027047222        0.74722770341441       -0.59622780112582
H            5.72758176454019       -0.70674378820700       -0.58669347192091
H            3.26564030614908       -4.05222733788942        0.49267877514319
H            1.28229461396165       -2.58579690099650        0.47432707684949
H           -3.77648189983463        0.74689597755419        0.58034173233902
H           -5.73009950851949       -0.71009819252866        0.57117168910615

          :  Hamiltonian                  GFN2-xTB          :
         :: gradient norm              0.000109159245 Eh/a0 ::
         :: HOMO-LUMO gap              0.025964177433 eV    ::
         :: SCC energy               -71.168616309245 Eh    ::
         :: -> dispersion             -0.051564476611 Eh    ::
         :: -> Gsolv                  -0.041112168380 Eh    ::
         :: repulsion energy           1.371834366492 Eh    ::

    * Orbital Energies and Occupations

         #    Occupation            Energy/Eh            Energy/eV
      -------------------------------------------------------------
         1        2.0000           -0.6885383             -18.7361
       ...           ...                  ...                  ...
        54        2.0000           -0.4382440             -11.9252
        55        2.0000           -0.4354055             -11.8480
        56        2.0000           -0.4316930             -11.7470
        57        2.0000           -0.4276972             -11.6382
        58        2.0000           -0.4273677             -11.6293
        59        2.0000           -0.4222183             -11.4891
        60        2.0000           -0.4216077             -11.4725
        61        2.0000           -0.4170555             -11.3487
        62        2.0000           -0.4161283             -11.3234
        63        2.0000           -0.4108420             -11.1796
        64        1.9677           -0.4023665             -10.9490
        65        1.0323           -0.3959052             -10.7731
        66        0.6229           -0.3000550              -8.1649 (HOMO)
        67        0.3771           -0.2991011              -8.1390 (LUMO)
        68                         -0.2599033              -7.0723
        69                         -0.2411298              -6.5615
        70                         -0.2395678              -6.5190
        71                         -0.2385873              -6.4923
        72                         -0.2351083              -6.3976
        73                         -0.2247341              -6.1153
        74                         -0.2084058              -5.6710
        75                         -0.2079706              -5.6592
        76                         -0.1802215              -4.9041
        77                         -0.1578793              -4.2961
       ...                                ...                  ...
       127                          1.1565094              31.4702
      -------------------------------------------------------------
                  HL-Gap            0.0009539 Eh            0.0260 eV

     #   Z          covCN         q      C6AA      α(0)
     1   7 N        0.911    -0.297    27.644     7.604
     2   6 C        1.911     0.111    28.361     8.601
     3   6 C        2.970     0.010    27.800     8.649
     4   6 C        2.918    -0.021    28.533     8.759
     5   6 C        2.921    -0.026    28.645     8.777
     6   6 C        2.975     0.007    27.858     8.658
     7   6 C        2.921     0.090    25.993     8.361
     8   6 C        2.922    -0.050    29.241     8.868
     9   6 C        2.972     0.028    27.375     8.582
    10   6 C        2.980     0.013    27.716     8.636
    11   6 C        2.923    -0.032    28.790     8.799
    12   6 C        2.919    -0.026    28.663     8.779
    13   6 C        2.919    -0.028    28.690     8.784
    14   6 C        2.919    -0.026    28.664     8.780
    15   6 C        2.923    -0.032    28.789     8.799
    16   6 C        2.922    -0.051    29.256     8.870
    17   6 C        2.921     0.091    25.974     8.358
    18   6 C        2.976     0.007    27.850     8.656
    19   6 C        2.917    -0.030    28.758     8.794
    20   6 C        2.920    -0.021    28.537     8.760
    21   6 C        2.970     0.010    27.787     8.647
    22   6 C        1.911     0.111    28.353     8.599
    23   7 N        0.911    -0.295    27.610     7.600
    24   6 C        2.919    -0.021    28.528     8.759
    25   6 C        2.921    -0.025    28.639     8.776
    26   7 N        1.862    -0.158    25.205     7.441
    27   6 C        2.916    -0.031    28.765     8.795
    28   6 C        2.920    -0.021    28.541     8.761
    29   1 H        0.926     0.042     2.417     2.431
    30   1 H        0.926     0.054     2.275     2.358
    31   1 H        0.926     0.065     2.141     2.288
    32   1 H        0.926     0.041     2.437     2.441
    33   1 H        0.926     0.040     2.443     2.444
    34   1 H        0.926     0.040     2.451     2.448
    35   1 H        0.926     0.040     2.442     2.444
    36   1 H        0.926     0.041     2.436     2.441
    37   1 H        0.926     0.065     2.141     2.288
    38   1 H        0.926     0.052     2.294     2.368
    39   1 H        0.926     0.042     2.425     2.435
    40   1 H        0.926     0.043     2.412     2.428
    41   1 H        0.926     0.054     2.271     2.356
    42   1 H        0.926     0.052     2.299     2.371
    43   1 H        0.926     0.041     2.431     2.438

molecular dipole:
                 x           y           z       tot (Debye)
 q only:        0.043       3.645      -0.000
   full:        0.042       4.293      -0.001      10.913

 projected vibrational frequencies (cm⁻¹)
eigval :       -0.00    -0.00    -0.00     0.00     0.00     0.00
eigval :      -39.62    28.15    33.97    39.76    46.10    47.56
eigval :       59.17    74.17   106.14   131.14   132.56   138.36
eigval :      178.99   200.36   207.08   210.39   228.71   260.29
eigval :      262.75   333.89   345.47   352.90   362.83   368.76
eigval :      374.54   385.47   440.94   462.36   490.19   497.22
eigval :      500.36   512.44   524.45   535.59   543.83   546.97
eigval :      552.26   586.40   596.22   606.88   608.45   618.37
eigval :      659.07   660.73   666.29   726.05   741.66   746.71
eigval :      755.56   763.34   800.49   801.96   805.98   830.08
eigval :      831.75   863.45   870.22   900.14   902.45   903.54
eigval :      904.61   911.10   912.14   929.15   929.89   972.90
eigval :      986.47   989.39  1038.59  1081.42  1088.04  1092.92
eigval :     1095.85  1119.41  1131.68  1148.90  1180.08  1184.82
eigval :     1192.31  1195.65  1222.57  1226.24  1237.57  1242.57
eigval :     1260.68  1263.20  1276.96  1314.87  1319.17  1320.69
eigval :     1351.87  1362.08  1367.96  1416.21  1426.54  1428.94
eigval :     1430.18  1439.17  1441.65  1456.15  1462.09  1470.41
eigval :     1524.51  1571.03  1575.37  1585.01  2270.16  2301.47
eigval :     3074.26  3075.38  3080.39  3081.09  3081.96  3084.47
eigval :     3084.86  3086.32  3093.72  3093.88  3094.39  3100.23
eigval :     3100.57  3124.55  3125.12

   temp. (K)  partition function   enthalpy   heat capacity  entropy
                                   cal/mol     cal/K/mol   cal/K/mol   J/K/mol
 298.15  VIB  0.117E+10            12781.133     81.480     78.169
         ROT  0.128E+08              888.752      2.981     35.501
         INT  0.149E+17            13669.885     84.461    113.670
         TR   0.654E+28             1481.254      4.968     43.495
         TOT                       15151.1391    89.4293   157.1648   657.5776

       T/K    H(0)-H(T)+PV         H(T)/Eh          T*S/Eh         G(T)/Eh
   ------------------------------------------------------------------------
    298.15    0.241449E-01    0.333506E+00    0.746741E-01    0.258832E+00
   ------------------------------------------------------------------------

         :::::::::::::::::::::::::::::::::::::::::::::::::::::
         ::                  THERMODYNAMIC                  ::
         :::::::::::::::::::::::::::::::::::::::::::::::::::::
         :: total free energy         -69.537950151985 Eh   ::
         ::.................................................::
         :: total energy              -69.796781936047 Eh   ::
         :: zero point energy           0.309360987128 Eh   ::
         :: G(RRHO) w/o ZPVE           -0.050529203066 Eh   ::
         :: G(RRHO) contrib.            0.258831784062 Eh   ::
         :::::::::::::::::::::::::::::::::::::::::::::::::::::

           -------------------------------------------------
          | TOTAL ENERGY              -69.796781936047 Eh   |
          | TOTAL ENTHALPY            -69.463276071924 Eh   |
          | TOTAL FREE ENERGY         -69.537950151985 Eh   |
          | GRADIENT NORM               0.000107993886 Eh/α |
          | HOMO-LUMO GAP               0.025958065284 eV   |
           -------------------------------------------------

 * finished run on 2025/09/05 at 02:02:14.073
