   * xtb version 6.7.1 (edcfbbe) compiled by 'albert@albert-system' on 2024-07-22

   ID    Z sym.   atoms
    1    7 N      1, 23, 26
    2    6 C      2-22, 24, 25, 27, 28
    3    1 H      29-43

          program call               : xtb data2507/toluene/PyDCN/PyDCN_toluene_S0_crest.xyz --gfn 2 --gbsa toluene --ohess vtight --parallel 40 --molden --ceasefiles --namespace data2507/toluene/PyDCN/PyDCN_toluene_S0_finalOpt
      * Solvation model:               GBSA
        Solvent                        toluene
        Solvent mass                       9.2140E+01 g/mol
          :  Hamiltonian                  GFN2-xTB          :
 * total energy  :   -69.8941092 Eh     change       -0.8912338E-09 Eh
 * total energy  :   -69.8941243 Eh     change       -0.1513109E-04 Eh
 * total energy  :   -69.8941145 Eh     change        0.9784479E-05 Eh
 * total energy  :   -69.8941272 Eh     change       -0.1268570E-04 Eh
 * total energy  :   -69.8941295 Eh     change       -0.2283764E-05 Eh
 * total energy  :   -69.8941311 Eh     change       -0.1648830E-05 Eh
 * total energy  :   -69.8941313 Eh     change       -0.1944912E-06 Eh
 * total energy  :   -69.8941339 Eh     change       -0.2571835E-05 Eh
 * total energy  :   -69.8941357 Eh     change       -0.1830133E-05 Eh
 * total energy  :   -69.8941375 Eh     change       -0.1748005E-05 Eh
 * total energy  :   -69.8941459 Eh     change       -0.9652726E-06 Eh
 * total energy  :   -69.8941469 Eh     change       -0.9445751E-06 Eh
 * total energy  :   -69.8941477 Eh     change       -0.7576891E-06 Eh
 * total energy  :   -69.8941481 Eh     change       -0.4951569E-06 Eh
 * total energy  :   -69.8941484 Eh     change       -0.2754306E-06 Eh
 * total energy  :   -69.8941469 Eh     change        0.1549737E-05 Eh
 * total energy  :   -69.8941486 Eh     change       -0.1721699E-05 Eh
 * total energy  :   -69.8941486 Eh     change        0.2609880E-08 Eh
 * total energy  :   -69.8941486 Eh     change       -0.1889751E-07 Eh
   *** GEOMETRY OPTIMIZATION CONVERGED AFTER 23 ITERATIONS ***

 final structure:
================
43
 xtb: 6.7.1 (edcfbbe)
N           -6.73990685131118       -3.91127737791783       -0.01167023372150
C           -5.79878895134787       -3.25360312527956       -0.00548667262535
C           -4.64321584304863       -2.44262163995462        0.00099002620285
C           -3.45505150206303       -2.91160961635049       -0.56547740480054
C           -2.33219536925427       -2.11238938166391       -0.55348636552825
C           -2.36893402955194       -0.83595366954818        0.01085728586088
C           -1.14865177520466       -0.01381932875121        0.00177160525875
C           -1.19397717134261        1.37919103091885       -0.01688701748382
C           -0.00066599999021        2.09684520611217       -0.00445947729816
C           -0.00126879821545        3.56772810113359       -0.00291205981538
C           -0.87095044479630        4.27495633251473       -0.82979331507321
C           -0.86673468300214        5.65789836675338       -0.83039549360516
C           -0.00343487165705        6.35200522448579        0.00169366356928
C            0.86104321519098        5.65650848246076        0.83139147756170
C            0.86742215103617        4.27358571747422        0.82619255524138
C            1.19297621370239        1.37975563278562        0.00764203897586
C            1.14819812560537       -0.01328617111201       -0.01065251082264
C            2.36909128236184       -0.83455565382901       -0.01664764494449
C            3.55747252098020       -0.37915563803398       -0.58795706076134
C            4.68813486827722       -1.16983837594856       -0.57972120202288
C            4.64579986748600       -2.43752208030799        0.00494682476274
C            5.80310659623426       -3.24592765785714        0.01892588362354
N            6.74578799970356       -3.90126657505475        0.03164346295698
C            3.45698903812463       -2.90629089375046        0.57023060246037
C            2.33289365794369       -2.10893566962008        0.55233885349932
N           -0.00005031610660       -0.68247571753305       -0.00434210770468
C           -3.55693916246066       -0.37992865086728        0.58247598744728
C           -4.68636354065939       -1.17239650905639        0.58003139511521
H           -3.42602302342998       -3.89687809757284       -1.00710197377660
H           -1.40595998419043       -2.46101562039228       -0.98305984772145
H           -2.13784794318344        1.89986781475489       -0.03756853452431
H           -1.53563505984872        3.73766149010159       -1.49099270617321
H           -1.53955454039812        6.19621119184912       -1.48206947506726
H           -0.00442977215076        7.43206538964885        0.00363436934239
H            1.53292287658653        6.19370044756202        1.48496018193419
H            1.53291349876328        3.73515141623084        1.48565361770507
H            2.13668847425539        1.90072070829799        0.02863114888939
H            3.59626189701413        0.58976404494848       -1.06193518155746
H            5.60725721664135       -0.81820152124698       -1.02525912951473
H            3.42855330011029       -3.88973640252177        1.01594368921168
H            1.40625326482077       -2.45717854267012        0.98135019769124
H           -3.59634186627008        0.59085626515636        1.05254872149763
H           -5.60504040945490       -0.82027278774922        1.02610444053472

          :  Hamiltonian                  GFN2-xTB          :
         :: gradient norm              0.000112197500 Eh/a0 ::
         :: HOMO-LUMO gap              2.429958947444 eV    ::
         :: SCC energy               -71.278641076736 Eh    ::
         :: -> dispersion             -0.051535754313 Eh    ::
         :: -> Gsolv                  -0.038441188490 Eh    ::
         :: repulsion energy           1.384492467811 Eh    ::

    * Orbital Energies and Occupations

         #    Occupation            Energy/Eh            Energy/eV
      -------------------------------------------------------------
         1        2.0000           -0.6756215             -18.3846
       ...           ...                  ...                  ...
        53        2.0000           -0.4404603             -11.9855
        54        2.0000           -0.4390358             -11.9468
        55        2.0000           -0.4352668             -11.8442
        56        2.0000           -0.4295605             -11.6889
        57        2.0000           -0.4289249             -11.6716
        58        2.0000           -0.4283118             -11.6550
        59        2.0000           -0.4283064             -11.6548
        60        2.0000           -0.4267230             -11.6117
        61        2.0000           -0.4195433             -11.4164
        62        2.0000           -0.4142558             -11.2725
        63        2.0000           -0.4057631             -11.0414
        64        2.0000           -0.4040658             -10.9952
        65        2.0000           -0.3797506             -10.3335 (HOMO)
        66                         -0.2904512              -7.9036 (LUMO)
        67                         -0.2901037              -7.8941
        68                         -0.2610582              -7.1038
        69                         -0.2448556              -6.6629
        70                         -0.2447038              -6.6587
        71                         -0.2367643              -6.4427
        72                         -0.2323115              -6.3215
        73                         -0.2197463              -5.9796
        74                         -0.2151756              -5.8552
        75                         -0.2151567              -5.8547
        76                         -0.1795794              -4.8866
       ...                                ...                  ...
       127                          1.1569444              31.4821
      -------------------------------------------------------------
                  HL-Gap            0.0892994 Eh            2.4300 eV

     #   Z          covCN         q      C6AA      α(0)
     1   7 N        0.911    -0.270    26.977     7.512
     2   6 C        1.912     0.119    28.170     8.572
     3   6 C        2.974     0.018    27.605     8.618
     4   6 C        2.924    -0.017    28.436     8.745
     5   6 C        2.924    -0.022    28.563     8.764
     6   6 C        2.980     0.016    27.653     8.626
     7   6 C        2.951     0.093    25.936     8.353
     8   6 C        2.922    -0.052    29.282     8.874
     9   6 C        2.981     0.028    27.377     8.583
    10   6 C        2.977     0.007    27.849     8.656
    11   6 C        2.924    -0.032    28.794     8.800
    12   6 C        2.918    -0.028    28.707     8.786
    13   6 C        2.920    -0.028    28.701     8.785
    14   6 C        2.918    -0.028    28.706     8.786
    15   6 C        2.924    -0.032    28.794     8.800
    16   6 C        2.922    -0.052    29.282     8.874
    17   6 C        2.951     0.093    25.936     8.353
    18   6 C        2.980     0.016    27.653     8.626
    19   6 C        2.921    -0.029    28.714     8.787
    20   6 C        2.924    -0.018    28.464     8.749
    21   6 C        2.974     0.018    27.605     8.618
    22   6 C        1.912     0.119    28.170     8.572
    23   7 N        0.911    -0.270    26.977     7.512
    24   6 C        2.924    -0.017    28.436     8.745
    25   6 C        2.924    -0.022    28.563     8.764
    26   7 N        1.854    -0.255    27.493     7.771
    27   6 C        2.921    -0.029    28.714     8.787
    28   6 C        2.924    -0.018    28.464     8.749
    29   1 H        0.926     0.048     2.340     2.392
    30   1 H        0.926     0.063     2.165     2.301
    31   1 H        0.926     0.046     2.374     2.410
    32   1 H        0.926     0.036     2.503     2.474
    33   1 H        0.926     0.037     2.495     2.470
    34   1 H        0.926     0.036     2.497     2.471
    35   1 H        0.926     0.037     2.496     2.470
    36   1 H        0.926     0.036     2.503     2.474
    37   1 H        0.926     0.046     2.375     2.410
    38   1 H        0.926     0.051     2.308     2.376
    39   1 H        0.926     0.047     2.354     2.399
    40   1 H        0.926     0.048     2.340     2.392
    41   1 H        0.926     0.063     2.166     2.301
    42   1 H        0.926     0.051     2.308     2.376
    43   1 H        0.926     0.047     2.354     2.399

molecular dipole:
                 x           y           z       tot (Debye)
 q only:       -0.002       2.425      -0.007
   full:       -0.003       3.275      -0.009       8.323

 projected vibrational frequencies (cm⁻¹)
eigval :       -0.00    -0.00    -0.00     0.00     0.00     0.00
eigval :       26.84    31.06    37.43    43.45    43.95    51.41
eigval :       65.59    82.36   101.36   125.83   136.68   143.18
eigval :      170.81   205.12   223.58   234.77   260.12   272.41
eigval :      273.81   336.94   352.17   363.11   364.40   369.77
eigval :      420.39   424.92   455.36   509.97   523.23   525.97
eigval :      532.64   535.94   537.69   555.69   584.20   597.81
eigval :      605.02   606.11   618.16   620.58   671.20   686.54
eigval :      699.60   715.72   735.32   758.37   771.21   814.87
eigval :      821.13   841.46   841.57   866.23   868.06   869.03
eigval :      875.39   885.22   905.41   916.40   917.94   924.84
eigval :      929.75   931.17   934.90   971.90   996.77  1010.98
eigval :     1012.99  1075.93  1086.61  1108.92  1119.90  1128.12
eigval :     1134.65  1145.75  1182.37  1186.66  1186.94  1198.90
eigval :     1217.50  1223.41  1241.53  1244.86  1261.93  1262.69
eigval :     1278.80  1291.45  1315.07  1316.52  1317.94  1355.76
eigval :     1383.50  1384.52  1398.96  1423.39  1429.89  1475.85
eigval :     1476.55  1481.77  1530.22  1548.16  1551.09  1559.70
eigval :     1580.96  1585.46  1585.61  1596.72  2360.70  2361.37
eigval :     3071.86  3071.94  3078.83  3083.37  3083.88  3083.90
eigval :     3086.41  3086.52  3092.50  3096.23  3096.30  3102.79
eigval :     3102.89  3105.71  3106.24

   temp. (K)  partition function   enthalpy   heat capacity  entropy
                                   cal/mol     cal/K/mol   cal/K/mol   J/K/mol
 298.15  VIB  0.339E+10            12726.270     79.043     79.085
         ROT  0.128E+08              888.752      2.981     35.499
         INT  0.433E+17            13615.023     82.024    114.584
         TR   0.654E+28             1481.254      4.968     43.495
         TOT                       15096.2765    86.9917   158.0785   661.4004

       T/K    H(0)-H(T)+PV         H(T)/Eh          T*S/Eh         G(T)/Eh
   ------------------------------------------------------------------------
    298.15    0.240574E-01    0.340927E+00    0.751082E-01    0.265819E+00
   ------------------------------------------------------------------------

         :::::::::::::::::::::::::::::::::::::::::::::::::::::
         ::                  THERMODYNAMIC                  ::
         :::::::::::::::::::::::::::::::::::::::::::::::::::::
         :: total free energy         -69.628329436057 Eh   ::
         ::.................................................::
         :: total energy              -69.894148611921 Eh   ::
         :: zero point energy           0.316869923402 Eh   ::
         :: G(RRHO) w/o ZPVE           -0.051050747538 Eh   ::
         :: G(RRHO) contrib.            0.265819175863 Eh   ::
         :::::::::::::::::::::::::::::::::::::::::::::::::::::

           -------------------------------------------------
          | TOTAL ENERGY              -69.894148611921 Eh   |
          | TOTAL ENTHALPY            -69.553221240572 Eh   |
          | TOTAL FREE ENERGY         -69.628329436057 Eh   |
          | GRADIENT NORM               0.000112242047 Eh/α |
          | HOMO-LUMO GAP               2.429959664609 eV   |
           -------------------------------------------------

 * finished run on 2025/09/05 at 02:02:11.776
