   * xtb version 6.7.1 (edcfbbe) compiled by 'albert@albert-system' on 2024-07-22

   ID    Z sym.   atoms
    1    7 N      1, 23, 26
    2    6 C      2-22, 24, 25, 27, 28
    3    1 H      29-43

          program call               : xtb data2507/toluene/PyDCN/PyDCN_toluene_T1_crest.xyz --gfn 2 --uhf 2 --gbsa toluene --ohess vtight --parallel 40 --molden --ceasefiles --namespace data2507/toluene/PyDCN/PyDCN_toluene_T1_finalOpt
      * Solvation model:               GBSA
        Solvent                        toluene
        Solvent mass                       9.2140E+01 g/mol
          :  Hamiltonian                  GFN2-xTB          :
 * total energy  :   -69.7970362 Eh     change       -0.1990578E-07 Eh
 * total energy  :   -69.7970623 Eh     change       -0.2602056E-04 Eh
 * total energy  :   -69.7970684 Eh     change       -0.6094818E-05 Eh
 * total energy  :   -69.7970640 Eh     change        0.4360458E-05 Eh
 * total energy  :   -69.7970728 Eh     change       -0.8827063E-05 Eh
 * total energy  :   -69.7970758 Eh     change       -0.2934770E-05 Eh
 * total energy  :   -69.7970764 Eh     change       -0.6551252E-06 Eh
 * total energy  :   -69.7970797 Eh     change       -0.3325795E-05 Eh
 * total energy  :   -69.7970821 Eh     change       -0.2319828E-05 Eh
 * total energy  :   -69.7970846 Eh     change       -0.2571412E-05 Eh
 * total energy  :   -69.7970887 Eh     change       -0.4692983E-06 Eh
 * total energy  :   -69.7970893 Eh     change       -0.5504745E-06 Eh
 * total energy  :   -69.7970899 Eh     change       -0.6050961E-06 Eh
 * total energy  :   -69.7970902 Eh     change       -0.3036864E-06 Eh
 * total energy  :   -69.7970904 Eh     change       -0.2212587E-06 Eh
 * total energy  :   -69.7970906 Eh     change       -0.2157767E-06 Eh
 * total energy  :   -69.7970909 Eh     change       -0.2826609E-06 Eh
 * total energy  :   -69.7970911 Eh     change       -0.2287317E-06 Eh
 * total energy  :   -69.7970911 Eh     change       -0.4220666E-08 Eh
   *** GEOMETRY OPTIMIZATION CONVERGED AFTER 22 ITERATIONS ***

 final structure:
================
43
 xtb: 6.7.1 (edcfbbe)
N           -6.70426050074151       -3.95681282349088       -0.14493450720112
C           -5.76672070801761       -3.29231877684998       -0.11207948804898
C           -4.61885288753891       -2.47723374447283       -0.07137505769995
C           -3.41358617121092       -2.93118341131383       -0.62388310805709
C           -2.29816026272301       -2.12838834237701       -0.58398530774974
C           -2.35076343833321       -0.85408296523808       -0.00217891321720
C           -1.14286790663811       -0.03385658186302        0.03913744527592
C           -1.20776464679995        1.37343589014483        0.06682699550189
C           -0.00631892712294        2.10232245063017       -0.03081847986049
C           -0.03685468559477        3.57332355725694       -0.02379893916097
C            0.80590623601028        4.30125221006733       -0.86211256536891
C            0.77210876792917        5.68357765446979       -0.85748301674928
C           -0.09520459194787        6.35778733809315       -0.01312680448204
C           -0.93327486538725        5.64132997796599        0.82604853892572
C           -0.90889091779966        4.25878266464977        0.82002985152144
C            1.18918695048138        1.42667300136120       -0.11973004087856
C            1.20644851829960       -0.00403502451186       -0.09526106395800
C            2.38702271301580       -0.77712798822098       -0.00237388299352
C            3.70163421243717       -0.23689898959417       -0.10831515701944
C            4.80183278023955       -1.03811388269634       -0.06170431068112
C            4.67144441541231       -2.43809702751362        0.11969414236390
C            5.79887932595346       -3.25067133064453        0.18421175798783
N            6.73650695958991       -3.92561730101246        0.23601132797799
C            3.37066594095906       -2.99239429893011        0.23557931700317
C            2.27473127241884       -2.19082633510392        0.18038708880185
N            0.01743532012854       -0.63177332853938       -0.06172522318397
C           -3.55825018023327       -0.41036833872945        0.54952522996954
C           -4.67802189761622       -1.21065351065857        0.52318461679776
H           -3.37113862190061       -3.91111441271608       -1.07594855415979
H           -1.36551493550311       -2.46967014160992       -1.00632746744122
H           -2.15946458438130        1.87114869475931       -0.00001807980793
H            1.47084435200278        3.78109114033726       -1.53591742474356
H            1.42558713194132        6.23704236217122       -1.51604375245283
H           -0.11808864897551        7.43747853165398       -0.00949575451527
H           -1.60964954342786        6.16211630607451        1.48813052055821
H           -1.55155492587726        3.70673953514936        1.48986905076362
H            2.12409788141290        1.95945301993824       -0.08109800169513
H            3.83789649714302        0.82637063129588       -0.22665386523410
H            5.79404660280260       -0.61817110267774       -0.14489436189476
H            3.27079651832673       -4.06137858461562        0.35858013897200
H            1.28043456734235       -2.60647141121486        0.24867789896618
H           -3.61418628749358        0.55714387174170        1.02360353136789
H           -5.60675254568255       -0.87038581246494        0.95692206569994

          :  Hamiltonian                  GFN2-xTB          :
         :: gradient norm              0.000096857311 Eh/a0 ::
         :: HOMO-LUMO gap              0.095328927627 eV    ::
         :: SCC energy               -71.168537353881 Eh    ::
         :: -> dispersion             -0.051546280260 Eh    ::
         :: -> Gsolv                  -0.040929691112 Eh    ::
         :: repulsion energy           1.371446225330 Eh    ::

    * Orbital Energies and Occupations

         #    Occupation            Energy/Eh            Energy/eV
      -------------------------------------------------------------
         1        2.0000           -0.6867595             -18.6877
       ...           ...                  ...                  ...
        54        2.0000           -0.4374520             -11.9037
        55        2.0000           -0.4332060             -11.7881
        56        2.0000           -0.4328003             -11.7771
        57        2.0000           -0.4310449             -11.7293
        58        2.0000           -0.4291570             -11.6780
        59        2.0000           -0.4237811             -11.5317
        60        2.0000           -0.4200764             -11.4309
        61        2.0000           -0.4169493             -11.3458
        62        2.0000           -0.4155856             -11.3087
        63        2.0000           -0.4082310             -11.1085
        64        1.9632           -0.4004074             -10.8956
        65        1.0368           -0.3942064             -10.7269
        66        0.8634           -0.3010020              -8.1907 (HOMO)
        67        0.1366           -0.2974977              -8.0953 (LUMO)
        68                         -0.2628929              -7.1537
        69                         -0.2482578              -6.7554
        70                         -0.2401191              -6.5340
        71                         -0.2334439              -6.3523
        72                         -0.2327808              -6.3343
        73                         -0.2213671              -6.0237
        74                         -0.2155275              -5.8648
        75                         -0.2037428              -5.5441
        76                         -0.1804879              -4.9113
        77                         -0.1598231              -4.3490
       ...                                ...                  ...
       127                          1.1575174              31.4977
      -------------------------------------------------------------
                  HL-Gap            0.0035042 Eh            0.0954 eV

     #   Z          covCN         q      C6AA      α(0)
     1   7 N        0.911    -0.273    27.063     7.524
     2   6 C        1.911     0.117    28.231     8.581
     3   6 C        2.972     0.019    27.588     8.616
     4   6 C        2.922    -0.017    28.442     8.746
     5   6 C        2.922    -0.022    28.550     8.762
     6   6 C        2.979     0.015    27.682     8.630
     7   6 C        2.922     0.100    25.776     8.326
     8   6 C        2.922    -0.056    29.389     8.890
     9   6 C        2.972     0.025    27.439     8.592
    10   6 C        2.979     0.011    27.762     8.643
    11   6 C        2.924    -0.033    28.812     8.802
    12   6 C        2.918    -0.027    28.682     8.782
    13   6 C        2.919    -0.028    28.703     8.786
    14   6 C        2.918    -0.027    28.685     8.783
    15   6 C        2.924    -0.032    28.805     8.801
    16   6 C        2.920    -0.041    29.021     8.834
    17   6 C        2.922     0.079    26.241     8.401
    18   6 C        2.973     0.005    27.901     8.664
    19   6 C        2.913    -0.034    28.851     8.808
    20   6 C        2.916    -0.023    28.571     8.765
    21   6 C        2.968     0.004    27.930     8.669
    22   6 C        1.910     0.108    28.438     8.612
    23   7 N        0.911    -0.311    27.995     7.652
    24   6 C        2.915    -0.023    28.571     8.765
    25   6 C        2.919    -0.029    28.721     8.788
    26   7 N        1.859    -0.170    25.481     7.482
    27   6 C        2.920    -0.026    28.660     8.779
    28   6 C        2.923    -0.018    28.459     8.748
    29   1 H        0.926     0.050     2.322     2.383
    30   1 H        0.926     0.059     2.210     2.325
    31   1 H        0.926     0.062     2.171     2.304
    32   1 H        0.926     0.038     2.472     2.459
    33   1 H        0.926     0.038     2.471     2.458
    34   1 H        0.926     0.038     2.481     2.463
    35   1 H        0.926     0.039     2.466     2.456
    36   1 H        0.926     0.039     2.457     2.451
    37   1 H        0.926     0.063     2.162     2.299
    38   1 H        0.926     0.046     2.368     2.406
    39   1 H        0.926     0.036     2.500     2.472
    40   1 H        0.926     0.038     2.472     2.459
    41   1 H        0.926     0.052     2.291     2.367
    42   1 H        0.926     0.058     2.220     2.330
    43   1 H        0.926     0.050     2.320     2.382

molecular dipole:
                 x           y           z       tot (Debye)
 q only:       -1.248       3.295      -0.046
   full:       -1.229       3.958      -0.036      10.534

 projected vibrational frequencies (cm⁻¹)
eigval :       -0.00    -0.00    -0.00     0.00     0.00     0.00
eigval :       25.45    29.19    30.86    42.08    47.94    50.57
eigval :       62.36    73.92   110.75   123.37   129.76   142.77
eigval :      179.41   199.14   206.52   214.37   243.14   263.31
eigval :      265.91   342.26   353.61   362.15   362.90   365.94
eigval :      372.35   393.95   436.45   468.42   492.37   509.09
eigval :      513.43   526.02   534.97   540.68   546.27   568.08
eigval :      588.43   595.89   601.65   605.92   614.36   645.39
eigval :      665.70   678.91   714.14   734.36   749.25   756.54
eigval :      770.44   781.86   785.98   801.12   814.18   845.93
eigval :      854.65   873.91   892.35   899.62   901.42   903.63
eigval :      913.27   919.85   930.09   932.43   962.65   981.08
eigval :      987.02  1002.29  1038.67  1081.97  1086.21  1105.39
eigval :     1115.67  1120.88  1134.73  1152.19  1179.75  1181.19
eigval :     1196.92  1206.40  1223.27  1229.97  1240.62  1247.68
eigval :     1257.60  1260.80  1277.85  1311.96  1316.94  1320.20
eigval :     1338.48  1364.81  1379.34  1386.92  1405.15  1424.65
eigval :     1441.60  1455.02  1463.51  1471.25  1473.03  1513.55
eigval :     1524.29  1573.78  1576.56  1587.97  2248.18  2326.27
eigval :     3073.54  3074.70  3075.07  3079.40  3082.57  3086.08
eigval :     3086.14  3086.76  3087.49  3093.97  3097.09  3098.96
eigval :     3100.67  3113.42  3121.09

   temp. (K)  partition function   enthalpy   heat capacity  entropy
                                   cal/mol     cal/K/mol   cal/K/mol   J/K/mol
 298.15  VIB  0.752E+10            13169.577     81.725     81.605
         ROT  0.256E+08              888.752      2.981     36.880
         INT  0.193E+18            14058.329     84.706    118.485
         TR   0.654E+28             1481.254      4.968     43.495
         TOT                       15539.5831    89.6741   161.9800   677.7245

       T/K    H(0)-H(T)+PV         H(T)/Eh          T*S/Eh         G(T)/Eh
   ------------------------------------------------------------------------
    298.15    0.247639E-01    0.335579E+00    0.769619E-01    0.258618E+00
   ------------------------------------------------------------------------

         :::::::::::::::::::::::::::::::::::::::::::::::::::::
         ::                  THERMODYNAMIC                  ::
         :::::::::::::::::::::::::::::::::::::::::::::::::::::
         :: total free energy         -69.538473577012 Eh   ::
         ::.................................................::
         :: total energy              -69.797091128932 Eh   ::
         :: zero point energy           0.310815594646 Eh   ::
         :: G(RRHO) w/o ZPVE           -0.052198042726 Eh   ::
         :: G(RRHO) contrib.            0.258617551920 Eh   ::
         :::::::::::::::::::::::::::::::::::::::::::::::::::::

           -------------------------------------------------
          | TOTAL ENERGY              -69.797091128932 Eh   |
          | TOTAL ENTHALPY            -69.461511632343 Eh   |
          | TOTAL FREE ENERGY         -69.538473577012 Eh   |
          | GRADIENT NORM               0.000095475052 Eh/α |
          | HOMO-LUMO GAP               0.095354683706 eV   |
           -------------------------------------------------

 * finished run on 2025/09/05 at 02:03:29.481
