   * xtb version 6.7.1 (edcfbbe) compiled by 'albert@albert-system' on 2024-07-22

   ID    Z sym.   atoms
    1    7 N      1, 23, 26
    2    6 C      2-22, 24, 25, 27, 28
    3    1 H      29-43

          program call               : xtb data2507/toluene/PyDCN/PyDCN.xyz --gfn 2 --gbsa toluene --ohess vtight --parallel 40 --molden --ceasefiles --namespace data2507/toluene/PyDCN/PyDCN_toluene_S0_preOpt
      * Solvation model:               GBSA
        Solvent                        toluene
        Solvent mass                       9.2140E+01 g/mol
          :  Hamiltonian                  GFN2-xTB          :
 * total energy  :   -69.8851711 Eh     change       -0.1204143E-08 Eh
 * total energy  :   -69.8915063 Eh     change       -0.6335237E-02 Eh
 * total energy  :   -69.8929737 Eh     change       -0.1467349E-02 Eh
 * total energy  :   -69.8931876 Eh     change       -0.2139011E-03 Eh
 * total energy  :   -69.8930660 Eh     change        0.1215602E-03 Eh
 * total energy  :   -69.8933551 Eh     change       -0.2891351E-03 Eh
 * total energy  :   -69.8933986 Eh     change       -0.4342863E-04 Eh
 * total energy  :   -69.8935785 Eh     change       -0.1799406E-03 Eh
 * total energy  :   -69.8936583 Eh     change       -0.7979805E-04 Eh
 * total energy  :   -69.8936440 Eh     change        0.1434158E-04 Eh
 * total energy  :   -69.8939751 Eh     change       -0.6795806E-06 Eh
 * total energy  :   -69.8939751 Eh     change       -0.6236563E-07 Eh
 * total energy  :   -69.8939754 Eh     change       -0.2770677E-06 Eh
 * total energy  :   -69.8939756 Eh     change       -0.2009589E-06 Eh
 * total energy  :   -69.8939757 Eh     change       -0.1471590E-06 Eh
 * total energy  :   -69.8939759 Eh     change       -0.1814162E-06 Eh
 * total energy  :   -69.8939761 Eh     change       -0.1307208E-06 Eh
 * total energy  :   -69.8939762 Eh     change       -0.1046721E-06 Eh
 * total energy  :   -69.8939762 Eh     change       -0.3547741E-07 Eh
   *** GEOMETRY OPTIMIZATION CONVERGED AFTER 29 ITERATIONS ***

 final structure:
================
43
 xtb: 6.7.1 (edcfbbe)
N           -6.74753370876483       -4.30453974912677        0.34780577872331
C           -5.80433549209602       -3.65258569181739        0.28777192625021
C           -4.64636325431513       -2.84825709755622        0.21473082666913
C           -3.43377108467135       -3.31810966173995        0.72593706473645
C           -2.30975335722964       -2.52369902834607        0.65358372543729
C           -2.36899516801477       -1.25113644859983        0.08248800996216
C           -1.14838159240796       -0.43091154505697        0.03386739038050
C           -1.19207838915207        0.96232640367749        0.04563268214808
C            0.00117892479627        1.67883013300622        0.00017070627660
C            0.00224423655998        3.14947991172870       -0.00027094614463
C           -0.90492926943338        3.85685835725418       -0.78553600931240
C           -0.89880457214087        5.23972205975773       -0.78895328610939
C            0.00388841817866        5.93387907759723        0.00007120154135
C            0.90576285280358        5.23848978653064        0.78892492583568
C            0.91022358432799        3.85563037414492        0.78518146880343
C            1.19343668687711        0.96067242165070       -0.04549231856833
C            1.14782083115033       -0.43249753938443       -0.03381868599951
C            2.36732152378715       -1.25438277435254       -0.08245997684443
C            3.58012592226529       -0.80050025572842        0.43628073696731
C            4.71013743205183       -1.58956069107210        0.37330093543588
C            4.64255810944114       -2.85454556281052       -0.21473478503318
C            5.79944402690081       -3.66044376279280       -0.28759852473019
N            6.74164250971481       -4.31376648566690       -0.34804372954062
C            3.42935816045024       -3.32272760594528       -0.72603855985845
C            2.30640216059202       -2.52681415811679       -0.65367618505713
N           -0.00073978197064       -1.10042940750439        0.00004312532506
C           -3.58121632184193       -0.79557491778185       -0.43615039341032
C           -4.71228031485716       -1.58312350969267       -0.37317707290155
H           -3.38736457456202       -4.29980885569810        1.17399873708069
H           -1.36545009420115       -2.87254612324929        1.04153947938586
H           -2.13241275009936        1.48399698513417        0.12462272078355
H           -1.60083659150973        3.31934434891507       -1.41353193852261
H           -1.60063502455329        5.77811278333246       -1.40927368034414
H            0.00456741498418        7.01393424202941        0.00014786206146
H            1.60823059264627        5.77589880707329        1.40938961134184
H            1.60530857101617        3.31715463815113        1.41328123813458
H            2.13448218009847        1.48103012376385       -0.12466561197730
H            3.64007285178480        0.16681878903231        0.91104436575295
H            5.64829936413591       -1.23853774336862        0.77768018783167
H            3.38162172460552       -4.30435913303058       -1.17410544384721
H            1.36163612481058       -2.87437508792984       -1.04167325084889
H           -3.63987817778387        0.17185228579993       -0.91086308282310
H           -5.65000268437365       -1.23079669221095       -0.77743322499224

          :  Hamiltonian                  GFN2-xTB          :
         :: gradient norm              0.000182314595 Eh/a0 ::
         :: HOMO-LUMO gap              2.426507597702 eV    ::
         :: SCC energy               -71.278605912037 Eh    ::
         :: -> dispersion             -0.051654511456 Eh    ::
         :: -> Gsolv                  -0.038413884730 Eh    ::
         :: repulsion energy           1.384629710281 Eh    ::

    * Orbital Energies and Occupations

         #    Occupation            Energy/Eh            Energy/eV
      -------------------------------------------------------------
         1        2.0000           -0.6756518             -18.3854
       ...           ...                  ...                  ...
        53        2.0000           -0.4408134             -11.9951
        54        2.0000           -0.4389365             -11.9441
        55        2.0000           -0.4348283             -11.8323
        56        2.0000           -0.4300358             -11.7019
        57        2.0000           -0.4289462             -11.6722
        58        2.0000           -0.4283981             -11.6573
        59        2.0000           -0.4283522             -11.6561
        60        2.0000           -0.4266624             -11.6101
        61        2.0000           -0.4198320             -11.4242
        62        2.0000           -0.4143683             -11.2755
        63        2.0000           -0.4059240             -11.0458
        64        2.0000           -0.4041814             -10.9983
        65        2.0000           -0.3797627             -10.3339 (HOMO)
        66                         -0.2905902              -7.9074 (LUMO)
        67                         -0.2900457              -7.8925
        68                         -0.2616373              -7.1195
        69                         -0.2449400              -6.6652
        70                         -0.2447721              -6.6606
        71                         -0.2368549              -6.4451
        72                         -0.2324086              -6.3242
        73                         -0.2198470              -5.9823
        74                         -0.2152115              -5.8562
        75                         -0.2151956              -5.8558
        76                         -0.1790301              -4.8717
       ...                                ...                  ...
       127                          1.1569857              31.4832
      -------------------------------------------------------------
                  HL-Gap            0.0891725 Eh            2.4265 eV

     #   Z          covCN         q      C6AA      α(0)
     1   7 N        0.911    -0.270    26.975     7.512
     2   6 C        1.912     0.119    28.170     8.572
     3   6 C        2.974     0.018    27.604     8.618
     4   6 C        2.924    -0.017    28.435     8.745
     5   6 C        2.924    -0.022    28.563     8.764
     6   6 C        2.980     0.016    27.654     8.626
     7   6 C        2.951     0.093    25.935     8.353
     8   6 C        2.922    -0.051    29.278     8.873
     9   6 C        2.981     0.028    27.378     8.583
    10   6 C        2.977     0.007    27.850     8.656
    11   6 C        2.924    -0.032    28.789     8.799
    12   6 C        2.918    -0.028    28.707     8.786
    13   6 C        2.920    -0.028    28.700     8.785
    14   6 C        2.918    -0.028    28.707     8.786
    15   6 C        2.924    -0.032    28.789     8.799
    16   6 C        2.922    -0.051    29.278     8.873
    17   6 C        2.951     0.093    25.935     8.353
    18   6 C        2.980     0.016    27.654     8.626
    19   6 C        2.921    -0.028    28.712     8.787
    20   6 C        2.924    -0.018    28.465     8.749
    21   6 C        2.974     0.018    27.604     8.618
    22   6 C        1.912     0.119    28.170     8.572
    23   7 N        0.911    -0.270    26.975     7.512
    24   6 C        2.924    -0.017    28.435     8.745
    25   6 C        2.924    -0.022    28.563     8.764
    26   7 N        1.854    -0.255    27.489     7.771
    27   6 C        2.921    -0.028    28.712     8.787
    28   6 C        2.924    -0.018    28.465     8.749
    29   1 H        0.926     0.048     2.341     2.392
    30   1 H        0.926     0.063     2.165     2.301
    31   1 H        0.926     0.046     2.375     2.410
    32   1 H        0.926     0.035     2.510     2.477
    33   1 H        0.926     0.037     2.494     2.470
    34   1 H        0.926     0.036     2.497     2.471
    35   1 H        0.926     0.037     2.494     2.470
    36   1 H        0.926     0.035     2.510     2.477
    37   1 H        0.926     0.046     2.375     2.410
    38   1 H        0.926     0.051     2.311     2.377
    39   1 H        0.926     0.047     2.353     2.399
    40   1 H        0.926     0.048     2.341     2.392
    41   1 H        0.926     0.063     2.165     2.301
    42   1 H        0.926     0.051     2.311     2.377
    43   1 H        0.926     0.047     2.353     2.399

molecular dipole:
                 x           y           z       tot (Debye)
 q only:        0.002       2.412       0.000
   full:        0.002       3.259       0.000       8.284

 projected vibrational frequencies (cm⁻¹)
eigval :       -0.00    -0.00     0.00     0.00     0.00     0.00
eigval :       21.82    28.10    28.36    36.15    38.37    46.92
eigval :       66.38    73.12   108.13   127.04   132.32   145.90
eigval :      175.82   204.57   223.93   238.40   258.14   264.52
eigval :      270.04   352.17   354.58   363.06   363.46   369.53
eigval :      398.28   423.25   465.16   509.39   522.86   527.45
eigval :      532.21   536.72   538.65   555.85   584.39   598.92
eigval :      604.41   606.16   620.52   620.55   668.01   686.03
eigval :      699.73   716.32   735.11   758.58   771.34   817.12
eigval :      821.23   841.44   841.89   867.60   868.29   869.06
eigval :      874.52   885.59   904.51   917.34   917.93   926.29
eigval :      928.18   930.29   933.71   971.96   996.76  1010.70
eigval :     1012.68  1075.74  1086.55  1108.95  1119.83  1128.00
eigval :     1133.98  1145.45  1182.30  1185.97  1186.27  1198.45
eigval :     1216.77  1222.88  1241.64  1244.90  1261.68  1262.30
eigval :     1278.93  1291.21  1315.27  1316.79  1318.15  1355.76
eigval :     1383.59  1384.67  1399.15  1423.43  1429.95  1475.82
eigval :     1476.71  1482.13  1529.97  1548.33  1551.12  1559.92
eigval :     1581.02  1585.72  1585.89  1597.09  2360.74  2361.43
eigval :     3071.48  3071.72  3078.86  3082.95  3084.66  3084.88
eigval :     3086.44  3086.54  3092.07  3097.02  3097.13  3102.18
eigval :     3102.34  3106.52  3107.10

   temp. (K)  partition function   enthalpy   heat capacity  entropy
                                   cal/mol     cal/K/mol   cal/K/mol   J/K/mol
 298.15  VIB  0.876E+10            12775.229     78.436     79.399
         ROT  0.128E+08              888.752      2.981     35.499
         INT  0.112E+18            13663.981     81.417    114.897
         TR   0.654E+28             1481.254      4.968     43.495
         TOT                       15145.2354    86.3849   158.3924   662.7137

       T/K    H(0)-H(T)+PV         H(T)/Eh          T*S/Eh         G(T)/Eh
   ------------------------------------------------------------------------
    298.15    0.241355E-01    0.340924E+00    0.752573E-01    0.265667E+00
   ------------------------------------------------------------------------

         :::::::::::::::::::::::::::::::::::::::::::::::::::::
         ::                  THERMODYNAMIC                  ::
         :::::::::::::::::::::::::::::::::::::::::::::::::::::
         :: total free energy         -69.628309378935 Eh   ::
         ::.................................................::
         :: total energy              -69.893976199238 Eh   ::
         :: zero point energy           0.316788678719 Eh   ::
         :: G(RRHO) w/o ZPVE           -0.051121858416 Eh   ::
         :: G(RRHO) contrib.            0.265666820303 Eh   ::
         :::::::::::::::::::::::::::::::::::::::::::::::::::::

           -------------------------------------------------
          | TOTAL ENERGY              -69.893976199238 Eh   |
          | TOTAL ENTHALPY            -69.553052051635 Eh   |
          | TOTAL FREE ENERGY         -69.628309378935 Eh   |
          | GRADIENT NORM               0.000182267516 Eh/α |
          | HOMO-LUMO GAP               2.426506830591 eV   |
           -------------------------------------------------

 * finished run on 2025/09/05 at 02:01:16.625
