   * xtb version 6.7.1 (edcfbbe) compiled by 'albert@albert-system' on 2024-07-22

   ID    Z sym.   atoms
    1    6 C      1-4, 6-17, 19-30, 32-37, 39-44, 46-51, 53-58, 60, 61
    2    7 N      5, 18, 38
    3    5 B      31, 52
    4    8 O      45, 59
    5    1 H      62-96

          program call               : xtb data2507/toluene/TPD4PA/TPD4PA_toluene_T1_crest.xyz --gfn 2 --uhf 2 --gbsa toluene --ohess vtight --parallel 40 --molden --ceasefiles --namespace data2507/toluene/TPD4PA/TPD4PA_toluene_T1_finalOpt
      * Solvation model:               GBSA
        Solvent                        toluene
        Solvent mass                       9.2140E+01 g/mol
          :  Hamiltonian                  GFN2-xTB          :
 * total energy  :  -152.9229738 Eh     change       -0.1349412E-07 Eh
 * total energy  :  -152.9230899 Eh     change       -0.1161333E-03 Eh
 * total energy  :  -152.9231831 Eh     change       -0.9319539E-04 Eh
 * total energy  :  -152.9232368 Eh     change       -0.5366778E-04 Eh
 * total energy  :  -152.9233051 Eh     change       -0.6834043E-04 Eh
 * total energy  :  -152.9234447 Eh     change       -0.1395567E-03 Eh
 * total energy  :  -152.9235749 Eh     change       -0.1302049E-03 Eh
 * total energy  :  -152.9236978 Eh     change       -0.1228899E-03 Eh
 * total energy  :  -152.9238012 Eh     change       -0.1034060E-03 Eh
 * total energy  :  -152.9238656 Eh     change       -0.6442474E-04 Eh
 * total energy  :  -152.9243016 Eh     change       -0.1047532E-05 Eh
 * total energy  :  -152.9243024 Eh     change       -0.8196119E-06 Eh
 * total energy  :  -152.9243031 Eh     change       -0.7444658E-06 Eh
 * total energy  :  -152.9243038 Eh     change       -0.6820767E-06 Eh
 * total energy  :  -152.9243044 Eh     change       -0.6119467E-06 Eh
 * total energy  :  -152.9243049 Eh     change       -0.4541839E-06 Eh
 * total energy  :  -152.9243053 Eh     change       -0.4012350E-06 Eh
 * total energy  :  -152.9243057 Eh     change       -0.4019577E-06 Eh
 * total energy  :  -152.9243057 Eh     change       -0.7839645E-08 Eh
   *** GEOMETRY OPTIMIZATION CONVERGED AFTER 44 ITERATIONS ***

 final structure:
================
96
 xtb: 6.7.1 (edcfbbe)
C            7.41430176688741        1.01784928079106        2.39538548674618
C            7.79298515255385        0.24363147088081        1.30930073140105
C            6.85252608946939       -0.48211487711382        0.60510811880288
C            5.50928894247911       -0.44818103394715        0.98508887599559
N            4.55080645884621       -1.16948816590090        0.26633130467003
C            4.86407892899504       -2.42894139830558       -0.25307346987805
C            5.66974069934441       -3.31112669258514        0.47016055275842
C            5.97229050993285       -4.55672911981802       -0.04349781714623
C            5.47568616104399       -4.94759381400613       -1.27756155662494
C            4.67438542154796       -4.07632521455811       -1.99919877204565
C            4.37054667703486       -2.82638784272191       -1.49754002221216
C            3.28379576889246       -0.62065221146073        0.05278071170231
C            3.14274046764411        0.75691118420728       -0.14767884635319
C            1.88137903459864        1.30700300963571       -0.35253469528425
C            0.72558772239855        0.49184064137494       -0.36114435971230
C            0.89225785903379       -0.89734619359197       -0.16231251283513
C            2.15681290648441       -1.44416689325231        0.04306679007313
N           -0.22209920941841       -1.71593620954822       -0.19094836159149
C            0.00353409768036       -3.12684637134755       -0.17624454151223
C            0.02548230027330       -3.82340249129263        1.02590558982179
C            0.26484005246369       -5.18637063756295        1.02520010635776
C            0.48278636177920       -5.85439898751229       -0.16902562324376
C            0.45825029252438       -5.15880085600213       -1.36643459268574
C            0.22082179034743       -3.79510715448389       -1.37362213764999
C           -1.52002056505176       -1.25705316063828       -0.16779363434886
C           -2.56088018222560       -2.18947836016139       -0.10088849421206
C           -3.87661086093390       -1.76238807983697        0.01966624026042
C           -4.19824428586375       -0.40159073746723        0.15258586135774
C           -3.13885076870456        0.50793505457881        0.06767748516760
C           -1.80370374481418        0.13600912786061       -0.21452458334317
B           -0.64778298022674        1.09524276497243       -0.55478860292694
C           -0.63860213224170        2.54792639481474       -1.06413449760507
C           -1.72423050522829        3.20296240406427       -1.66217351425682
C           -1.67132143868149        4.52916621850384       -2.03915093387629
C           -0.50516651404230        5.25788041464901       -1.83787467144329
C            0.61394453860607        4.63388977255089       -1.32132781019028
C            0.57649175160975        3.27898465230799       -0.97032826283456
N            1.74464723286814        2.66631430350907       -0.55213052833817
C            2.91237713521801        3.47140203088283       -0.38235964121641
C            3.78188487925224        3.68751914976789       -1.44479525921472
C            4.91858450268310        4.45376487889616       -1.25594076792798
C            5.18920788792198        5.00359617855843       -0.01312916744582
C            4.32043416604201        4.78854148694066        1.04377384684446
C            3.18196273333267        4.02191890569786        0.86348600476504
O           -3.36456520246247        1.83918181598064        0.25698515618461
C           -4.59062140121802        2.33585437555730        0.57816373177432
C           -4.59527665036084        3.71183379165391        0.81001088410558
C           -5.76636696961968        4.35379087475529        1.16754452851740
C           -6.93183207037623        3.61510685891152        1.30851166548223
C           -6.92189685787070        2.25301005045681        1.07371967439878
C           -5.76748749082787        1.56042596685305        0.68207916934061
B           -5.63754990681570        0.04526776871845        0.38723260521513
C           -6.66196686049710       -1.10358653736998        0.29456779106085
C           -8.06415328004449       -0.99344475890720        0.31326009781043
C           -8.89951509427818       -2.08610594234346        0.24028525580230
C           -8.36925534799039       -3.36779965062685        0.13863518040917
C           -6.99801087259292       -3.52770541405552        0.08691473166665
C           -6.16023839839479       -2.41789579220084        0.15137966992342
O           -4.82580239670572       -2.72258663057291        0.05956285640489
C            5.13475432074979        0.32797483801690        2.08417422858867
C            6.08217664345501        1.05462109088719        2.77753508504725
H            8.15204224152161        1.58670178806328        2.94064015666983
H            8.82818742039759        0.21211301915450        1.00238479898052
H            7.14727561512567       -1.07352982402954       -0.24935566377592
H            6.04744461885820       -3.01299836328563        1.43721852278888
H            6.59358483633285       -5.23098966114062        0.52766276378785
H            5.71213002352770       -5.92334099237056       -1.67404954461192
H            4.28945365143619       -4.36981063021819       -2.96471387962358
H            3.75780414611154       -2.14338183341540       -2.06707380361816
H            4.02526199145243        1.37561112206553       -0.14172008954069
H            2.28135145032663       -2.50266357950386        0.20713415771183
H           -0.14682098287014       -3.29234222511239        1.95045895994966
H            0.28170263885911       -5.72683346389889        1.95983069529601
H            0.66922347565167       -6.91774925524051       -0.16578654725170
H            0.62524347046905       -5.67771807716359       -2.29829130639492
H            0.19900401465475       -3.24177931483727       -2.30069546663318
H           -2.37029579260793       -3.24996283682731       -0.13361651861504
H           -2.63420831756708        2.64760077592536       -1.82387536650603
H           -2.53803213690079        5.00390198241069       -2.47736550250234
H           -0.45979180782178        6.30344900728467       -2.10557110333217
H            1.52649891496483        5.19906519871031       -1.20827523660060
H            3.55957353323208        3.25448557192005       -2.40895429917836
H            5.59414499066703        4.62113698879712       -2.08139337407433
H            6.07711133296798        5.60053339217022        0.13051963983725
H            4.52827351866631        5.21708701040541        2.01263205166090
H            2.49717501202482        3.84617365080359        1.67986134144263
H           -3.66532347028314        4.25066921772258        0.70547885780602
H           -5.76579812236600        5.41961703336638        1.34338622500088
H           -7.84979745692046        4.10493373504230        1.60204212345901
H           -7.83749003263644        1.69905919235008        1.20822126147950
H           -8.50197852451965       -0.00956575593311        0.37423705352390
H           -9.97166941971903       -1.94908044391457        0.26380002613836
H           -9.01822325646397       -4.22943675001504        0.08842633132352
H           -6.55052489510964       -4.50601393545190       -0.01252911121880
H            4.09933078371765        0.34785177182647        2.39042858527560
H            5.77969031933199        1.64855399449772        3.62747450325606

          :  Hamiltonian                  GFN2-xTB          :
         :: gradient norm              0.000061160614 Eh/a0 ::
         :: HOMO-LUMO gap              0.110311347919 eV    ::
         :: SCC energy              -155.637544226762 Eh    ::
         :: -> dispersion             -0.147149315734 Eh    ::
         :: -> Gsolv                  -0.063426939591 Eh    ::
         :: repulsion energy           2.713238536003 Eh    ::

    * Orbital Energies and Occupations

         #    Occupation            Energy/Eh            Energy/eV
      -------------------------------------------------------------
         1        2.0000           -0.7219364             -19.6449
       ...           ...                  ...                  ...
       131        2.0000           -0.3988203             -10.8525
       132        2.0000           -0.3963611             -10.7855
       133        2.0000           -0.3929047             -10.6915
       134        2.0000           -0.3882787             -10.5656
       135        2.0000           -0.3842115             -10.4549
       136        2.0000           -0.3780559             -10.2874
       137        2.0000           -0.3761420             -10.2353
       138        2.0000           -0.3741624             -10.1815
       139        2.0000           -0.3697467             -10.0613
       140        1.9982           -0.3587015              -9.7608
       141        1.7735           -0.3538505              -9.6288
       142        1.2282           -0.3515262              -9.5655
       143        0.8941           -0.2583825              -7.0309 (HOMO)
       144        0.1059           -0.2543287              -6.9206 (LUMO)
       145                         -0.2384929              -6.4897
       146                         -0.2369480              -6.4477
       147                         -0.2366287              -6.4390
       148                         -0.2356864              -6.4134
       149                         -0.2351313              -6.3982
       150                         -0.2304254              -6.2702
       151                         -0.2286020              -6.2206
       152                         -0.2259686              -6.1489
       153                         -0.2256156              -6.1393
       154                         -0.2186580              -5.9500
       ...                                ...                  ...
       279                          0.7207594              19.6129
      -------------------------------------------------------------
                  HL-Gap            0.0040537 Eh            0.1103 eV

     #   Z          covCN         q      C6AA      α(0)
     1   6 C        2.919    -0.037    28.909     8.817
     2   6 C        2.919    -0.029    28.724     8.789
     3   6 C        2.922    -0.046    29.134     8.851
     4   6 C        2.924     0.063    26.579     8.455
     5   7 N        2.753    -0.057    22.338     7.020
     6   6 C        2.924     0.063    26.580     8.455
     7   6 C        2.922    -0.046    29.138     8.852
     8   6 C        2.919    -0.029    28.720     8.788
     9   6 C        2.919    -0.036    28.907     8.817
    10   6 C        2.919    -0.029    28.725     8.789
    11   6 C        2.922    -0.046    29.144     8.853
    12   6 C        2.921     0.055    26.775     8.486
    13   6 C        2.919    -0.079    29.970     8.977
    14   6 C        2.924     0.060    26.664     8.468
    15   6 C        2.897    -0.103    30.597     9.069
    16   6 C        2.924     0.053    26.821     8.493
    17   6 C        2.919    -0.069    29.717     8.939
    18   7 N        2.756    -0.034    21.904     6.951
    19   6 C        2.934     0.064    26.558     8.452
    20   6 C        2.921    -0.037    28.914     8.818
    21   6 C        2.920    -0.027    28.671     8.781
    22   6 C        2.919    -0.029    28.726     8.789
    23   6 C        2.920    -0.026    28.654     8.778
    24   6 C        2.922    -0.037    28.915     8.818
    25   6 C        2.925     0.061    26.640     8.464
    26   6 C        2.914    -0.100    30.516     9.058
    27   6 C        2.871     0.139    24.973     8.192
    28   6 C        2.883    -0.129    31.300     9.172
    29   6 C        2.870     0.115    25.456     8.271
    30   6 C        2.883    -0.093    30.322     9.027
    31   5 B        2.724     0.169    18.833     7.271
    32   6 C        2.886    -0.068    29.697     8.934
    33   6 C        2.921    -0.036    28.887     8.814
    34   6 C        2.913    -0.035    28.871     8.811
    35   6 C        2.917    -0.037    28.920     8.819
    36   6 C        2.919    -0.057    29.428     8.896
    37   6 C        2.925     0.059    26.669     8.469
    38   7 N        2.755    -0.029    21.805     6.935
    39   6 C        2.933     0.065    26.551     8.451
    40   6 C        2.921    -0.036    28.901     8.816
    41   6 C        2.920    -0.027    28.665     8.780
    42   6 C        2.919    -0.029    28.714     8.787
    43   6 C        2.920    -0.026    28.642     8.776
    44   6 C        2.922    -0.036    28.896     8.815
    45   8 O        1.711    -0.236    17.910     5.714
    46   6 C        2.872     0.134    25.076     8.209
    47   6 C        2.916    -0.062    29.540     8.912
    48   6 C        2.918    -0.038    28.933     8.821
    49   6 C        2.914    -0.043    29.060     8.840
    50   6 C        2.924    -0.045    29.115     8.849
    51   6 C        2.881    -0.091    30.288     9.022
    52   5 B        2.723     0.176    18.734     7.253
    53   6 C        2.881    -0.095    30.386     9.037
    54   6 C        2.924    -0.043    29.071     8.842
    55   6 C        2.914    -0.043    29.056     8.839
    56   6 C        2.918    -0.042    29.033     8.836
    57   6 C        2.915    -0.059    29.459     8.900
    58   6 C        2.875     0.126    25.229     8.234
    59   8 O        1.711    -0.246    18.070     5.739
    60   6 C        2.922    -0.046    29.140     8.852
    61   6 C        2.919    -0.029    28.725     8.789
    62   1 H        0.926     0.036     2.501     2.473
    63   1 H        0.926     0.037     2.483     2.464
    64   1 H        0.926     0.036     2.502     2.473
    65   1 H        0.926     0.036     2.503     2.474
    66   1 H        0.926     0.037     2.485     2.465
    67   1 H        0.926     0.036     2.501     2.473
    68   1 H        0.926     0.038     2.479     2.462
    69   1 H        0.926     0.037     2.495     2.470
    70   1 H        0.926     0.035     2.522     2.484
    71   1 H        0.926     0.036     2.506     2.476
    72   1 H        0.926     0.044     2.394     2.420
    73   1 H        0.926     0.046     2.376     2.410
    74   1 H        0.926     0.045     2.377     2.411
    75   1 H        0.926     0.047     2.357     2.401
    76   1 H        0.926     0.045     2.379     2.412
    77   1 H        0.926     0.036     2.500     2.472
    78   1 H        0.926     0.028     2.612     2.527
    79   1 H        0.926     0.021     2.719     2.579
    80   1 H        0.926     0.024     2.675     2.558
    81   1 H        0.926     0.025     2.652     2.547
    82   1 H        0.926     0.046     2.373     2.409
    83   1 H        0.926     0.047     2.362     2.403
    84   1 H        0.926     0.046     2.371     2.408
    85   1 H        0.926     0.047     2.354     2.399
    86   1 H        0.926     0.045     2.383     2.414
    87   1 H        0.926     0.032     2.559     2.501
    88   1 H        0.926     0.026     2.641     2.541
    89   1 H        0.926     0.023     2.688     2.564
    90   1 H        0.926     0.028     2.622     2.532
    91   1 H        0.926     0.028     2.613     2.528
    92   1 H        0.926     0.023     2.690     2.565
    93   1 H        0.926     0.025     2.652     2.547
    94   1 H        0.926     0.030     2.581     2.512
    95   1 H        0.926     0.036     2.501     2.473
    96   1 H        0.926     0.037     2.483     2.464

molecular dipole:
                 x           y           z       tot (Debye)
 q only:        5.156      -0.432      -0.089
   full:        5.114      -0.498      -0.084      13.061

 projected vibrational frequencies (cm⁻¹)
eigval :       -0.00    -0.00    -0.00    -0.00     0.00     0.00
eigval :       11.81    13.01    18.36    21.83    28.82    30.34
eigval :       34.44    37.86    41.04    48.52    50.82    55.01
eigval :       61.69    64.96    66.07    69.19    79.67    85.68
eigval :       94.84   109.96   125.67   134.55   153.91   156.37
eigval :      165.24   176.17   189.58   198.07   205.09   210.23
eigval :      220.36   228.76   230.63   238.51   240.28   245.01
eigval :      259.64   266.73   270.89   276.48   310.59   322.02
eigval :      329.13   342.80   356.08   371.77   373.52   375.77
eigval :      376.98   379.54   383.24   392.83   401.17   409.09
eigval :      416.21   418.00   442.97   456.83   463.03   477.05
eigval :      477.92   480.79   486.69   491.76   497.19   497.56
eigval :      507.80   519.14   531.48   535.96   543.31   548.90
eigval :      557.34   565.07   573.64   581.51   585.52   587.22
eigval :      592.06   594.05   595.95   600.30   604.07   613.82
eigval :      622.76   634.63   647.80   654.84   658.44   661.15
eigval :      665.48   670.04   672.37   678.09   680.06   693.20
eigval :      694.62   701.56   704.65   741.89   753.27   754.10
eigval :      755.29   759.30   764.40   768.79   774.72   786.29
eigval :      797.80   802.61   818.16   832.67   840.19   852.38
eigval :      853.13   857.58   865.09   869.94   870.69   875.69
eigval :      876.33   876.54   888.02   891.04   892.24   892.47
eigval :      892.96   893.95   899.75   901.29   904.23   908.76
eigval :      910.63   912.42   914.99   917.60   925.09   926.56
eigval :      927.06   927.58   928.70   930.08   930.90   932.34
eigval :      970.57   979.15   990.83   998.32  1001.27  1033.91
eigval :     1054.71  1062.14  1077.33  1078.34  1078.66  1079.69
eigval :     1080.91  1086.02  1095.46  1098.75  1105.72  1113.67
eigval :     1113.76  1116.69  1120.08  1122.46  1138.64  1153.35
eigval :     1163.46  1165.81  1171.67  1176.74  1177.03  1178.47
eigval :     1178.97  1182.11  1183.54  1186.17  1187.24  1190.89
eigval :     1194.44  1198.35  1201.10  1208.54  1220.62  1228.48
eigval :     1233.99  1239.91  1246.88  1250.54  1253.79  1262.52
eigval :     1270.68  1272.73  1273.90  1274.70  1275.60  1285.76
eigval :     1292.89  1295.71  1304.87  1306.36  1306.96  1308.35
eigval :     1319.08  1321.29  1325.48  1326.11  1330.43  1347.55
eigval :     1351.99  1360.02  1372.61  1386.60  1397.20  1400.71
eigval :     1403.36  1408.41  1415.54  1430.20  1430.51  1431.68
eigval :     1437.57  1439.01  1440.69  1458.77  1461.76  1462.55
eigval :     1467.26  1467.95  1472.93  1479.96  1488.58  1519.03
eigval :     1521.09  1532.71  1539.17  1545.71  1561.29  1562.63
eigval :     1567.85  1578.03  1581.17  1581.31  1586.50  1590.73
eigval :     1591.25  3061.40  3062.96  3064.82  3073.31  3074.06
eigval :     3074.81  3075.52  3075.87  3076.51  3077.16  3079.69
eigval :     3081.31  3081.85  3082.76  3084.96  3085.47  3086.64
eigval :     3087.23  3088.40  3088.51  3088.87  3089.09  3092.55
eigval :     3092.57  3093.26  3096.10  3096.46  3096.90  3099.73
eigval :     3100.47  3102.51  3105.00  3109.44  3110.34  3112.38

   temp. (K)  partition function   enthalpy   heat capacity  entropy
                                   cal/mol     cal/K/mol   cal/K/mol   J/K/mol
 298.15  VIB  0.583E+22            28212.408    178.873    174.896
         ROT  0.139E+09              888.752      2.981     40.236
         INT  0.809E+30            29101.161    181.854    215.132
         TR   0.211E+29             1481.254      4.968     45.818
         TOT                       30582.4146   186.8222   260.9506  1091.8173

       T/K    H(0)-H(T)+PV         H(T)/Eh          T*S/Eh         G(T)/Eh
   ------------------------------------------------------------------------
    298.15    0.487362E-01    0.768324E+00    0.123986E+00    0.644338E+00
   ------------------------------------------------------------------------

         :::::::::::::::::::::::::::::::::::::::::::::::::::::
         ::                  THERMODYNAMIC                  ::
         :::::::::::::::::::::::::::::::::::::::::::::::::::::
         :: total free energy        -152.279968162995 Eh   ::
         ::.................................................::
         :: total energy             -152.924305686411 Eh   ::
         :: zero point energy           0.719587391574 Eh   ::
         :: G(RRHO) w/o ZPVE           -0.075249868159 Eh   ::
         :: G(RRHO) contrib.            0.644337523415 Eh   ::
         :::::::::::::::::::::::::::::::::::::::::::::::::::::

           -------------------------------------------------
          | TOTAL ENERGY             -152.924305686411 Eh   |
          | TOTAL ENTHALPY           -152.155982114928 Eh   |
          | TOTAL FREE ENERGY        -152.279968162995 Eh   |
          | GRADIENT NORM               0.000062039086 Eh/α |
          | HOMO-LUMO GAP               0.110307456132 eV   |
           -------------------------------------------------

 * finished run on 2025/08/23 at 01:56:41.225
