   * xtb version 6.7.1 (edcfbbe) compiled by 'albert@albert-system' on 2024-07-22

   ID    Z sym.   atoms
    1    6 C      1-4, 6-17, 19-30, 32-37, 39-44, 46-51, 53-58, 60, 61
    2    7 N      5, 18, 38
    3    5 B      31, 52
    4    8 O      45, 59
    5    1 H      62-96

          program call               : xtb data2507/toluene/TPD4PA/TPD4PA.xyz --gfn 2 --gbsa toluene --ohess vtight --parallel 40 --molden --ceasefiles --namespace data2507/toluene/TPD4PA/TPD4PA_toluene_S0_preOpt
      * Solvation model:               GBSA
        Solvent                        toluene
        Solvent mass                       9.2140E+01 g/mol
          :  Hamiltonian                  GFN2-xTB          :
 * total energy  :  -152.8622386 Eh     change       -0.1338918E-08 Eh
 * total energy  :  -152.9311552 Eh     change       -0.6891656E-01 Eh
 * total energy  :  -152.9647615 Eh     change       -0.3360630E-01 Eh
 * total energy  :  -152.9822055 Eh     change       -0.1744403E-01 Eh
 * total energy  :  -152.9935189 Eh     change       -0.1131344E-01 Eh
 * total energy  :  -153.0003927 Eh     change       -0.6873800E-02 Eh
 * total energy  :  -153.0044030 Eh     change       -0.4010252E-02 Eh
 * total energy  :  -153.0066258 Eh     change       -0.2222764E-02 Eh
 * total energy  :  -153.0078337 Eh     change       -0.1207916E-02 Eh
 * total energy  :  -153.0085547 Eh     change       -0.7210388E-03 Eh
 * total energy  :  -153.0124124 Eh     change       -0.4213134E-06 Eh
 * total energy  :  -153.0124128 Eh     change       -0.3345729E-06 Eh
 * total energy  :  -153.0124130 Eh     change       -0.2300008E-06 Eh
 * total energy  :  -153.0124131 Eh     change       -0.1575900E-06 Eh
 * total energy  :  -153.0124133 Eh     change       -0.1673927E-06 Eh
 * total energy  :  -153.0124135 Eh     change       -0.1980838E-06 Eh
 * total energy  :  -153.0124137 Eh     change       -0.1972398E-06 Eh
 * total energy  :  -153.0124139 Eh     change       -0.1465449E-06 Eh
 * total energy  :  -153.0124140 Eh     change       -0.9928922E-07 Eh
   *** GEOMETRY OPTIMIZATION CONVERGED AFTER 87 ITERATIONS ***

 final structure:
================
96
 xtb: 6.7.1 (edcfbbe)
C            5.38701556456067       -4.70660546681114       -1.47867302514842
C            5.86802725679605       -4.32007498399143       -0.23806531997120
C            5.52149253659829       -3.09401510815447        0.29628728053959
C            4.68858475074417       -2.22749687287043       -0.41182037244463
N            4.33588033178634       -0.98510142586009        0.12897074622671
C            5.28544273671353       -0.24321698310777        0.84225942248884
C            4.91560430922734        0.48086424847156        1.97592386970264
C            5.85443246887008        1.22162495493766        2.66706601158186
C            7.17563463728352        1.24590575048446        2.25015323466135
C            7.55098165329634        0.52140048307256        1.13038520081789
C            6.61685227571132       -0.21472368678133        0.42708254888731
C            3.04252506497133       -0.48194305224609       -0.04748711006649
C            2.84903290826887        0.88636372814465       -0.19823393613457
C            1.56368182834730        1.39534156196987       -0.36447514213749
C            0.44857708875791        0.53207235253453       -0.38168939522635
C            0.67133723215047       -0.85213820361868       -0.24433181304890
C            1.95676336369988       -1.35343127663375       -0.07310694655504
N           -0.41065886883672       -1.71428642711815       -0.28505440497526
C           -0.12332693869903       -3.11299952234054       -0.34695826095862
C           -0.01782307626470       -3.86339454640871        0.81784395587371
C            0.28179843529533       -5.21219842136716        0.74144783726479
C            0.47744634834069       -5.81280732214436       -0.49178703457842
C            0.37100422466389       -5.06398495805886       -1.65192385116770
C            0.07215268203917       -3.71403384611999       -1.58275115772843
C           -1.72390764830378       -1.30996101982150       -0.20091238381071
C           -2.71523754303301       -2.29641298820044       -0.09602010275456
C           -4.03366075005122       -1.94011587727584        0.09328244572185
C           -4.41725028133643       -0.59458981089027        0.23656027463059
C           -3.41145818884195        0.36972754863693        0.09016714016869
C           -2.07066262237508        0.06344919724484       -0.21001458371395
B           -0.95584307055647        1.08196894369571       -0.53254922973234
C           -1.00773823321206        2.54630293814440       -1.02268030563929
C           -2.12183093109501        3.16123324506848       -1.60605132806850
C           -2.12369223055896        4.48371013589810       -1.99027145076463
C           -0.98462522169121        5.25301218471943       -1.78528456945171
C            0.15277632469348        4.67563715353256       -1.26924208355422
C            0.17426165299891        3.31640629176954       -0.92535084669268
N            1.36979005731137        2.75256109966449       -0.51364340011103
C            2.49594744746741        3.60520622188831       -0.30190125255022
C            3.36616385211371        3.90075107522673       -1.34461124523359
C            4.46542517422053        4.70915045398840       -1.11502161376848
C            4.69827151137910        5.22428550251439        0.15008059683316
C            3.82871430806771        4.93235341113762        1.18755576503329
C            2.72817371518499        4.12253849938711        0.96518248999779
O           -3.70142435534931        1.67619412858069        0.28530416329462
C           -4.96648273602600        2.13172041748228        0.47832208419220
C           -5.05835976766134        3.52486261363277        0.57019597374042
C           -6.28571037275943        4.12737085308973        0.71744818484493
C           -7.43559355577881        3.34537875852089        0.76371238734153
C           -7.33746741517339        1.97379137999941        0.69082737262194
C           -6.10743927265098        1.31095421057363        0.56841870958143
B           -5.86114739986351       -0.21786146970146        0.52824370008110
C           -6.79560337532835       -1.44225587781127        0.72994052634915
C           -8.13975387334765       -1.41554407853455        1.12595215815547
C           -8.90285980379743       -2.55695493753972        1.24329360794729
C           -8.34113880759495       -3.79741965218136        0.96513152232269
C           -7.01624190938712       -3.87713559307731        0.60053109075533
C           -6.24524472184710       -2.71659608672890        0.49579571850427
O           -4.94124769840002       -2.94696580789752        0.16604321910755
C            4.21432085732212       -2.61866408548503       -1.66402362648866
C            4.55903597181262       -3.85014355101307       -2.18628963501408
H            5.65665699242337       -5.66722011107409       -1.89125801113055
H            6.51201313395387       -4.98183306550611        0.32304763801446
H            5.89098466542247       -2.79828148220929        1.26761005340213
H            3.88803672494695        0.45633933337879        2.30787366838410
H            5.55320027945021        1.77787266995659        3.54293962380003
H            7.90732011869562        1.82402831931107        2.79430647710022
H            8.57812615622175        0.53632287777206        0.79537862069428
H            6.91037397124226       -0.77085158345465       -0.45156801918946
H            3.70697744951946        1.53929367390065       -0.19545966717874
H            2.12951163051572       -2.40972565429717        0.05587210774562
H           -0.17178875503490       -3.38389230181438        1.77348184335833
H            0.36391556324660       -5.79450225244318        1.64717681305639
H            0.71260317973242       -6.86507046409978       -0.54747597645175
H            0.52243605673602       -5.53042078094122       -2.61391384547446
H           -0.01140145414276       -3.11847846784523       -2.47980795600217
H           -2.46907729298986       -3.34446992554670       -0.14463231211032
H           -3.00795894298473        2.56839655595415       -1.77055166798877
H           -3.00428828498184        4.92345750573046       -2.43666398495826
H           -0.97949174243498        6.30099770558274       -2.05046487514908
H            1.04222654619068        5.27612828555996       -1.14919391185598
H            3.17485644956407        3.49287200931384       -2.32656447344611
H            5.14183147876686        4.93626134302322       -1.92574439476906
H            5.55777241385140        5.85356424828329        0.32637822935806
H            4.00772915080664        5.33378302481916        2.17390822824685
H            2.04452940039507        3.88537629196217        1.76719954556818
H           -4.14683005001815        4.09978633937370        0.50714973808988
H           -6.35503101999483        5.20318491624518        0.78456736796499
H           -8.40342547802613        3.81608213438651        0.85797311656211
H           -8.24204432720630        1.38758600790136        0.71460846848714
H           -8.59067945725670       -0.46504991381267        1.36111866914511
H           -9.93645166397579       -2.48948563398028        1.55009285662278
H           -8.93434015443303       -4.69647060219577        1.04524815262786
H           -6.54315738055407       -4.82645079664362        0.39744772534040
H            3.57644335084264       -1.94877129202859       -2.22170475565557
H            4.18470239065917       -4.13942731876553       -3.15755790391158

          :  Hamiltonian                  GFN2-xTB          :
         :: gradient norm              0.000030122559 Eh/a0 ::
         :: HOMO-LUMO gap              2.112502154384 eV    ::
         :: SCC energy              -155.740425882374 Eh    ::
         :: -> dispersion             -0.147776368100 Eh    ::
         :: -> Gsolv                  -0.059720069330 Eh    ::
         :: repulsion energy           2.728011924672 Eh    ::

    * Orbital Energies and Occupations

         #    Occupation            Energy/Eh            Energy/eV
      -------------------------------------------------------------
         1        2.0000           -0.7263486             -19.7650
       ...           ...                  ...                  ...
       130        2.0000           -0.4022057             -10.9446
       131        2.0000           -0.4005250             -10.8988
       132        2.0000           -0.3994338             -10.8691
       133        2.0000           -0.3983466             -10.8396
       134        2.0000           -0.3932106             -10.6998
       135        2.0000           -0.3884250             -10.5696
       136        2.0000           -0.3862176             -10.5095
       137        2.0000           -0.3825642             -10.4101
       138        2.0000           -0.3783421             -10.2952
       139        2.0000           -0.3682250             -10.0199
       140        2.0000           -0.3607041              -9.8153
       141        2.0000           -0.3467637              -9.4359
       142        2.0000           -0.3447706              -9.3817 (HOMO)
       143                         -0.2671376              -7.2692 (LUMO)
       144                         -0.2549269              -6.9369
       145                         -0.2346413              -6.3849
       146                         -0.2334333              -6.3520
       147                         -0.2329961              -6.3401
       148                         -0.2322998              -6.3212
       149                         -0.2289344              -6.2296
       150                         -0.2268360              -6.1725
       151                         -0.2249045              -6.1200
       152                         -0.2233920              -6.0788
       153                         -0.2207595              -6.0072
       ...                                ...                  ...
       279                          0.7203831              19.6026
      -------------------------------------------------------------
                  HL-Gap            0.0776329 Eh            2.1125 eV

     #   Z          covCN         q      C6AA      α(0)
     1   6 C        2.919    -0.040    28.992     8.830
     2   6 C        2.919    -0.031    28.769     8.796
     3   6 C        2.922    -0.048    29.202     8.862
     4   6 C        2.923     0.067    26.511     8.444
     5   7 N        2.754    -0.081    22.815     7.094
     6   6 C        2.924     0.067    26.510     8.443
     7   6 C        2.922    -0.048    29.190     8.860
     8   6 C        2.919    -0.031    28.771     8.796
     9   6 C        2.919    -0.040    28.993     8.830
    10   6 C        2.919    -0.031    28.769     8.796
    11   6 C        2.922    -0.048    29.204     8.862
    12   6 C        2.923     0.067    26.498     8.442
    13   6 C        2.922    -0.089    30.243     9.018
    14   6 C        2.927     0.062    26.602     8.458
    15   6 C        2.899    -0.112    30.833     9.104
    16   6 C        2.927     0.060    26.647     8.466
    17   6 C        2.921    -0.089    30.233     9.017
    18   7 N        2.757    -0.048    22.168     6.993
    19   6 C        2.933     0.067    26.497     8.442
    20   6 C        2.921    -0.037    28.920     8.819
    21   6 C        2.920    -0.028    28.690     8.784
    22   6 C        2.920    -0.030    28.741     8.791
    23   6 C        2.920    -0.027    28.665     8.780
    24   6 C        2.922    -0.037    28.920     8.819
    25   6 C        2.928     0.064    26.560     8.452
    26   6 C        2.916    -0.098    30.478     9.053
    27   6 C        2.871     0.136    25.035     8.202
    28   6 C        2.885    -0.134    31.436     9.192
    29   6 C        2.873     0.135    25.052     8.205
    30   6 C        2.883    -0.116    30.952     9.121
    31   5 B        2.724     0.197    18.431     7.194
    32   6 C        2.887    -0.081    30.029     8.984
    33   6 C        2.923    -0.030    28.746     8.792
    34   6 C        2.914    -0.046    29.130     8.850
    35   6 C        2.919    -0.032    28.798     8.800
    36   6 C        2.920    -0.058    29.438     8.897
    37   6 C        2.926     0.060    26.663     8.468
    38   7 N        2.755    -0.057    22.338     7.020
    39   6 C        2.932     0.068    26.470     8.438
    40   6 C        2.921    -0.037    28.928     8.820
    41   6 C        2.920    -0.028    28.704     8.786
    42   6 C        2.920    -0.030    28.753     8.793
    43   6 C        2.920    -0.027    28.678     8.782
    44   6 C        2.922    -0.037    28.931     8.821
    45   8 O        1.712    -0.224    17.711     5.682
    46   6 C        2.875     0.136    25.030     8.201
    47   6 C        2.916    -0.054    29.343     8.883
    48   6 C        2.919    -0.028    28.701     8.785
    49   6 C        2.915    -0.042    29.033     8.836
    50   6 C        2.924    -0.034    28.850     8.808
    51   6 C        2.882    -0.092    30.314     9.026
    52   5 B        2.723     0.207    18.285     7.166
    53   6 C        2.882    -0.092    30.302     9.024
    54   6 C        2.925    -0.034    28.853     8.809
    55   6 C        2.915    -0.042    29.040     8.837
    56   6 C        2.920    -0.029    28.716     8.788
    57   6 C        2.916    -0.056    29.380     8.888
    58   6 C        2.876     0.136    25.024     8.200
    59   8 O        1.711    -0.247    18.083     5.741
    60   6 C        2.922    -0.048    29.192     8.860
    61   6 C        2.919    -0.031    28.771     8.796
    62   1 H        0.926     0.032     2.559     2.502
    63   1 H        0.926     0.033     2.547     2.496
    64   1 H        0.926     0.030     2.582     2.513
    65   1 H        0.926     0.032     2.564     2.504
    66   1 H        0.926     0.033     2.544     2.494
    67   1 H        0.926     0.032     2.560     2.502
    68   1 H        0.926     0.033     2.546     2.495
    69   1 H        0.926     0.030     2.581     2.512
    70   1 H        0.926     0.024     2.673     2.557
    71   1 H        0.926     0.024     2.668     2.554
    72   1 H        0.926     0.043     2.412     2.428
    73   1 H        0.926     0.044     2.399     2.422
    74   1 H        0.926     0.044     2.398     2.422
    75   1 H        0.926     0.045     2.384     2.414
    76   1 H        0.926     0.043     2.407     2.426
    77   1 H        0.926     0.038     2.480     2.463
    78   1 H        0.926     0.027     2.624     2.533
    79   1 H        0.926     0.018     2.757     2.596
    80   1 H        0.926     0.022     2.698     2.569
    81   1 H        0.926     0.021     2.713     2.576
    82   1 H        0.926     0.042     2.421     2.433
    83   1 H        0.926     0.042     2.416     2.431
    84   1 H        0.926     0.042     2.416     2.431
    85   1 H        0.926     0.043     2.405     2.425
    86   1 H        0.926     0.042     2.427     2.436
    87   1 H        0.926     0.043     2.410     2.428
    88   1 H        0.926     0.037     2.487     2.466
    89   1 H        0.926     0.033     2.540     2.492
    90   1 H        0.926     0.040     2.450     2.448
    91   1 H        0.926     0.041     2.439     2.442
    92   1 H        0.926     0.033     2.539     2.492
    93   1 H        0.926     0.037     2.488     2.467
    94   1 H        0.926     0.040     2.451     2.448
    95   1 H        0.926     0.032     2.560     2.502
    96   1 H        0.926     0.033     2.540     2.492

molecular dipole:
                 x           y           z       tot (Debye)
 q only:        1.210      -0.182       0.121
   full:        1.294      -0.249       0.111       3.362

 projected vibrational frequencies (cm⁻¹)
eigval :       -0.00    -0.00    -0.00     0.00     0.00     0.00
eigval :       11.68    14.01    17.67    23.16    27.49    30.53
eigval :       33.45    40.66    42.70    50.17    52.17    55.34
eigval :       61.24    66.08    69.85    71.34    78.18    84.52
eigval :       94.08   116.12   125.60   138.18   151.34   161.60
eigval :      175.12   177.29   187.63   199.66   206.61   211.99
eigval :      218.96   230.66   236.32   237.68   240.29   258.39
eigval :      261.04   266.54   269.18   277.55   311.79   322.71
eigval :      333.36   345.41   360.53   375.67   375.86   378.25
eigval :      380.06   383.67   386.46   391.59   402.77   415.86
eigval :      420.65   426.60   441.56   461.78   467.78   481.32
eigval :      484.47   486.45   493.17   495.89   498.13   501.59
eigval :      520.15   538.19   543.34   553.80   555.30   564.55
eigval :      572.28   577.72   582.55   584.90   588.27   589.83
eigval :      593.55   598.52   600.02   606.48   608.17   621.53
eigval :      632.79   639.09   652.87   659.02   661.71   668.36
eigval :      673.18   676.73   679.14   689.42   692.41   698.64
eigval :      705.53   708.07   719.81   745.43   754.77   755.92
eigval :      769.61   770.52   773.69   776.17   779.80   794.16
eigval :      817.38   820.15   826.43   842.00   847.03   868.04
eigval :      872.58   873.48   874.32   875.27   875.92   877.41
eigval :      877.74   880.55   889.92   892.11   896.83   901.46
eigval :      903.69   906.06   911.09   911.27   913.52   914.04
eigval :      922.07   925.98   926.64   927.27   927.85   927.91
eigval :      928.33   928.80   929.66   929.73   931.04   931.24
eigval :      974.16   982.03   993.03  1004.55  1006.64  1054.96
eigval :     1071.55  1075.79  1076.71  1078.61  1080.94  1082.87
eigval :     1083.22  1090.96  1098.46  1103.49  1110.00  1111.11
eigval :     1114.07  1120.78  1123.20  1126.67  1147.36  1160.91
eigval :     1170.91  1174.08  1175.21  1178.26  1179.25  1179.30
eigval :     1179.88  1182.76  1184.69  1187.65  1188.81  1194.33
eigval :     1197.64  1207.89  1213.97  1215.67  1226.21  1237.39
eigval :     1247.95  1252.38  1260.46  1265.03  1271.06  1272.74
eigval :     1274.60  1276.98  1280.08  1284.75  1292.00  1299.27
eigval :     1307.50  1308.32  1308.47  1314.98  1317.77  1318.45
eigval :     1322.86  1325.56  1328.69  1333.58  1350.02  1354.26
eigval :     1372.27  1396.54  1408.83  1415.21  1423.13  1424.93
eigval :     1426.78  1430.57  1431.38  1435.10  1440.82  1443.84
eigval :     1450.77  1454.78  1464.51  1469.69  1471.21  1473.56
eigval :     1475.88  1510.14  1533.70  1547.88  1549.69  1550.95
eigval :     1560.73  1567.93  1575.43  1579.73  1582.70  1583.17
eigval :     1591.90  1591.93  1592.09  1593.23  1594.88  1595.73
eigval :     1599.08  3060.42  3070.69  3070.79  3070.91  3071.26
eigval :     3072.05  3072.58  3073.30  3077.27  3077.74  3079.09
eigval :     3079.31  3079.87  3081.05  3081.55  3082.82  3085.54
eigval :     3085.74  3086.39  3086.82  3087.05  3089.59  3090.35
eigval :     3090.45  3093.55  3093.90  3094.42  3097.46  3098.05
eigval :     3099.73  3103.51  3108.01  3109.67  3109.86  3113.43

   temp. (K)  partition function   enthalpy   heat capacity  entropy
                                   cal/mol     cal/K/mol   cal/K/mol   J/K/mol
 298.15  VIB  0.331E+22            27923.678    177.197    173.187
         ROT  0.139E+09              888.752      2.981     40.237
         INT  0.459E+30            28812.430    180.178    213.424
         TR   0.211E+29             1481.254      4.968     45.818
         TOT                       30293.6842   185.1459   259.2422  1084.6695

       T/K    H(0)-H(T)+PV         H(T)/Eh          T*S/Eh         G(T)/Eh
   ------------------------------------------------------------------------
    298.15    0.482761E-01    0.772562E+00    0.123174E+00    0.649388E+00
   ------------------------------------------------------------------------

         :::::::::::::::::::::::::::::::::::::::::::::::::::::
         ::                  THERMODYNAMIC                  ::
         :::::::::::::::::::::::::::::::::::::::::::::::::::::
         :: total free energy        -152.363026158270 Eh   ::
         ::.................................................::
         :: total energy             -153.012413961801 Eh   ::
         :: zero point energy           0.724286092245 Eh   ::
         :: G(RRHO) w/o ZPVE           -0.074898288713 Eh   ::
         :: G(RRHO) contrib.            0.649387803531 Eh   ::
         :::::::::::::::::::::::::::::::::::::::::::::::::::::

           -------------------------------------------------
          | TOTAL ENERGY             -153.012413961801 Eh   |
          | TOTAL ENTHALPY           -152.239851810873 Eh   |
          | TOTAL FREE ENERGY        -152.363026158270 Eh   |
          | GRADIENT NORM               0.000030105076 Eh/α |
          | HOMO-LUMO GAP               2.112499806961 eV   |
           -------------------------------------------------

 * finished run on 2025/08/23 at 01:38:06.687
