   * xtb version 6.7.1 (edcfbbe) compiled by 'albert@albert-system' on 2024-07-22

   ID    Z sym.   atoms
    1    6 C      1-4, 6-17, 19-30, 32-37, 39-44, 46-51, 53-58, 60, 61
    2    7 N      5, 18, 38
    3    5 B      31, 52
    4    8 O      45, 59
    5    1 H      62-96

          program call               : xtb data2507/toluene/TPD4PA/TPD4PA_toluene_S0_finalOpt.xtbopt.xyz --gfn 2 --uhf 2 --gbsa toluene --ohess vtight --parallel 40 --molden --ceasefiles --namespace data2507/toluene/TPD4PA/TPD4PA_toluene_T1_preOpt
      * Solvation model:               GBSA
        Solvent                        toluene
        Solvent mass                       9.2140E+01 g/mol
          :  Hamiltonian                  GFN2-xTB          :
 * total energy  :  -152.9231001 Eh     change       -0.4564242E-08 Eh
 * total energy  :  -152.9238131 Eh     change       -0.7129305E-03 Eh
 * total energy  :  -152.9239998 Eh     change       -0.1867725E-03 Eh
 * total energy  :  -152.9240202 Eh     change       -0.2040867E-04 Eh
 * total energy  :  -152.9240326 Eh     change       -0.1232838E-04 Eh
 * total energy  :  -152.9240367 Eh     change       -0.4151440E-05 Eh
 * total energy  :  -152.9240480 Eh     change       -0.1131232E-04 Eh
 * total energy  :  -152.9240516 Eh     change       -0.3613682E-05 Eh
 * total energy  :  -152.9240606 Eh     change       -0.8924376E-05 Eh
 * total energy  :  -152.9240635 Eh     change       -0.2961794E-05 Eh
 * total energy  :  -152.9241281 Eh     change       -0.8209674E-06 Eh
 * total energy  :  -152.9241290 Eh     change       -0.8902858E-06 Eh
 * total energy  :  -152.9241301 Eh     change       -0.1049727E-05 Eh
 * total energy  :  -152.9241313 Eh     change       -0.1181377E-05 Eh
 * total energy  :  -152.9241324 Eh     change       -0.1139611E-05 Eh
 * total energy  :  -152.9241335 Eh     change       -0.1093549E-05 Eh
 * total energy  :  -152.9241345 Eh     change       -0.9779323E-06 Eh
 * total energy  :  -152.9241353 Eh     change       -0.8632957E-06 Eh
 * total energy  :  -152.9241353 Eh     change       -0.6851224E-08 Eh
   *** GEOMETRY OPTIMIZATION CONVERGED AFTER 44 ITERATIONS ***

 final structure:
================
96
 xtb: 6.7.1 (edcfbbe)
C            7.37312911949795        0.97033580378363        2.48677080055763
C            7.77048558322311        0.23555913653853        1.38010932976828
C            6.84378510488760       -0.47376852554456        0.64170194193102
C            5.49613836220869       -0.46201963149202        1.00684239914318
N            4.55191052655375       -1.16770476870471        0.25384437712994
C            4.87813610948970       -2.41361447336853       -0.28914781429290
C            5.68031836506317       -3.30684384023171        0.42453512696021
C            5.99563251162522       -4.53960504125003       -0.11177756890062
C            5.51599743416209       -4.90666899024041       -1.35980891435551
C            4.71859442675887       -4.02432605211348       -2.07225521496018
C            4.40179356578734       -2.78705684172686       -1.54770307128752
C            3.28533214975727       -0.61866112960149        0.03901208342614
C            3.14160123866369        0.76384755904315       -0.12393083758906
C            1.88039121881759        1.31530870130621       -0.32569663705307
C            0.72801951024525        0.49668440517041       -0.36719488203761
C            0.89715837364005       -0.89728143006389       -0.20770058889468
C            2.16164107592548       -1.44568673117307       -0.00645671030040
N           -0.21531534822677       -1.71694041951741       -0.26733112632144
C            0.01405409685708       -3.12689207198552       -0.29321841482976
C            0.01775718424156       -3.86093124501168        0.88667422750484
C            0.26242110152280       -5.22232953566487        0.84729090101876
C            0.50404718087263       -5.85156873948751       -0.36337510495542
C            0.49772278706511       -5.11869221165586       -1.53854858796831
C            0.25495401125428       -3.75624097302216       -1.50700475967455
C           -1.51385073482889       -1.26093291304669       -0.22822706984477
C           -2.55421905662026       -2.19461146964854       -0.18146013994223
C           -3.86779359892280       -1.77193389884226       -0.02774159163198
C           -4.19248675385815       -0.41530314066231        0.13842621958561
C           -3.13393378134982        0.49672219560972        0.05905473922315
C           -1.80016763592192        0.13243471201560       -0.23623365944201
B           -0.64561455469133        1.10088052465238       -0.55329438550704
C           -0.63705223960116        2.56403079615244       -1.02994125336265
C           -1.71824447821806        3.22680660213973       -1.62730702417615
C           -1.66662877305660        4.56148399416985       -1.97333619319720
C           -0.50708389673382        5.29095461702551       -1.73865752496778
C            0.60853121509263        4.66083457861853       -1.22180940822431
C            0.57368424948616        3.29762089200534       -0.90448626604977
N            1.73934395881878        2.67930673849406       -0.48784822276797
C            2.90006882563253        3.48459272047974       -0.27655951657652
C            3.78256851467440        3.74075131960212       -1.31916267859237
C            4.91330732310197        4.50451014825330       -1.08872643131510
C            5.16506544069656        5.01207910852489        0.17582478512694
C            4.28290006902027        4.75783139326658        1.21276324872730
C            3.15018288468368        3.99367283657410        0.99079183251300
O           -3.35815599359560        1.82322630857126        0.27897840129126
C           -4.60771759969135        2.33480331509596        0.45463947695954
C           -4.62884827219169        3.72347570971290        0.58995815623102
C           -5.82985409094647        4.39078541388104        0.74229529259108
C           -7.01257050670282        3.66685428333028        0.75079886043826
C           -6.98356171160126        2.29007348591374        0.63077424613165
C           -5.79157905372522        1.56419705522068        0.49584844110030
B           -5.63133175195861        0.02547636260627        0.39030409310313
C           -6.62757305062818       -1.14903782174036        0.49275493530031
C           -7.99987882250047       -1.07712340446086        0.79370826180496
C           -8.81519906616596       -2.18638733119499        0.84040712872677
C           -8.29435365465573       -3.44995043477732        0.58447490527758
C           -6.94786009330372       -3.57799246998483        0.30378355219260
C           -6.12914364070027       -2.45273911378303        0.26526106218467
O           -4.81369066007689       -2.73560392986122       -0.00058030791541
C            5.10251977948997        0.27538030366248        2.12568694066253
C            6.03639356834253        0.98526651192611        2.85394360897567
H            8.10004960997511        1.52588730305100        3.05956143583226
H            8.80940649884460        0.22207943733379        1.08458842853402
H            7.15258332114570       -1.03517850548602       -0.22793250891291
H            6.04469073269224       -3.02772712359803        1.40232358358605
H            6.61356188196439       -5.22266282063770        0.45252948347444
H            5.76237836116423       -5.87257714969110       -1.77393264932056
H            4.34704415309054       -4.29889988807305       -3.04851525540323
H            3.79218560905970       -2.09548900374497       -2.11008566797687
H            4.02176830640768        1.38502552959320       -0.09037498750801
H            2.28834427965583       -2.50794555071160        0.12922685839274
H           -0.17275661828736       -3.35952731411042        1.82413344061141
H            0.26514880024775       -5.79188739152605        1.76462975443051
H            0.69488470309780       -6.91379033926808       -0.38997381127945
H            0.68323338359411       -5.60732575600892       -2.48323533642446
H            0.24767796768147       -3.17403391971101       -2.41641413301171
H           -2.36456247459567       -3.25374483234201       -0.24754572758622
H           -2.62283179659427        2.67040386224101       -1.81482594709566
H           -2.52939208609971        5.04211032784391       -2.41283610653763
H           -0.46406824102003        6.34288369194257       -1.98053464422252
H            1.51642239957503        5.22773343181682       -1.08264485085450
H            3.57536397468915        3.34002763739654       -2.30050486447929
H            5.59888620402575        4.70267877413391       -1.89898556749147
H            6.04879331017885        5.60643284410446        0.35232288791997
H            4.47581384455413        5.15364033800905        2.19849212853128
H            2.45547643832926        3.78724744324381        1.79148229095674
H           -3.68843807778809        4.25337825000187        0.55998642942847
H           -5.84164002528661        5.46620484015805        0.84380805335002
H           -7.95918144635642        4.17886786727427        0.85348270986015
H           -7.91966387494053        1.75500013995664        0.63139026320672
H           -8.43027765376576       -0.11254080720813        1.01018837324935
H           -9.86420223917839       -2.07583952972924        1.07772935776329
H           -8.92855207081740       -4.32349608117524        0.61295303431770
H           -6.50371120752482       -4.54418793592058        0.11263602621411
H            4.06338251934126        0.27798087588311        2.41979968012698
H            5.71968249503795        1.54865108479326        3.71936910978340

          :  Hamiltonian                  GFN2-xTB          :
         :: gradient norm              0.000056612357 Eh/a0 ::
         :: HOMO-LUMO gap              0.109468948319 eV    ::
         :: SCC energy              -155.637254404067 Eh    ::
         :: -> dispersion             -0.147414864545 Eh    ::
         :: -> Gsolv                  -0.063364397949 Eh    ::
         :: repulsion energy           2.713119060769 Eh    ::

    * Orbital Energies and Occupations

         #    Occupation            Energy/Eh            Energy/eV
      -------------------------------------------------------------
         1        2.0000           -0.7218290             -19.6420
       ...           ...                  ...                  ...
       131        2.0000           -0.3987094             -10.8494
       132        2.0000           -0.3964154             -10.7870
       133        2.0000           -0.3929308             -10.6922
       134        2.0000           -0.3880987             -10.5607
       135        2.0000           -0.3849324             -10.4745
       136        2.0000           -0.3770776             -10.2608
       137        2.0000           -0.3761503             -10.2356
       138        2.0000           -0.3738663             -10.1734
       139        2.0000           -0.3698347             -10.0637
       140        1.9983           -0.3588883              -9.7658
       141        1.7713           -0.3539940              -9.6327
       142        1.2304           -0.3516929              -9.5701
       143        0.8926           -0.2583761              -7.0308 (HOMO)
       144        0.1074           -0.2543533              -6.9213 (LUMO)
       145                         -0.2385623              -6.4916
       146                         -0.2370050              -6.4492
       147                         -0.2366766              -6.4403
       148                         -0.2357147              -6.4141
       149                         -0.2352408              -6.4012
       150                         -0.2305338              -6.2731
       151                         -0.2285858              -6.2201
       152                         -0.2260670              -6.1516
       153                         -0.2257101              -6.1419
       154                         -0.2185068              -5.9459
       ...                                ...                  ...
       279                          0.7209822              19.6189
      -------------------------------------------------------------
                  HL-Gap            0.0040229 Eh            0.1095 eV

     #   Z          covCN         q      C6AA      α(0)
     1   6 C        2.919    -0.036    28.906     8.817
     2   6 C        2.919    -0.029    28.723     8.789
     3   6 C        2.922    -0.045    29.129     8.851
     4   6 C        2.925     0.063    26.581     8.455
     5   7 N        2.753    -0.057    22.333     7.019
     6   6 C        2.924     0.063    26.580     8.455
     7   6 C        2.922    -0.046    29.139     8.852
     8   6 C        2.919    -0.029    28.720     8.788
     9   6 C        2.919    -0.036    28.907     8.817
    10   6 C        2.919    -0.029    28.725     8.789
    11   6 C        2.922    -0.046    29.145     8.853
    12   6 C        2.921     0.055    26.777     8.486
    13   6 C        2.919    -0.079    29.964     8.976
    14   6 C        2.924     0.060    26.663     8.468
    15   6 C        2.897    -0.103    30.600     9.070
    16   6 C        2.924     0.052    26.823     8.493
    17   6 C        2.919    -0.069    29.708     8.938
    18   7 N        2.756    -0.034    21.896     6.950
    19   6 C        2.934     0.064    26.560     8.452
    20   6 C        2.921    -0.037    28.912     8.818
    21   6 C        2.920    -0.027    28.670     8.781
    22   6 C        2.919    -0.029    28.725     8.789
    23   6 C        2.920    -0.026    28.654     8.778
    24   6 C        2.922    -0.037    28.916     8.818
    25   6 C        2.925     0.061    26.641     8.464
    26   6 C        2.914    -0.100    30.515     9.058
    27   6 C        2.871     0.139    24.973     8.192
    28   6 C        2.882    -0.130    31.305     9.173
    29   6 C        2.870     0.115    25.455     8.271
    30   6 C        2.883    -0.093    30.325     9.028
    31   5 B        2.725     0.170    18.827     7.270
    32   6 C        2.886    -0.068    29.693     8.934
    33   6 C        2.921    -0.035    28.875     8.812
    34   6 C        2.913    -0.035    28.867     8.810
    35   6 C        2.917    -0.037    28.918     8.818
    36   6 C        2.919    -0.057    29.426     8.896
    37   6 C        2.924     0.059    26.667     8.469
    38   7 N        2.755    -0.029    21.801     6.935
    39   6 C        2.933     0.065    26.553     8.451
    40   6 C        2.921    -0.036    28.901     8.816
    41   6 C        2.920    -0.027    28.665     8.780
    42   6 C        2.919    -0.029    28.713     8.787
    43   6 C        2.920    -0.026    28.641     8.776
    44   6 C        2.922    -0.036    28.895     8.815
    45   8 O        1.711    -0.237    17.926     5.717
    46   6 C        2.872     0.134    25.079     8.209
    47   6 C        2.916    -0.062    29.536     8.912
    48   6 C        2.918    -0.038    28.936     8.821
    49   6 C        2.914    -0.043    29.065     8.841
    50   6 C        2.924    -0.045    29.115     8.849
    51   6 C        2.880    -0.092    30.294     9.023
    52   5 B        2.722     0.176    18.743     7.255
    53   6 C        2.880    -0.095    30.391     9.038
    54   6 C        2.925    -0.043    29.072     8.842
    55   6 C        2.914    -0.043    29.059     8.840
    56   6 C        2.918    -0.042    29.032     8.836
    57   6 C        2.915    -0.059    29.461     8.901
    58   6 C        2.875     0.126    25.228     8.234
    59   8 O        1.712    -0.246    18.072     5.740
    60   6 C        2.922    -0.046    29.137     8.852
    61   6 C        2.919    -0.029    28.724     8.789
    62   1 H        0.926     0.036     2.498     2.472
    63   1 H        0.926     0.038     2.481     2.463
    64   1 H        0.926     0.036     2.499     2.472
    65   1 H        0.926     0.036     2.504     2.474
    66   1 H        0.926     0.037     2.485     2.465
    67   1 H        0.926     0.036     2.501     2.473
    68   1 H        0.926     0.038     2.479     2.462
    69   1 H        0.926     0.037     2.493     2.469
    70   1 H        0.926     0.035     2.521     2.483
    71   1 H        0.926     0.036     2.503     2.474
    72   1 H        0.926     0.044     2.395     2.420
    73   1 H        0.926     0.046     2.376     2.411
    74   1 H        0.926     0.046     2.377     2.411
    75   1 H        0.926     0.047     2.356     2.400
    76   1 H        0.926     0.045     2.378     2.411
    77   1 H        0.926     0.036     2.500     2.472
    78   1 H        0.926     0.027     2.628     2.535
    79   1 H        0.926     0.021     2.716     2.577
    80   1 H        0.926     0.024     2.672     2.556
    81   1 H        0.926     0.026     2.649     2.545
    82   1 H        0.926     0.046     2.371     2.408
    83   1 H        0.926     0.047     2.361     2.403
    84   1 H        0.926     0.046     2.370     2.408
    85   1 H        0.926     0.047     2.354     2.399
    86   1 H        0.926     0.045     2.383     2.414
    87   1 H        0.926     0.032     2.557     2.501
    88   1 H        0.926     0.026     2.645     2.543
    89   1 H        0.926     0.023     2.693     2.566
    90   1 H        0.926     0.027     2.628     2.535
    91   1 H        0.926     0.028     2.615     2.529
    92   1 H        0.926     0.023     2.692     2.566
    93   1 H        0.926     0.025     2.654     2.547
    94   1 H        0.926     0.030     2.582     2.513
    95   1 H        0.926     0.036     2.500     2.473
    96   1 H        0.926     0.038     2.481     2.463

molecular dipole:
                 x           y           z       tot (Debye)
 q only:        5.225      -0.420      -0.096
   full:        5.180      -0.484      -0.093      13.225

 projected vibrational frequencies (cm⁻¹)
eigval :       -0.00    -0.00    -0.00     0.00     0.00     0.00
eigval :        5.74    11.99    17.65    19.24    25.69    29.33
eigval :       30.99    36.56    40.29    45.36    50.27    53.51
eigval :       59.53    60.44    68.15    68.83    81.10    85.50
eigval :       95.32   108.49   124.22   135.99   149.06   157.85
eigval :      171.06   174.69   186.67   196.74   205.10   210.69
eigval :      219.55   229.16   231.35   238.54   240.53   247.15
eigval :      260.73   266.41   267.24   272.67   310.75   321.47
eigval :      329.02   342.49   354.74   371.50   372.41   376.06
eigval :      377.70   381.33   386.35   392.45   401.47   405.62
eigval :      416.43   418.08   442.58   456.89   463.41   475.37
eigval :      477.69   480.71   486.86   491.47   497.07   497.55
eigval :      507.73   518.88   531.15   535.98   542.94   548.77
eigval :      555.93   564.71   573.76   581.69   585.52   587.46
eigval :      592.04   594.04   595.86   600.13   604.03   614.04
eigval :      622.80   634.78   647.74   655.15   657.69   660.56
eigval :      665.82   670.35   672.39   677.88   679.28   692.76
eigval :      694.92   700.92   704.75   742.00   754.03   754.26
eigval :      756.84   757.21   764.90   768.92   774.84   786.37
eigval :      797.99   798.42   817.74   833.04   840.14   851.46
eigval :      854.10   858.02   864.91   870.66   871.45   876.08
eigval :      876.38   876.78   890.08   890.83   891.92   893.28
eigval :      893.60   893.76   899.71   902.12   904.42   908.94
eigval :      909.93   913.40   915.30   918.78   926.40   926.66
eigval :      927.62   928.69   929.05   929.88   932.33   932.36
eigval :      970.55   979.19   990.83   998.20  1001.26  1034.36
eigval :     1054.69  1061.59  1076.38  1078.23  1078.73  1079.92
eigval :     1081.14  1085.20  1096.57  1098.67  1105.38  1111.60
eigval :     1114.14  1116.33  1120.55  1122.91  1138.54  1152.70
eigval :     1163.40  1165.66  1171.32  1177.51  1178.41  1179.02
eigval :     1180.41  1181.88  1183.32  1184.83  1187.46  1191.42
eigval :     1195.03  1198.64  1201.38  1208.60  1220.26  1228.64
eigval :     1234.17  1239.79  1246.29  1248.44  1253.94  1263.85
eigval :     1270.98  1271.55  1273.73  1274.91  1275.96  1286.01
eigval :     1293.06  1296.61  1304.52  1306.18  1306.91  1308.42
eigval :     1319.18  1320.92  1325.16  1326.13  1330.65  1347.50
eigval :     1351.48  1360.25  1372.55  1386.09  1397.05  1400.54
eigval :     1403.25  1408.20  1415.82  1430.17  1430.65  1431.78
eigval :     1437.38  1439.51  1440.66  1458.63  1461.54  1462.36
eigval :     1466.57  1467.49  1472.63  1479.43  1488.05  1518.73
eigval :     1521.70  1533.23  1539.59  1545.57  1561.84  1562.58
eigval :     1567.75  1577.81  1581.06  1581.22  1586.33  1590.63
eigval :     1591.02  3061.52  3062.03  3065.30  3072.39  3073.48
eigval :     3075.16  3075.72  3076.21  3076.73  3077.96  3080.01
eigval :     3080.96  3082.68  3082.75  3084.56  3085.65  3086.91
eigval :     3087.40  3088.46  3088.92  3089.11  3089.84  3092.31
eigval :     3092.61  3093.02  3096.71  3097.38  3099.62  3099.96
eigval :     3100.25  3102.21  3108.14  3108.92  3110.38  3112.63

   temp. (K)  partition function   enthalpy   heat capacity  entropy
                                   cal/mol     cal/K/mol   cal/K/mol   J/K/mol
 298.15  VIB  0.238E+23            28261.130    178.562    176.062
         ROT  0.139E+09              888.752      2.981     40.237
         INT  0.330E+31            29149.882    181.543    216.299
         TR   0.211E+29             1481.254      4.968     45.818
         TOT                       30631.1364   186.5113   262.1172  1096.6982

       T/K    H(0)-H(T)+PV         H(T)/Eh          T*S/Eh         G(T)/Eh
   ------------------------------------------------------------------------
    298.15    0.488138E-01    0.768336E+00    0.124540E+00    0.643796E+00
   ------------------------------------------------------------------------

         :::::::::::::::::::::::::::::::::::::::::::::::::::::
         ::                  THERMODYNAMIC                  ::
         :::::::::::::::::::::::::::::::::::::::::::::::::::::
         :: total free energy        -152.280339814462 Eh   ::
         ::.................................................::
         :: total energy             -152.924135343658 Eh   ::
         :: zero point energy           0.719522030692 Eh   ::
         :: G(RRHO) w/o ZPVE           -0.075726501496 Eh   ::
         :: G(RRHO) contrib.            0.643795529196 Eh   ::
         :::::::::::::::::::::::::::::::::::::::::::::::::::::

           -------------------------------------------------
          | TOTAL ENERGY             -152.924135343658 Eh   |
          | TOTAL ENTHALPY           -152.155799490011 Eh   |
          | TOTAL FREE ENERGY        -152.280339814462 Eh   |
          | GRADIENT NORM               0.000056833298 Eh/α |
          | HOMO-LUMO GAP               0.109467593135 eV   |
           -------------------------------------------------

 * finished run on 2025/08/23 at 01:45:51.909
