   * xtb version 6.7.1 (edcfbbe) compiled by 'albert@albert-system' on 2024-07-22

   ID    Z sym.   atoms
    1    6 C      1-4, 6-17, 19-30, 32-37, 39-44, 46-51, 53-58, 60, 61
    2    7 N      5, 18, 38
    3    5 B      31, 52
    4    8 O      45, 59
    5    1 H      62-96

          program call               : xtb data2507/toluene/TPD4PA/TPD4PA_toluene_S0_crest.xyz --gfn 2 --gbsa toluene --ohess vtight --parallel 40 --molden --ceasefiles --namespace data2507/toluene/TPD4PA/TPD4PA_toluene_S0_finalOpt
      * Solvation model:               GBSA
        Solvent                        toluene
        Solvent mass                       9.2140E+01 g/mol
          :  Hamiltonian                  GFN2-xTB          :
 * total energy  :  -153.0111724 Eh     change       -0.4792554E-08 Eh
 * total energy  :  -153.0112585 Eh     change       -0.8612776E-04 Eh
 * total energy  :  -153.0113591 Eh     change       -0.1006513E-03 Eh
 * total energy  :  -153.0114208 Eh     change       -0.6161277E-04 Eh
 * total energy  :  -153.0115402 Eh     change       -0.1194117E-03 Eh
 * total energy  :  -153.0117549 Eh     change       -0.2147688E-03 Eh
 * total energy  :  -153.0119545 Eh     change       -0.1996009E-03 Eh
 * total energy  :  -153.0120546 Eh     change       -0.1000890E-03 Eh
 * total energy  :  -153.0121018 Eh     change       -0.4714950E-04 Eh
 * total energy  :  -153.0121430 Eh     change       -0.4120302E-04 Eh
 * total energy  :  -153.0124474 Eh     change       -0.5383202E-06 Eh
 * total energy  :  -153.0124477 Eh     change       -0.3141353E-06 Eh
 * total energy  :  -153.0124479 Eh     change       -0.2355496E-06 Eh
 * total energy  :  -153.0124482 Eh     change       -0.2737391E-06 Eh
 * total energy  :  -153.0124486 Eh     change       -0.3317167E-06 Eh
 * total energy  :  -153.0124488 Eh     change       -0.2861452E-06 Eh
 * total energy  :  -153.0124490 Eh     change       -0.1706115E-06 Eh
 * total energy  :  -153.0124491 Eh     change       -0.1154049E-06 Eh
 * total energy  :  -153.0124491 Eh     change       -0.2531493E-08 Eh
   *** GEOMETRY OPTIMIZATION CONVERGED AFTER 44 ITERATIONS ***

 final structure:
================
96
 xtb: 6.7.1 (edcfbbe)
C            7.40240190365594        0.95334916199945        2.45727577025067
C            7.77722642035761        0.22814072805930        1.33776679681914
C            6.83473980354517       -0.47243042352832        0.60967204221977
C            5.49539807422670       -0.46322360698683        0.99892310295898
N            4.53704387505739       -1.16861387215407        0.25987483620713
C            4.85897606887345       -2.42078825934324       -0.27645354899123
C            5.65162978867883       -3.31358094253539        0.44530709343673
C            5.97128336142697       -4.54853003597468       -0.08517069326540
C            5.50216968240879       -4.91857922374001       -1.33532719416899
C            4.71316204404857       -4.03662624997299       -2.05598883747241
C            4.39615083914668       -2.79601871285808       -1.53783820780368
C            3.27023729040594       -0.61361876746361        0.05016234512506
C            3.13691265283369        0.76214557983931       -0.09872274959484
C            1.87872886084508        1.32364417648779       -0.29942839314414
C            0.73032735524988        0.50671695844243       -0.35116996472394
C            0.89214592083036       -0.88581520347168       -0.21273213385693
C            2.15096178435743       -1.43987625483162       -0.00952081509826
N           -0.22312451974999       -1.70239676668676       -0.28517263533761
C            0.00752103541915       -3.11132854923658       -0.35214700004549
C            0.06198830833694       -3.87391997125200        0.80825157528897
C            0.30823301546150       -5.23307564792656        0.72624432347929
C            0.50065492653829       -5.83222311679199       -0.50822646625457
C            0.44386157654800       -5.07147461362677       -1.66400762609919
C            0.19927328132016       -3.71094286245997       -1.58919191405884
C           -1.52031631401831       -1.24424982704973       -0.23271709586635
C           -2.55360377195349       -2.18896036506346       -0.15046288402606
C           -3.86067035335163       -1.77806414849220        0.00429876620163
C           -4.19186944322820       -0.41744373355404        0.13533591459012
C           -3.14379243235852        0.50440784711782        0.01459489766784
C           -1.80959412412383        0.14233477052291       -0.25045330920551
B           -0.64531850034593        1.11399094585853       -0.54088711575176
C           -0.62288983996601        2.57955716414280       -1.02925266764858
C           -1.69306370596009        3.23969630527304       -1.64449928317247
C           -1.62977408886194        4.56169730063983       -2.02511296787758
C           -0.46768467767938        5.28430613293642       -1.78291390379145
C            0.62929576117703        4.66072492991085       -1.23421455444107
C            0.58594237578481        3.30088388148836       -0.89479505424350
N            1.74492517012192        2.68793991694767       -0.44992886798829
C            2.89875665965832        3.49314224786297       -0.20412934806116
C            3.80215102113264        3.76628668112729       -1.22452566312436
C            4.92579052372595        4.53003339003566       -0.96228261768823
C            5.15036351772450        5.02241337049200        0.31333353339708
C            4.24856559622645        4.75189184641992        1.32884277876948
C            3.12328640832590        3.98701558925208        1.07366156577375
O           -3.38472301423874        1.82216952021631        0.20071252202936
C           -4.63479135115933        2.32990988142374        0.35804884702503
C           -4.67225324470006        3.72593080339975        0.44413432239349
C           -5.87770339392184        4.37853816480222        0.55494265445332
C           -7.05941014918534        3.64423559846345        0.57166523539928
C           -7.01528712740975        2.26946446008417        0.50605999950852
C           -5.81037420115705        1.55683270647055        0.41937224746535
B           -5.62558943014729        0.01925817286405        0.39077325657934
C           -6.61358404885111       -1.16481874417375        0.57582013712471
C           -7.96340617023031       -1.08106541303112        0.94343323887252
C           -8.77552919148279       -2.18952870428705        1.04659880327406
C           -8.26007226646837       -3.45281646937090        0.78190711969166
C           -6.93204836010631       -3.58857758557318        0.44626651004575
C           -6.11131553714329       -2.46142798343585        0.35634722062730
O           -4.81096183224064       -2.74623551554765        0.05581863027244
C            5.12557406884002        0.26154696273754        2.13202931404514
C            6.07325968058950        0.96606606432989        2.84863839246085
H            8.14076919790920        1.50334782572330        3.02119970495537
H            8.81067696166071        0.21462520028896        1.02265881200117
H            7.12775212956788       -1.02959404899437       -0.26850363260644
H            6.01182139013886       -3.03098993534146        1.42401831619244
H            6.58450903031149       -5.23015494387326        0.48654441962705
H            5.75042913404164       -5.88625866818604       -1.74483506519680
H            4.34820475989342       -4.31291171742163       -3.03459503543388
H            3.78993900821056       -2.10620537996468       -2.10645146770237
H            4.02027997002682        1.37956732146408       -0.06865498402804
H            2.27717182340463       -2.50282006798728        0.11775796258895
H           -0.08865014660935       -3.39540473419242        1.76488798685722
H            0.35116999949221       -5.82470703277573        1.62863566496515
H            0.69395045077904       -6.89273916382549       -0.56827782805097
H            0.59235134302721       -5.53683261716078       -2.62696851237434
H            0.15525351190854       -3.10601532034939       -2.48281228739721
H           -2.34928903004265       -3.24644994062849       -0.19009238495468
H           -2.59684145921299        2.68309851624162       -1.83738178540579
H           -2.47747561799719        5.03733437027859       -2.49764128944942
H           -0.41258724120626        6.33180053845134       -2.04434902759463
H            1.53796225544460        5.22476354790474       -1.08492060103298
H            3.61703850868651        3.37644472707108       -2.21496928553804
H            5.62760140678413        4.74007795163007       -1.75584408762476
H            6.02878708790784        5.61694513580298        0.51518800581601
H            4.42131512362635        5.13534636892936        2.32342171763204
H            2.41448375371361        3.76683099217576        1.85848012609532
H           -3.73678059383439        4.26314096591128        0.40445531067061
H           -5.90473782130930        5.45659807528798        0.61676120762851
H           -8.00956185136992        4.15422754849628        0.63711702248414
H           -7.94319807995281        1.72036211235890        0.50636969623046
H           -8.37882904283886       -0.11194540988932        1.16787342476409
H           -9.81146417077998       -2.07858775728124        1.33209061885213
H           -8.89168567065534       -4.32628703021898        0.85076941269283
H           -6.49484162202058       -4.55734546968150        0.25506072303567
H            4.09120022160951        0.26637206206346        2.44318667651442
H            5.77246331345372        1.52318903856703        3.72409277965192

          :  Hamiltonian                  GFN2-xTB          :
         :: gradient norm              0.000035056391 Eh/a0 ::
         :: HOMO-LUMO gap              2.112618674106 eV    ::
         :: SCC energy              -155.740537633829 Eh    ::
         :: -> dispersion             -0.147765740664 Eh    ::
         :: -> Gsolv                  -0.059767138755 Eh    ::
         :: repulsion energy           2.728088507642 Eh    ::

    * Orbital Energies and Occupations

         #    Occupation            Energy/Eh            Energy/eV
      -------------------------------------------------------------
         1        2.0000           -0.7263150             -19.7640
       ...           ...                  ...                  ...
       130        2.0000           -0.4022233             -10.9451
       131        2.0000           -0.4005365             -10.8992
       132        2.0000           -0.3994252             -10.8689
       133        2.0000           -0.3982886             -10.8380
       134        2.0000           -0.3932143             -10.6999
       135        2.0000           -0.3884233             -10.5695
       136        2.0000           -0.3862238             -10.5097
       137        2.0000           -0.3825463             -10.4096
       138        2.0000           -0.3782973             -10.2940
       139        2.0000           -0.3682132             -10.0196
       140        2.0000           -0.3607163              -9.8156
       141        2.0000           -0.3467666              -9.4360
       142        2.0000           -0.3447616              -9.3814 (HOMO)
       143                         -0.2671243              -7.2688 (LUMO)
       144                         -0.2549017              -6.9362
       145                         -0.2346452              -6.3850
       146                         -0.2334240              -6.3518
       147                         -0.2329870              -6.3399
       148                         -0.2322975              -6.3211
       149                         -0.2289601              -6.2303
       150                         -0.2268029              -6.1716
       151                         -0.2249160              -6.1203
       152                         -0.2234116              -6.0793
       153                         -0.2207551              -6.0071
       ...                                ...                  ...
       279                          0.7204558              19.6046
      -------------------------------------------------------------
                  HL-Gap            0.0776373 Eh            2.1126 eV

     #   Z          covCN         q      C6AA      α(0)
     1   6 C        2.919    -0.040    28.988     8.829
     2   6 C        2.919    -0.031    28.768     8.796
     3   6 C        2.922    -0.048    29.198     8.861
     4   6 C        2.924     0.067    26.509     8.443
     5   7 N        2.754    -0.081    22.815     7.094
     6   6 C        2.923     0.067    26.511     8.444
     7   6 C        2.922    -0.049    29.207     8.863
     8   6 C        2.919    -0.031    28.770     8.796
     9   6 C        2.919    -0.040    28.996     8.830
    10   6 C        2.919    -0.031    28.772     8.796
    11   6 C        2.922    -0.048    29.198     8.861
    12   6 C        2.923     0.067    26.498     8.442
    13   6 C        2.922    -0.089    30.243     9.018
    14   6 C        2.927     0.062    26.601     8.458
    15   6 C        2.899    -0.112    30.834     9.105
    16   6 C        2.927     0.060    26.647     8.466
    17   6 C        2.921    -0.089    30.233     9.017
    18   7 N        2.757    -0.048    22.170     6.993
    19   6 C        2.933     0.067    26.497     8.442
    20   6 C        2.921    -0.037    28.919     8.819
    21   6 C        2.920    -0.028    28.690     8.784
    22   6 C        2.920    -0.030    28.740     8.791
    23   6 C        2.920    -0.027    28.665     8.780
    24   6 C        2.922    -0.037    28.920     8.819
    25   6 C        2.928     0.064    26.561     8.452
    26   6 C        2.916    -0.098    30.476     9.053
    27   6 C        2.871     0.136    25.035     8.202
    28   6 C        2.885    -0.134    31.435     9.192
    29   6 C        2.873     0.135    25.052     8.205
    30   6 C        2.883    -0.116    30.952     9.121
    31   5 B        2.724     0.197    18.430     7.193
    32   6 C        2.887    -0.081    30.029     8.984
    33   6 C        2.923    -0.030    28.745     8.792
    34   6 C        2.914    -0.046    29.130     8.850
    35   6 C        2.919    -0.032    28.799     8.800
    36   6 C        2.920    -0.058    29.439     8.898
    37   6 C        2.926     0.060    26.663     8.468
    38   7 N        2.755    -0.057    22.339     7.020
    39   6 C        2.932     0.068    26.470     8.438
    40   6 C        2.921    -0.037    28.928     8.820
    41   6 C        2.920    -0.028    28.704     8.786
    42   6 C        2.920    -0.030    28.753     8.793
    43   6 C        2.920    -0.027    28.678     8.782
    44   6 C        2.922    -0.037    28.932     8.821
    45   8 O        1.712    -0.224    17.712     5.682
    46   6 C        2.875     0.136    25.030     8.201
    47   6 C        2.916    -0.054    29.343     8.883
    48   6 C        2.919    -0.028    28.700     8.785
    49   6 C        2.915    -0.042    29.033     8.836
    50   6 C        2.924    -0.034    28.850     8.808
    51   6 C        2.882    -0.092    30.314     9.026
    52   5 B        2.723     0.207    18.285     7.165
    53   6 C        2.882    -0.092    30.302     9.024
    54   6 C        2.925    -0.034    28.853     8.809
    55   6 C        2.915    -0.042    29.039     8.837
    56   6 C        2.920    -0.029    28.716     8.788
    57   6 C        2.916    -0.056    29.380     8.888
    58   6 C        2.875     0.136    25.023     8.200
    59   8 O        1.711    -0.247    18.084     5.742
    60   6 C        2.922    -0.048    29.184     8.859
    61   6 C        2.919    -0.031    28.770     8.796
    62   1 H        0.926     0.032     2.557     2.501
    63   1 H        0.926     0.033     2.543     2.494
    64   1 H        0.926     0.031     2.579     2.511
    65   1 H        0.926     0.030     2.584     2.514
    66   1 H        0.926     0.033     2.549     2.497
    67   1 H        0.926     0.032     2.562     2.503
    68   1 H        0.926     0.033     2.542     2.493
    69   1 H        0.926     0.032     2.561     2.503
    70   1 H        0.926     0.024     2.677     2.558
    71   1 H        0.926     0.025     2.666     2.553
    72   1 H        0.926     0.043     2.411     2.428
    73   1 H        0.926     0.044     2.399     2.422
    74   1 H        0.926     0.044     2.398     2.422
    75   1 H        0.926     0.045     2.384     2.415
    76   1 H        0.926     0.043     2.408     2.427
    77   1 H        0.926     0.038     2.481     2.463
    78   1 H        0.926     0.027     2.624     2.533
    79   1 H        0.926     0.018     2.757     2.597
    80   1 H        0.926     0.022     2.699     2.569
    81   1 H        0.926     0.021     2.713     2.576
    82   1 H        0.926     0.042     2.421     2.433
    83   1 H        0.926     0.042     2.416     2.431
    84   1 H        0.926     0.042     2.416     2.431
    85   1 H        0.926     0.043     2.404     2.425
    86   1 H        0.926     0.042     2.427     2.436
    87   1 H        0.926     0.043     2.410     2.428
    88   1 H        0.926     0.037     2.487     2.466
    89   1 H        0.926     0.033     2.540     2.492
    90   1 H        0.926     0.040     2.450     2.448
    91   1 H        0.926     0.041     2.439     2.442
    92   1 H        0.926     0.033     2.539     2.492
    93   1 H        0.926     0.037     2.488     2.467
    94   1 H        0.926     0.040     2.451     2.448
    95   1 H        0.926     0.032     2.562     2.503
    96   1 H        0.926     0.033     2.541     2.493

molecular dipole:
                 x           y           z       tot (Debye)
 q only:        1.204      -0.221       0.158
   full:        1.286      -0.291       0.149       3.373

 projected vibrational frequencies (cm⁻¹)
eigval :       -0.00    -0.00    -0.00     0.00     0.00     0.00
eigval :       11.41    14.54    17.90    20.97    28.84    31.67
eigval :       34.97    40.29    43.10    49.10    51.23    54.99
eigval :       60.51    66.45    68.84    71.89    79.53    85.43
eigval :       95.20   115.10   125.55   138.00   151.03   161.62
eigval :      175.50   177.83   188.47   200.06   206.41   212.44
eigval :      219.42   230.77   235.77   238.05   241.00   258.90
eigval :      261.69   267.09   269.66   278.19   312.01   322.91
eigval :      333.15   345.40   360.53   373.36   376.53   378.83
eigval :      380.84   384.91   387.46   391.75   402.92   415.38
eigval :      420.11   426.66   441.67   461.98   468.17   482.05
eigval :      484.91   486.72   493.57   496.17   498.50   501.80
eigval :      520.49   538.39   543.71   553.85   554.49   565.01
eigval :      573.09   578.13   582.66   585.02   588.55   589.93
eigval :      593.51   598.78   600.08   606.61   608.29   621.67
eigval :      632.88   639.28   652.80   659.40   662.58   668.65
eigval :      673.22   677.11   679.36   690.25   691.94   698.99
eigval :      705.39   708.32   719.92   745.95   756.03   756.92
eigval :      770.14   770.64   771.80   776.88   777.02   794.43
eigval :      816.74   823.17   826.79   841.49   847.26   868.77
eigval :      871.51   874.27   874.46   875.26   875.78   876.97
eigval :      877.74   880.71   890.08   893.05   896.92   902.61
eigval :      904.34   906.44   909.83   911.14   912.75   913.81
eigval :      922.01   924.38   925.50   927.41   927.98   928.66
eigval :      929.07   929.36   929.64   929.74   932.91   933.25
eigval :      974.24   982.08   993.02  1004.60  1006.64  1055.06
eigval :     1071.62  1075.85  1076.90  1077.95  1081.27  1082.94
eigval :     1083.50  1091.14  1098.61  1104.59  1110.55  1111.40
eigval :     1112.90  1120.58  1123.11  1127.41  1147.58  1162.48
eigval :     1172.69  1174.76  1175.46  1178.09  1179.12  1179.57
eigval :     1180.30  1185.05  1185.88  1187.02  1188.54  1194.15
eigval :     1197.77  1208.54  1214.50  1215.83  1226.84  1237.55
eigval :     1248.21  1252.54  1260.93  1265.20  1271.08  1273.27
eigval :     1273.34  1277.07  1280.22  1284.88  1291.99  1299.37
eigval :     1307.53  1308.16  1308.57  1315.19  1317.87  1318.55
eigval :     1322.96  1325.65  1328.44  1333.57  1350.09  1354.51
eigval :     1372.31  1396.63  1409.23  1415.35  1423.33  1425.01
eigval :     1426.91  1430.89  1431.39  1435.15  1440.91  1443.91
eigval :     1450.77  1454.75  1464.49  1469.52  1471.07  1473.65
eigval :     1475.81  1510.22  1533.78  1547.71  1549.71  1551.16
eigval :     1560.80  1567.96  1575.55  1579.88  1582.68  1583.17
eigval :     1591.91  1591.96  1592.12  1593.51  1594.75  1595.80
eigval :     1599.08  3061.74  3070.53  3071.14  3071.74  3071.85
eigval :     3072.10  3072.40  3073.39  3076.99  3077.84  3078.68
eigval :     3079.51  3079.94  3080.89  3081.49  3082.77  3085.34
eigval :     3085.53  3086.16  3086.93  3087.06  3089.28  3090.41
eigval :     3090.65  3093.47  3094.45  3095.58  3096.77  3097.44
eigval :     3098.15  3103.95  3107.43  3109.21  3111.36  3114.10

   temp. (K)  partition function   enthalpy   heat capacity  entropy
                                   cal/mol     cal/K/mol   cal/K/mol   J/K/mol
 298.15  VIB  0.317E+22            27910.125    177.148    173.095
         ROT  0.139E+09              888.752      2.981     40.237
         INT  0.440E+30            28798.877    180.129    213.332
         TR   0.211E+29             1481.254      4.968     45.818
         TOT                       30280.1312   185.0971   259.1498  1084.2829

       T/K    H(0)-H(T)+PV         H(T)/Eh          T*S/Eh         G(T)/Eh
   ------------------------------------------------------------------------
    298.15    0.482545E-01    0.772638E+00    0.123130E+00    0.649508E+00
   ------------------------------------------------------------------------

         :::::::::::::::::::::::::::::::::::::::::::::::::::::
         ::                  THERMODYNAMIC                  ::
         :::::::::::::::::::::::::::::::::::::::::::::::::::::
         :: total free energy        -152.362941556061 Eh   ::
         ::.................................................::
         :: total energy             -153.012449126575 Eh   ::
         :: zero point energy           0.724383561822 Eh   ::
         :: G(RRHO) w/o ZPVE           -0.074875991309 Eh   ::
         :: G(RRHO) contrib.            0.649507570514 Eh   ::
         :::::::::::::::::::::::::::::::::::::::::::::::::::::

           -------------------------------------------------
          | TOTAL ENERGY             -153.012449126575 Eh   |
          | TOTAL ENTHALPY           -152.239811104191 Eh   |
          | TOTAL FREE ENERGY        -152.362941556061 Eh   |
          | GRADIENT NORM               0.000035053860 Eh/α |
          | HOMO-LUMO GAP               2.112618696250 eV   |
           -------------------------------------------------

 * finished run on 2025/08/23 at 01:45:38.953
