   * xtb version 6.7.1 (edcfbbe) compiled by 'albert@albert-system' on 2024-07-22

   ID    Z sym.   atoms
    1    6 C      1-7, 9, 11, 13-39
    2   15 P      8, 10, 12
    3    1 H      40-76

          program call               : xtb data2507/toluene/dTolmp/dTolmp_toluene_T1_crest.xyz --gfn 2 --uhf 2 --gbsa toluene --ohess vtight --parallel 40 --molden --ceasefiles --namespace data2507/toluene/dTolmp/dTolmp_toluene_T1_finalOpt
      * Solvation model:               GBSA
        Solvent                        toluene
        Solvent mass                       9.2140E+01 g/mol
          :  Hamiltonian                  GFN2-xTB          :
 * total energy  :  -103.4014187 Eh     change       -0.1371035E-08 Eh
 * total energy  :  -103.4014674 Eh     change       -0.4871667E-04 Eh
 * total energy  :  -103.4015103 Eh     change       -0.4283338E-04 Eh
 * total energy  :  -103.4015262 Eh     change       -0.1588990E-04 Eh
 * total energy  :  -103.4015568 Eh     change       -0.3067809E-04 Eh
 * total energy  :  -103.4015668 Eh     change       -0.9961985E-05 Eh
 * total energy  :  -103.4015911 Eh     change       -0.2434637E-04 Eh
 * total energy  :  -103.4016003 Eh     change       -0.9146771E-05 Eh
 * total energy  :  -103.4016079 Eh     change       -0.7632287E-05 Eh
 * total energy  :  -103.4016112 Eh     change       -0.3276554E-05 Eh
 * total energy  :  -103.4020797 Eh     change       -0.8341961E-06 Eh
 * total energy  :  -103.4020806 Eh     change       -0.8851818E-06 Eh
 * total energy  :  -103.4020816 Eh     change       -0.9838529E-06 Eh
 * total energy  :  -103.4020826 Eh     change       -0.1013199E-05 Eh
 * total energy  :  -103.4020835 Eh     change       -0.9100926E-06 Eh
 * total energy  :  -103.4020843 Eh     change       -0.7947538E-06 Eh
 * total energy  :  -103.4020850 Eh     change       -0.7214714E-06 Eh
 * total energy  :  -103.4020857 Eh     change       -0.7017750E-06 Eh
 * total energy  :  -103.4020857 Eh     change       -0.4382628E-08 Eh
   *** GEOMETRY OPTIMIZATION CONVERGED AFTER 94 ITERATIONS ***

 final structure:
================
76
 xtb: 6.7.1 (edcfbbe)
C           -5.99592992024307       -0.51891243488778        1.24710839638129
C           -5.65844155419636        0.90812931039232        0.94972409557279
C           -6.66382593707032        1.81315807473302        0.64204127388317
C           -6.37666094691812        3.13983353163142        0.37091768839777
C           -5.06555835700942        3.57806942485911        0.41706758336289
C           -4.05090982882198        2.68689858133191        0.71900966501417
C           -4.32657535642764        1.34588415229623        0.96712631308404
P           -3.03915187065888        0.12366686472437        1.44458925376268
C           -1.48595679234156        1.05556843197529        1.02467308570480
P           -0.04353152567726       -0.08936486873138        1.31064652490226
C            1.29662050804566        1.20287923780574        1.04489436712492
P            2.58455816198623        0.56206371819762       -0.10595169549535
C            3.15391395144051       -0.97541602830150        0.58468230353264
C            3.01427767278236       -1.25417568583882        1.96696625158946
C            3.72311399297479       -2.28030980435795        2.53576771227240
C            4.57764849418121       -3.07140222674915        1.76644496600639
C            4.71167894031712       -2.81216534388325        0.40260678936722
C            4.01929675189992       -1.79006921278010       -0.20180315730349
C            4.11222718660839       -1.51744026986461       -1.66467736839832
C            3.73052115606846        1.97494090389522       -0.19440936362594
C            4.51465085669157        2.20862781682645        0.95462053162971
C            5.59461760659208        3.05392246210508        0.89028219293674
C            5.94799207461463        3.65527746278363       -0.31587047267271
C            5.19791389283271        3.39808738680408       -1.45829044357651
C            4.10085885003222        2.55986120484086       -1.42389730631170
C            3.25632835093854        2.33438730501211       -2.63859095731322
C            0.12014937002446       -0.86177374616983       -0.34460711010808
C            0.19456919766720       -2.24789560758886       -0.42464125931405
C            0.38055914044959       -2.87318365808806       -1.64208153321809
C            0.48727380240750       -2.11824147586080       -2.80378954219053
C            0.40301608160715       -0.73716235318908       -2.73800603977789
C            0.23201715154286       -0.10468283417796       -1.51796288853981
C           -3.09374672839271       -0.93192196889730       -0.06504904047551
C           -3.26850219968275       -0.35898422768545       -1.31895445227412
C           -3.30875473879316       -1.14691732767765       -2.45365553409410
C           -3.18159750521512       -2.52023966855762       -2.33771128507872
C           -3.01113040862980       -3.09507250423788       -1.09072867201240
C           -2.96240720062946       -2.31686880967105        0.05775178507444
C           -2.77501731240183       -2.94748839495207        1.40260971599611
H           -5.36900383052240       -0.89231881155827        2.05835951713854
H           -7.04125556715344       -0.62091672066895        1.53014358909055
H           -5.81276742046250       -1.14163989100387        0.37007808342657
H           -7.69044422410882        1.47392359009682        0.62056547633678
H           -7.17413344263116        3.82946594515858        0.13429361005805
H           -4.82993829065394        4.61475401642479        0.22135193402205
H           -3.03601380741693        3.05356339809696        0.76100474203917
H           -1.38400360601114        1.86443746450758        1.75791088982860
H           -1.49815602662251        1.45803566280181        0.00747859399905
H            1.75003682965155        1.49031147497045        1.99981469470333
H            0.89655360901112        2.11562357643510        0.58744794161782
H            2.35093984120479       -0.65617389599431        2.57521617417052
H            3.61372604890480       -2.48013336346417        3.59287718358704
H            5.12085179124796       -3.88599321256945        2.22043866424303
H            5.36284089697241       -3.43665414785749       -0.19425112556101
H            4.87250011616406       -2.13331956842904       -2.13901058088985
H            3.15102380100633       -1.70568159910228       -2.14656438700285
H            4.35958090332491       -0.46130930309237       -1.81899548191013
H            4.25165484167406        1.71943679369615        1.88400529693087
H            6.17702293956632        3.24588675404089        1.78097927968221
H            6.80386197046073        4.31132271054019       -0.36525008430659
H            5.47251878471366        3.86892351144347       -2.39286090407106
H            2.51119599794146        3.12605184584174       -2.73312086556315
H            2.72894007744409        1.38047056512343       -2.54954784444954
H            3.86028827956038        2.32971746626507       -3.54396391184779
H            0.12664235617152       -2.83126923827270        0.48250711109667
H            0.45187330422063       -3.94999782379120       -1.68988905946161
H            0.63050092809799       -2.60673140226418       -3.75662561154072
H            0.47666152946614       -0.14811527448283       -3.64176441953968
H            0.12387206146643        0.97235659401713       -1.49194475211024
H           -3.38616519758588        0.71336075450893       -1.40711472635534
H           -3.44181292228852       -0.69081771687544       -3.42437710017426
H           -3.21471685452150       -3.14389398303558       -3.21957386783823
H           -2.91240286351737       -4.16850005574809       -1.00733747866906
H           -3.70055105134314       -2.89836694409180        1.97669836758533
H           -2.48452871098246       -3.99085140282595        1.30641014420796
H           -2.00637984360064       -2.41435005337555        1.96362278740585

          :  Hamiltonian                  GFN2-xTB          :
         :: gradient norm              0.000064082134 Eh/a0 ::
         :: HOMO-LUMO gap              0.393634067453 eV    ::
         :: SCC energy              -105.214468015709 Eh    ::
         :: -> dispersion             -0.116593284094 Eh    ::
         :: -> Gsolv                  -0.038859704655 Eh    ::
         :: repulsion energy           1.812382265964 Eh    ::

    * Orbital Energies and Occupations

         #    Occupation            Energy/Eh            Energy/eV
      -------------------------------------------------------------
         1        2.0000           -0.6765268             -18.4092
       ...           ...                  ...                  ...
        87        2.0000           -0.4082019             -11.1077
        88        2.0000           -0.4032578             -10.9732
        89        2.0000           -0.3986234             -10.8471
        90        2.0000           -0.3960007             -10.7757
        91        2.0000           -0.3951742             -10.7532
        92        2.0000           -0.3934103             -10.7052
        93        2.0000           -0.3904247             -10.6240
        94        2.0000           -0.3891062             -10.5881
        95        2.0000           -0.3861182             -10.5068
        96        2.0000           -0.3793243             -10.3219
        97        1.9999           -0.3663441              -9.9687
        98        1.0001           -0.3484572              -9.4820
        99        0.9995           -0.2572549              -7.0003 (HOMO)
       100        0.0005           -0.2427894              -6.6066 (LUMO)
       101                         -0.2343537              -6.3771
       102                         -0.2296019              -6.2478
       103                         -0.2274639              -6.1896
       104                         -0.2234034              -6.0791
       105                         -0.2200431              -5.9877
       106                         -0.2172572              -5.9119
       107                         -0.2142258              -5.8294
       108                         -0.2113375              -5.7508
       109                         -0.1843053              -5.0152
       110                         -0.1648843              -4.4867
       ...                                ...                  ...
       208                          1.0729895              29.1975
      -------------------------------------------------------------
                  HL-Gap            0.0144656 Eh            0.3936 eV

     #   Z          covCN         q      C6AA      α(0)
     1   6 C        3.765    -0.103    22.515     6.763
     2   6 C        3.050     0.016    27.609     8.618
     3   6 C        2.924    -0.041    29.019     8.834
     4   6 C        2.918    -0.033    28.831     8.805
     5   6 C        2.918    -0.038    28.938     8.821
     6   6 C        2.965    -0.035    28.866     8.813
     7   6 C        2.918     0.006    27.882     8.659
     8  15 P        3.435    -0.147   166.940    23.210
     9   6 C        3.697    -0.034    21.362     6.611
    10  15 P        3.620    -0.115   165.448    23.106
    11   6 C        3.696    -0.037    21.418     6.620
    12  15 P        3.549    -0.081   163.883    22.996
    13   6 C        2.918     0.002    27.975     8.673
    14   6 C        2.987    -0.034    28.846     8.810
    15   6 C        2.914    -0.037    28.911     8.817
    16   6 C        2.915    -0.050    29.236     8.867
    17   6 C        2.917    -0.042    29.050     8.838
    18   6 C        3.058     0.007    27.805     8.647
    19   6 C        3.766    -0.101    22.472     6.757
    20   6 C        2.919    -0.009    28.253     8.717
    21   6 C        3.016    -0.035    28.843     8.810
    22   6 C        2.916    -0.038    28.939     8.821
    23   6 C        2.916    -0.051    29.268     8.871
    24   6 C        2.921    -0.043    29.063     8.841
    25   6 C        3.014     0.005    27.898     8.664
    26   6 C        3.758    -0.102    22.507     6.764
    27   6 C        2.959     0.021    27.537     8.607
    28   6 C        3.001    -0.025    28.603     8.773
    29   6 C        2.918    -0.026    28.655     8.778
    30   6 C        2.919    -0.033    28.816     8.803
    31   6 C        2.917    -0.028    28.707     8.786
    32   6 C        3.025    -0.020    28.480     8.754
    33   6 C        2.922     0.011    27.767     8.641
    34   6 C        2.981    -0.028    28.706     8.789
    35   6 C        2.919    -0.037    28.928     8.820
    36   6 C        2.919    -0.032    28.795     8.800
    37   6 C        2.925    -0.041    29.016     8.834
    38   6 C        3.031     0.019    27.557     8.611
    39   6 C        3.761    -0.105    22.557     6.770
    40   1 H        0.924     0.061     2.184     2.311
    41   1 H        0.925     0.046     2.375     2.410
    42   1 H        0.924     0.050     2.324     2.384
    43   1 H        0.925     0.030     2.593     2.518
    44   1 H        0.926     0.027     2.623     2.533
    45   1 H        0.926     0.026     2.641     2.541
    46   1 H        0.926     0.032     2.554     2.499
    47   1 H        0.927     0.058     2.220     2.330
    48   1 H        0.925     0.065     2.141     2.288
    49   1 H        0.925     0.064     2.148     2.292
    50   1 H        0.926     0.069     2.101     2.266
    51   1 H        0.926     0.038     2.474     2.460
    52   1 H        0.925     0.027     2.629     2.536
    53   1 H        0.926     0.021     2.717     2.577
    54   1 H        0.925     0.024     2.669     2.555
    55   1 H        0.925     0.045     2.383     2.414
    56   1 H        0.924     0.051     2.305     2.374
    57   1 H        0.924     0.057     2.231     2.336
    58   1 H        0.925     0.021     2.712     2.575
    59   1 H        0.925     0.023     2.686     2.563
    60   1 H        0.926     0.019     2.741     2.589
    61   1 H        0.925     0.025     2.658     2.549
    62   1 H        0.924     0.049     2.327     2.385
    63   1 H        0.924     0.058     2.228     2.334
    64   1 H        0.925     0.045     2.387     2.416
    65   1 H        0.926     0.041     2.439     2.442
    66   1 H        0.926     0.033     2.541     2.493
    67   1 H        0.926     0.032     2.563     2.504
    68   1 H        0.925     0.033     2.540     2.492
    69   1 H        0.925     0.044     2.397     2.421
    70   1 H        0.925     0.029     2.598     2.520
    71   1 H        0.926     0.026     2.649     2.545
    72   1 H        0.926     0.028     2.616     2.529
    73   1 H        0.926     0.031     2.568     2.506
    74   1 H        0.924     0.058     2.221     2.331
    75   1 H        0.925     0.045     2.382     2.414
    76   1 H        0.924     0.064     2.157     2.297

molecular dipole:
                 x           y           z       tot (Debye)
 q only:       -0.881      -0.285      -0.650
   full:       -0.767       0.147      -1.106       3.442

 projected vibrational frequencies (cm⁻¹)
eigval :       -0.00    -0.00    -0.00     0.00     0.00     0.00
eigval :        6.86    15.57    22.89    26.31    31.29    35.56
eigval :       37.18    39.46    48.07    53.43    55.48    64.52
eigval :       66.85    84.61    93.04   105.01   109.20   116.49
eigval :      125.33   128.67   139.14   148.04   151.79   161.72
eigval :      164.55   168.94   181.75   192.52   205.56   209.59
eigval :      217.16   224.58   232.33   245.62   260.97   288.46
eigval :      305.43   323.26   334.46   358.59   362.58   367.02
eigval :      370.31   372.66   378.69   398.86   403.32   410.84
eigval :      416.49   417.57   422.29   433.60   437.07   445.43
eigval :      448.07   476.06   495.15   523.66   526.91   533.60
eigval :      537.51   582.20   598.12   608.26   634.46   644.81
eigval :      652.93   656.08   659.96   667.06   671.76   677.38
eigval :      680.59   686.64   702.07   722.66   727.33   730.84
eigval :      737.19   745.10   758.41   766.92   776.67   792.35
eigval :      800.35   807.69   808.01   817.07   832.62   854.73
eigval :      874.10   881.54   884.02   884.97   885.96   891.45
eigval :      896.55   908.07   914.06   915.18   920.26   926.52
eigval :      929.11   956.01   963.01   971.52   990.11   993.08
eigval :      996.55   999.15  1011.16  1019.47  1024.31  1026.55
eigval :     1026.66  1027.05  1040.62  1045.73  1069.06  1076.35
eigval :     1077.60  1081.01  1091.18  1097.80  1100.43  1110.12
eigval :     1117.78  1126.93  1139.30  1160.68  1161.60  1171.21
eigval :     1172.51  1176.94  1182.59  1186.26  1188.44  1192.18
eigval :     1201.86  1229.74  1232.00  1255.46  1256.65  1262.71
eigval :     1263.34  1269.03  1312.79  1315.59  1325.34  1328.81
eigval :     1336.34  1364.19  1375.18  1386.83  1391.29  1391.87
eigval :     1392.98  1393.19  1397.86  1399.32  1411.75  1422.92
eigval :     1424.63  1434.00  1438.64  1450.56  1452.07  1459.92
eigval :     1460.92  1465.48  1467.27  1468.75  1472.58  1472.84
eigval :     1473.64  1480.53  1486.90  1527.16  1536.68  1541.44
eigval :     1571.40  1574.48  1578.46  1588.32  1589.44  2888.59
eigval :     2895.58  2902.41  2905.45  2925.27  2947.31  2978.90
eigval :     2979.43  2981.26  2985.65  2993.61  3000.39  3023.52
eigval :     3031.54  3034.40  3036.26  3036.86  3037.26  3047.84
eigval :     3054.97  3056.47  3056.81  3060.11  3061.23  3062.68
eigval :     3064.49  3064.85  3067.69  3068.42  3068.61  3076.21
eigval :     3077.58  3081.06  3084.88  3085.88  3087.28  3087.59

   temp. (K)  partition function   enthalpy   heat capacity  entropy
                                   cal/mol     cal/K/mol   cal/K/mol   J/K/mol
 298.15  VIB  0.199E+20            23743.456    140.599    151.060
         ROT  0.430E+08              888.752      2.981     37.909
         INT  0.854E+27            24632.209    143.580    188.970
         TR   0.129E+29             1481.254      4.968     44.847
         TOT                       26113.4626   148.5484   233.8163   978.2876

       T/K    H(0)-H(T)+PV         H(T)/Eh          T*S/Eh         G(T)/Eh
   ------------------------------------------------------------------------
    298.15    0.416145E-01    0.641849E+00    0.111094E+00    0.530755E+00
   ------------------------------------------------------------------------

         :::::::::::::::::::::::::::::::::::::::::::::::::::::
         ::                  THERMODYNAMIC                  ::
         :::::::::::::::::::::::::::::::::::::::::::::::::::::
         :: total free energy        -102.871330628530 Eh   ::
         ::.................................................::
         :: total energy             -103.402085747706 Eh   ::
         :: zero point energy           0.600234354047 Eh   ::
         :: G(RRHO) w/o ZPVE           -0.069479234871 Eh   ::
         :: G(RRHO) contrib.            0.530755119176 Eh   ::
         :::::::::::::::::::::::::::::::::::::::::::::::::::::

           -------------------------------------------------
          | TOTAL ENERGY             -103.402085747706 Eh   |
          | TOTAL ENTHALPY           -102.760236942092 Eh   |
          | TOTAL FREE ENERGY        -102.871330628530 Eh   |
          | GRADIENT NORM               0.000064118262 Eh/α |
          | HOMO-LUMO GAP               0.393628005230 eV   |
           -------------------------------------------------

 * finished run on 2025/08/30 at 18:52:16.508
