   * xtb version 6.7.1 (edcfbbe) compiled by 'albert@albert-system' on 2024-07-22

   ID    Z sym.   atoms
    1    6 C      1-7, 9, 11, 13-39
    2   15 P      8, 10, 12
    3    1 H      40-76

          program call               : xtb data2507/toluene/dTolmp/dTolmp.xyz --gfn 2 --gbsa toluene --ohess vtight --parallel 40 --molden --ceasefiles --namespace data2507/toluene/dTolmp/dTolmp_toluene_S0_preOpt
      * Solvation model:               GBSA
        Solvent                        toluene
        Solvent mass                       9.2140E+01 g/mol
          :  Hamiltonian                  GFN2-xTB          :
 * total energy  :  -103.4881937 Eh     change       -0.1940577E-08 Eh
 * total energy  :  -103.5010981 Eh     change       -0.1290448E-01 Eh
 * total energy  :  -103.5050832 Eh     change       -0.3985029E-02 Eh
 * total energy  :  -103.5074902 Eh     change       -0.2407088E-02 Eh
 * total energy  :  -103.5093104 Eh     change       -0.1820166E-02 Eh
 * total energy  :  -103.5103129 Eh     change       -0.1002492E-02 Eh
 * total energy  :  -103.5107641 Eh     change       -0.4512256E-03 Eh
 * total energy  :  -103.5110345 Eh     change       -0.2704037E-03 Eh
 * total energy  :  -103.5112576 Eh     change       -0.2231128E-03 Eh
 * total energy  :  -103.5114939 Eh     change       -0.2362597E-03 Eh
 * total energy  :  -103.5143919 Eh     change       -0.3700920E-06 Eh
 * total energy  :  -103.5143921 Eh     change       -0.2435742E-06 Eh
 * total energy  :  -103.5143923 Eh     change       -0.2011880E-06 Eh
 * total energy  :  -103.5143925 Eh     change       -0.2076928E-06 Eh
 * total energy  :  -103.5143927 Eh     change       -0.2187138E-06 Eh
 * total energy  :  -103.5143929 Eh     change       -0.1988904E-06 Eh
 * total energy  :  -103.5143931 Eh     change       -0.1404174E-06 Eh
 * total energy  :  -103.5143932 Eh     change       -0.1057032E-06 Eh
 * total energy  :  -103.5143932 Eh     change       -0.6552996E-07 Eh
   *** GEOMETRY OPTIMIZATION CONVERGED AFTER 150 ITERATIONS ***

 final structure:
================
76
 xtb: 6.7.1 (edcfbbe)
C           -2.94467108296922        2.37863049558068       -1.62501405444724
C           -3.40698350287600        0.99150133322709       -1.94427361982672
C           -3.81184522140725        0.69879678711276       -3.24381758824192
C           -4.25850499668554       -0.56085053198602       -3.59204694110496
C           -4.31225777985046       -1.56025757032204       -2.63322717604846
C           -3.91137676261569       -1.28693836413639       -1.34065868002204
C           -3.45244969936950       -0.02063576845652       -0.98471048013997
P           -2.89997019445784        0.28580839767358        0.74807094731284
C           -1.41517467413290       -0.83125617817515        0.68501061016116
P           -0.18002018538986        0.11284615754795       -0.34594760871923
C            1.15373155729600       -1.18810017633530       -0.32310962409189
P            2.51741384494255       -0.62572458094011       -1.45467609863185
C            3.73898596606111       -1.98568544322717       -1.26563777897803
C            3.44513327068773       -3.20160375361737       -0.65692896180018
C            4.39019042528445       -4.21033055878101       -0.58955683267492
C            5.64318073195451       -4.01897975267245       -1.14330178730509
C            5.93693558892546       -2.82187191793746       -1.77345674892954
C            4.99953456712577       -1.80247975276840       -1.85240838364996
C            5.33665946925657       -0.51890990608943       -2.54349463005976
C            3.28416191116611        0.59320857469394       -0.30461259088583
C            3.94788849087710        0.16771260105570        0.83942680660346
C            4.51193294863213        1.08360951814749        1.70761741267196
C            4.41403495145418        2.43663389628680        1.43343339007804
C            3.75627750283579        2.86437925871561        0.29390319586400
C            3.18629409665272        1.95722000756097       -0.58857160823289
C            2.48933145218045        2.42596028468924       -1.82727000143912
C            0.38168324034633        1.27484391377409        0.96052015151666
C            0.19299190191116        2.63015558324114        0.71347466518384
C            0.54521984296500        3.57727445283343        1.65715468863343
C            1.09894116020892        3.17812774088451        2.86084598882916
C            1.29269610962233        1.83061114739768        3.11533152611027
C            0.93334275545804        0.88393618039108        2.17463579361589
C           -4.12961107083645       -0.76491062754986        1.61898381778142
C           -3.78524631492740       -1.92273673895589        2.30919459820804
C           -4.74018992806606       -2.65213237787263        2.99520462986136
C           -6.05557928313565       -2.22399333523799        3.00818615414291
C           -6.40357403826675       -1.06047520009838        2.34372703954981
C           -5.45722683928395       -0.31558209574872        1.65516891336174
C           -5.85521195942238        0.94022561813961        0.94558155054485
H           -3.74081491227728        3.09662131939030       -1.82039477800537
H           -2.65003011765881        2.45470044669336       -0.57981387242275
H           -2.09377156963234        2.64233891868695       -2.25152344130570
H           -3.77383896368323        1.47968566405972       -3.99077830887129
H           -4.56770531990612       -0.76535263554247       -4.60717221705865
H           -4.66664909239078       -2.54800801362254       -2.89244664973558
H           -3.96546116211775       -2.06579359450988       -0.59073879246343
H           -1.65288040172369       -1.78281870975399        0.19846489000525
H           -1.01995556587905       -0.99932438177707        1.69125663709756
H            0.70368995396002       -2.07793175823367       -0.78005641033953
H            1.50850569539318       -1.42181643175499        0.68503023766507
H            2.47016383795994       -3.37490005760725       -0.22555699399686
H            4.14474932969994       -5.14558151275181       -0.10608418937647
H            6.38653123518979       -4.80155879205418       -1.09239550558671
H            6.91226473692602       -2.67784089857896       -2.21785551960695
H            5.55501340075338        0.25903221799630       -1.81028169622821
H            6.20454524776675       -0.63939662074743       -3.18789409870046
H            4.49011860696597       -0.18194000684348       -3.14388870542717
H            4.03226742238305       -0.89106778382179        1.04813382394935
H            5.02582621706295        0.74186427446961        2.59502168486048
H            4.85079983146324        3.15919110640284        2.10788563505941
H            3.68413789377999        3.92267947471885        0.08523185514971
H            2.31812527857642        3.49893203982995       -1.79529016940381
H            1.53205339412785        1.91429708194551       -1.93468377123169
H            3.09052620882389        2.19538913352555       -2.70723694083481
H           -0.23380384462652        2.93699913116896       -0.23056206834212
H            0.38949971563109        4.62698011080136        1.45332612916421
H            1.38012141737991        3.91298819709272        3.60142108995911
H            1.72473682918681        1.51450782978341        4.05464258775503
H            1.09113302429764       -0.16217331028232        2.40036248822476
H           -2.76205424887607       -2.26935088027413        2.31411485405845
H           -4.45490437239454       -3.55332639523684        3.51975529221529
H           -6.80706452045991       -2.79002847420485        3.53966758761433
H           -7.42997872961214       -0.72048326498629        2.36429056848858
H           -6.79023401951862        1.33097238542054        1.34073539693345
H           -5.07737582314441        1.69796517042146        1.05269277325208
H           -5.98495786564925        0.74552270230529       -0.12013108761921

          :  Hamiltonian                  GFN2-xTB          :
         :: gradient norm              0.000036913039 Eh/a0 ::
         :: HOMO-LUMO gap              3.409176988093 eV    ::
         :: SCC energy              -105.339114478710 Eh    ::
         :: -> dispersion             -0.113342811240 Eh    ::
         :: -> Gsolv                  -0.039775427428 Eh    ::
         :: repulsion energy           1.824721236384 Eh    ::

    * Orbital Energies and Occupations

         #    Occupation            Energy/Eh            Energy/eV
      -------------------------------------------------------------
         1        2.0000           -0.6673619             -18.1598
       ...           ...                  ...                  ...
        86        2.0000           -0.4058396             -11.0435
        87        2.0000           -0.4037036             -10.9853
        88        2.0000           -0.4023774             -10.9492
        89        2.0000           -0.4016492             -10.9294
        90        2.0000           -0.3966924             -10.7946
        91        2.0000           -0.3949015             -10.7458
        92        2.0000           -0.3932429             -10.7007
        93        2.0000           -0.3923241             -10.6757
        94        2.0000           -0.3898441             -10.6082
        95        2.0000           -0.3865896             -10.5196
        96        2.0000           -0.3758713             -10.2280
        97        2.0000           -0.3647061              -9.9242
        98        2.0000           -0.3637230              -9.8974 (HOMO)
        99                         -0.2384380              -6.4882 (LUMO)
       100                         -0.2332446              -6.3469
       101                         -0.2324814              -6.3261
       102                         -0.2282661              -6.2114
       103                         -0.2271690              -6.1816
       104                         -0.2239792              -6.0948
       105                         -0.2197581              -5.9799
       106                         -0.2196132              -5.9760
       107                         -0.2175177              -5.9190
       108                         -0.2171201              -5.9081
       109                         -0.1772388              -4.8229
       ...                                ...                  ...
       208                          1.0645649              28.9683
      -------------------------------------------------------------
                  HL-Gap            0.1252849 Eh            3.4092 eV

     #   Z          covCN         q      C6AA      α(0)
     1   6 C        3.759    -0.108    22.605     6.778
     2   6 C        3.020     0.022    27.498     8.602
     3   6 C        2.926    -0.041    29.008     8.833
     4   6 C        2.918    -0.031    28.782     8.798
     5   6 C        2.918    -0.037    28.923     8.819
     6   6 C        2.988    -0.029    28.708     8.789
     7   6 C        2.919     0.015    27.682     8.628
     8  15 P        3.526    -0.165   167.785    23.268
     9   6 C        3.697    -0.029    21.257     6.595
    10  15 P        3.790    -0.126   165.937    23.140
    11   6 C        3.697    -0.031    21.294     6.601
    12  15 P        3.434    -0.150   167.047    23.217
    13   6 C        2.918     0.006    27.877     8.658
    14   6 C        2.964    -0.035    28.857     8.811
    15   6 C        2.918    -0.038    28.946     8.823
    16   6 C        2.918    -0.034    28.837     8.806
    17   6 C        2.924    -0.041    29.023     8.835
    18   6 C        3.052     0.016    27.606     8.617
    19   6 C        3.765    -0.104    22.518     6.764
    20   6 C        2.922     0.011    27.761     8.640
    21   6 C        2.980    -0.029    28.718     8.790
    22   6 C        2.919    -0.038    28.934     8.821
    23   6 C        2.919    -0.032    28.796     8.800
    24   6 C        2.925    -0.041    29.018     8.834
    25   6 C        3.033     0.019    27.564     8.612
    26   6 C        3.762    -0.106    22.573     6.773
    27   6 C        2.916     0.019    27.582     8.612
    28   6 C        3.021    -0.026    28.619     8.775
    29   6 C        2.918    -0.029    28.714     8.787
    30   6 C        2.921    -0.028    28.702     8.786
    31   6 C        2.920    -0.030    28.745     8.792
    32   6 C        2.962    -0.024    28.602     8.772
    33   6 C        2.918     0.008    27.840     8.653
    34   6 C        2.967    -0.034    28.844     8.809
    35   6 C        2.918    -0.038    28.946     8.823
    36   6 C        2.918    -0.034    28.840     8.806
    37   6 C        2.924    -0.041    29.026     8.835
    38   6 C        3.049     0.016    27.611     8.618
    39   6 C        3.764    -0.103    22.517     6.764
    40   1 H        0.925     0.052     2.300     2.372
    41   1 H        0.925     0.063     2.163     2.300
    42   1 H        0.925     0.055     2.260     2.351
    43   1 H        0.925     0.035     2.510     2.477
    44   1 H        0.926     0.029     2.597     2.520
    45   1 H        0.926     0.025     2.661     2.551
    46   1 H        0.925     0.027     2.627     2.535
    47   1 H        0.925     0.054     2.276     2.359
    48   1 H        0.925     0.052     2.291     2.367
    49   1 H        0.927     0.054     2.272     2.357
    50   1 H        0.925     0.058     2.226     2.333
    51   1 H        0.926     0.030     2.584     2.514
    52   1 H        0.926     0.025     2.655     2.548
    53   1 H        0.926     0.027     2.625     2.534
    54   1 H        0.925     0.030     2.591     2.517
    55   1 H        0.924     0.050     2.322     2.383
    56   1 H        0.925     0.046     2.376     2.410
    57   1 H        0.924     0.061     2.183     2.310
    58   1 H        0.925     0.027     2.624     2.533
    59   1 H        0.926     0.025     2.659     2.550
    60   1 H        0.926     0.028     2.617     2.530
    61   1 H        0.926     0.031     2.567     2.505
    62   1 H        0.925     0.047     2.362     2.403
    63   1 H        0.924     0.067     2.119     2.276
    64   1 H        0.924     0.059     2.212     2.326
    65   1 H        0.926     0.049     2.331     2.387
    66   1 H        0.926     0.036     2.503     2.474
    67   1 H        0.926     0.032     2.565     2.504
    68   1 H        0.926     0.027     2.624     2.533
    69   1 H        0.925     0.025     2.656     2.549
    70   1 H        0.926     0.029     2.594     2.518
    71   1 H        0.926     0.025     2.660     2.550
    72   1 H        0.926     0.027     2.627     2.535
    73   1 H        0.925     0.030     2.590     2.517
    74   1 H        0.925     0.046     2.373     2.409
    75   1 H        0.924     0.063     2.168     2.303
    76   1 H        0.924     0.050     2.314     2.379

molecular dipole:
                 x           y           z       tot (Debye)
 q only:        0.015       0.938      -0.349
   full:        0.184       0.201       0.291       1.014

 projected vibrational frequencies (cm⁻¹)
eigval :       -0.00    -0.00    -0.00     0.00     0.00     0.00
eigval :        8.16    12.95    15.37    28.14    32.30    39.58
eigval :       43.65    46.21    50.48    52.06    57.33    61.16
eigval :       67.37    79.35    85.15   101.25   109.02   122.13
eigval :      133.24   140.53   142.33   147.56   157.19   161.01
eigval :      163.07   166.85   195.12   201.64   211.79   215.33
eigval :      223.96   232.85   247.57   251.63   269.02   286.07
eigval :      307.59   332.74   366.11   367.57   370.21   373.63
eigval :      377.08   401.47   403.73   405.60   416.13   417.99
eigval :      419.49   420.93   435.20   436.63   451.97   475.56
eigval :      478.23   494.51   494.78   533.09   533.32   537.45
eigval :      537.66   585.08   653.67   654.74   656.97   657.74
eigval :      659.25   666.76   668.06   675.90   677.49   679.80
eigval :      700.03   706.68   733.40   735.47   746.30   759.03
eigval :      761.63   764.94   765.82   774.69   786.42   807.42
eigval :      807.85   808.32   810.01   873.49   874.29   875.10
eigval :      879.14   880.07   899.34   909.27   909.42   912.62
eigval :      913.50   924.92   926.71   927.02   928.82   931.98
eigval :      932.23   968.03   990.29   996.46   997.45   998.28
eigval :      998.67  1011.44  1025.32  1026.04  1026.90  1030.94
eigval :     1040.62  1041.38  1045.30  1046.74  1066.59  1082.61
eigval :     1091.49  1099.48  1100.55  1106.40  1110.68  1117.19
eigval :     1123.09  1158.45  1160.10  1160.72  1160.94  1179.10
eigval :     1181.46  1181.94  1184.22  1186.36  1201.25  1228.96
eigval :     1230.34  1231.79  1232.33  1260.44  1262.12  1263.09
eigval :     1263.46  1274.97  1312.68  1312.90  1315.03  1315.50
eigval :     1318.05  1366.45  1374.45  1392.15  1393.02  1396.96
eigval :     1397.73  1420.44  1422.83  1423.75  1424.28  1424.38
eigval :     1452.22  1452.29  1456.44  1457.61  1460.29  1462.48
eigval :     1464.35  1467.21  1468.05  1469.92  1471.53  1473.00
eigval :     1477.27  1570.83  1570.91  1572.27  1576.04  1580.90
eigval :     1588.62  1588.80  1589.33  1590.47  1591.09  2893.58
eigval :     2899.17  2902.62  2913.17  2979.70  2981.37  2984.79
eigval :     2993.87  2995.28  2999.53  3001.36  3015.43  3017.57
eigval :     3031.56  3032.18  3039.45  3047.28  3048.51  3050.14
eigval :     3059.89  3060.69  3062.99  3063.58  3063.65  3063.83
eigval :     3065.35  3067.75  3068.35  3068.93  3075.68  3075.92
eigval :     3076.66  3081.03  3081.10  3083.57  3084.14  3085.56

   temp. (K)  partition function   enthalpy   heat capacity  entropy
                                   cal/mol     cal/K/mol   cal/K/mol   J/K/mol
 298.15  VIB  0.105E+20            23298.958    138.514    148.778
         ROT  0.466E+08              888.752      2.981     38.068
         INT  0.489E+27            24187.710    141.495    186.846
         TR   0.129E+29             1481.254      4.968     44.847
         TOT                       25668.9642   146.4629   231.6926   969.4020

       T/K    H(0)-H(T)+PV         H(T)/Eh          T*S/Eh         G(T)/Eh
   ------------------------------------------------------------------------
    298.15    0.409061E-01    0.646147E+00    0.110085E+00    0.536063E+00
   ------------------------------------------------------------------------

         :::::::::::::::::::::::::::::::::::::::::::::::::::::
         ::                  THERMODYNAMIC                  ::
         :::::::::::::::::::::::::::::::::::::::::::::::::::::
         :: total free energy        -102.978330523853 Eh   ::
         ::.................................................::
         :: total energy             -103.514393237283 Eh   ::
         :: zero point energy           0.605241261723 Eh   ::
         :: G(RRHO) w/o ZPVE           -0.069178548293 Eh   ::
         :: G(RRHO) contrib.            0.536062713430 Eh   ::
         :::::::::::::::::::::::::::::::::::::::::::::::::::::

           -------------------------------------------------
          | TOTAL ENERGY             -103.514393237283 Eh   |
          | TOTAL ENTHALPY           -102.868245877339 Eh   |
          | TOTAL FREE ENERGY        -102.978330523853 Eh   |
          | GRADIENT NORM               0.000036916391 Eh/α |
          | HOMO-LUMO GAP               3.409176942449 eV   |
           -------------------------------------------------

 * finished run on 2025/08/30 at 18:39:23.784
