   * xtb version 6.7.1 (edcfbbe) compiled by 'albert@albert-system' on 2024-07-22

   ID    Z sym.   atoms
    1    6 C      1-7, 9, 11, 13-39
    2   15 P      8, 10, 12
    3    1 H      40-76

          program call               : xtb data2507/toluene/dTolmp/dTolmp_toluene_S0_finalOpt.xtbopt.xyz --gfn 2 --uhf 2 --gbsa toluene --ohess vtight --parallel 40 --molden --ceasefiles --namespace data2507/toluene/dTolmp/dTolmp_toluene_T1_preOpt
      * Solvation model:               GBSA
        Solvent                        toluene
        Solvent mass                       9.2140E+01 g/mol
          :  Hamiltonian                  GFN2-xTB          :
 * total energy  :  -103.3851243 Eh     change        0.2086509E-08 Eh
 * total energy  :  -103.3922995 Eh     change       -0.7175228E-02 Eh
 * total energy  :  -103.3932827 Eh     change       -0.9831539E-03 Eh
 * total energy  :  -103.3936086 Eh     change       -0.3259087E-03 Eh
 * total energy  :  -103.3938731 Eh     change       -0.2644983E-03 Eh
 * total energy  :  -103.3940306 Eh     change       -0.1575006E-03 Eh
 * total energy  :  -103.3941375 Eh     change       -0.1068878E-03 Eh
 * total energy  :  -103.3942097 Eh     change       -0.7223667E-04 Eh
 * total energy  :  -103.3943197 Eh     change       -0.1099726E-03 Eh
 * total energy  :  -103.3946752 Eh     change       -0.3555151E-03 Eh
 * total energy  :  -103.3996480 Eh     change       -0.4335624E-06 Eh
 * total energy  :  -103.3996482 Eh     change       -0.2049074E-06 Eh
 * total energy  :  -103.3996481 Eh     change        0.1540207E-07 Eh
 * total energy  :  -103.3996483 Eh     change       -0.1692886E-06 Eh
 * total energy  :  -103.3996484 Eh     change       -0.1213683E-06 Eh
 * total energy  :  -103.3996484 Eh     change        0.1798071E-07 Eh
 * total energy  :  -103.3996486 Eh     change       -0.2007322E-06 Eh
 * total energy  :  -103.3996487 Eh     change       -0.1307276E-06 Eh
 * total energy  :  -103.3996488 Eh     change       -0.9312716E-07 Eh
   *** GEOMETRY OPTIMIZATION CONVERGED AFTER 134 ITERATIONS ***

 final structure:
================
76
 xtb: 6.7.1 (edcfbbe)
C           -5.99134266430727       -0.80143878278425       -1.22617361044257
C           -5.56039615200245       -1.80820710686648       -0.20670622970667
C           -6.50588841223207       -2.53464891889415        0.50211419499085
C           -6.12850215258859       -3.47799590316685        1.44232195040871
C           -4.78522581503747       -3.71126196038783        1.67554468596508
C           -3.82965333730353       -2.99125857570290        0.98010033844666
C           -4.19904465251577       -2.02263970001291        0.05233703991543
P           -2.98914635302214       -1.07753173123324       -0.95778122722315
C           -1.39595897542146       -1.45896332979965       -0.07567510635395
P           -0.05626896307003       -0.46521550947737       -0.90591872866481
C            1.38149523868645       -1.32664218319704       -0.06166159079421
P            2.92533329636925       -0.56884771093309       -0.72932293398384
C            4.16945913006211       -1.84652781918090       -0.48976074224178
C            4.08879754331387       -2.68475861660929        0.65595813704783
C            5.21268856657887       -3.30787357519392        1.13198440383656
C            6.44275528933008       -3.15803125663109        0.48992732139392
C            6.52883973427998       -2.35696629352161       -0.64958058698580
C            5.42525119945475       -1.71300331890461       -1.15497502878651
C            5.47739108416234       -0.90043899706782       -2.40261376073880
C            3.02235559124306        1.01168494506037        0.16811675020535
C            3.19895042973350        0.91859306364490        1.56338481131611
C            3.57129165801675        2.02470163552647        2.28796489404310
C            3.80338088791154        3.23746315824869        1.64908107131161
C            3.66859060131181        3.32166114671120        0.26787584670420
C            3.30017893429110        2.22633474329819       -0.48804243442243
C            3.14983610307629        2.34184612544142       -1.97334137951785
C           -0.07571439556255        1.07322867100371        0.09280550154444
C           -0.00623017163548        2.27532132710234       -0.60314566553374
C            0.01881035989649        3.48017275196470        0.07146029256732
C           -0.03253690801172        3.49855706536814        1.45439443780599
C           -0.11216649355308        2.30695307756276        2.15547940626675
C           -0.13314996655963        1.10183892396544        1.48195903830545
C           -3.26418475326049        0.59128730100050       -0.22653024785601
C           -3.54173962651995        0.73417481963568        1.12715289945866
C           -3.74037267581296        1.98705700996377        1.67619351780434
C           -3.66626430312400        3.10784834588245        0.86776456284267
C           -3.39404251519392        2.96943500827568       -0.48165057383369
C           -3.18878841440202        1.71870653883125       -1.04735920421715
C           -2.89661353505292        1.57516360026598       -2.50835249193646
H           -5.34820660079011       -0.85924693767598       -2.10580670467827
H           -7.02249029587232       -0.96999640351143       -1.52838871473183
H           -5.91014869503333        0.20769883407893       -0.81935999688299
H           -7.55615315595851       -2.36302453165926        0.30992759554173
H           -6.88021679975931       -4.03455746496869        1.98339910955043
H           -4.47841763860116       -4.45542348445785        2.39712181572953
H           -2.78646302732682       -3.19593014301110        1.17055578507112
H           -1.16567344141604       -2.51318413568331       -0.26750172331555
H           -1.45504515404661       -1.27053899411125        0.99981410836086
H            1.36662340165852       -2.38127881609526       -0.35494881036371
H            1.30206178868527       -1.22683920090511        1.02399090122297
H            3.14470327475569       -2.81721669764298        1.16331996194705
H            5.14105520507357       -3.93109633520942        2.01354635755916
H            7.31636018315672       -3.67206003042966        0.86023877217466
H            7.47811404998161       -2.26112324281735       -1.15933605516019
H            4.95975830831370        0.04916985304482       -2.22463553006294
H            6.50084702821907       -0.70536701349003       -2.71305746930960
H            4.95253481306566       -1.40847009908357       -3.21303277932534
H            3.03547156423345       -0.02892648968277        2.06060272537285
H            3.68055091210342        1.94801818238113        3.36130131537512
H            4.09064109542437        4.10729944894759        2.22042708803003
H            3.84936262385847        4.26575113662529       -0.22797576858359
H            2.64936218374027        1.45592409910314       -2.36841494449945
H            4.12627571370193        2.43723927734639       -2.45147031187698
H            2.56536774724181        3.22198731322544       -2.23326719834719
H            0.03368988918601        2.25411529981744       -1.68279705361295
H            0.07838552615571        4.40797178989164       -0.47897332519827
H           -0.01010965130558        4.43780707823433        1.98766318212863
H           -0.15424786983393        2.31792021111087        3.23580383314319
H           -0.19042693878003        0.18526213322853        2.05404486323567
H           -3.61316264783118       -0.14391870607031        1.75600795312048
H           -3.95355351775653        2.08794085076123        2.73097896855736
H           -3.82076293297799        4.09078136386581        1.28929784304277
H           -3.33862252710313        3.84943175611539       -1.10715886689041
H           -3.74156732426344        1.11310829143653       -3.01929630991252
H           -2.70353915583528        2.54319011179235       -2.96377433262612
H           -2.02790841602987        0.93187132541549       -2.65496441442286

          :  Hamiltonian                  GFN2-xTB          :
         :: gradient norm              0.000076237859 Eh/a0 ::
         :: HOMO-LUMO gap              0.526514104316 eV    ::
         :: SCC energy              -105.215874857594 Eh    ::
         :: -> dispersion             -0.117044123007 Eh    ::
         :: -> Gsolv                  -0.038898514970 Eh    ::
         :: repulsion energy           1.816225991428 Eh    ::

    * Orbital Energies and Occupations

         #    Occupation            Energy/Eh            Energy/eV
      -------------------------------------------------------------
         1        2.0000           -0.6748120             -18.3626
       ...           ...                  ...                  ...
        87        2.0000           -0.4054811             -11.0337
        88        2.0000           -0.4029521             -10.9649
        89        2.0000           -0.3987242             -10.8498
        90        2.0000           -0.3964728             -10.7886
        91        2.0000           -0.3938598             -10.7175
        92        2.0000           -0.3924537             -10.6792
        93        2.0000           -0.3908231             -10.6348
        94        2.0000           -0.3898277             -10.6078
        95        2.0000           -0.3846581             -10.4671
        96        2.0000           -0.3798298             -10.3357
        97        1.9996           -0.3659315              -9.9575
        98        1.0004           -0.3511324              -9.5548
        99        1.0000           -0.2603710              -7.0851 (HOMO)
       100        0.0000           -0.2410222              -6.5585 (LUMO)
       101                         -0.2334081              -6.3514
       102                         -0.2286770              -6.2226
       103                         -0.2255154              -6.1366
       104                         -0.2234989              -6.0817
       105                         -0.2199767              -5.9859
       106                         -0.2172894              -5.9127
       107                         -0.2131343              -5.7997
       108                         -0.2121171              -5.7720
       109                         -0.1777882              -4.8379
       110                         -0.1667777              -4.5383
       ...                                ...                  ...
       208                          1.0701909              29.1214
      -------------------------------------------------------------
                  HL-Gap            0.0193488 Eh            0.5265 eV

     #   Z          covCN         q      C6AA      α(0)
     1   6 C        3.765    -0.104    22.525     6.765
     2   6 C        3.051     0.016    27.603     8.617
     3   6 C        2.924    -0.041    29.020     8.834
     4   6 C        2.918    -0.033    28.833     8.805
     5   6 C        2.918    -0.038    28.942     8.822
     6   6 C        2.965    -0.035    28.867     8.813
     7   6 C        2.918     0.006    27.890     8.660
     8  15 P        3.451    -0.144   166.771    23.198
     9   6 C        3.697    -0.037    21.410     6.619
    10  15 P        3.733    -0.103   164.863    23.065
    11   6 C        3.697    -0.043    21.507     6.633
    12  15 P        3.521    -0.052   162.546    22.902
    13   6 C        2.916    -0.011    28.301     8.724
    14   6 C        2.989    -0.040    28.986     8.831
    15   6 C        2.913    -0.037    28.927     8.819
    16   6 C        2.915    -0.052    29.290     8.875
    17   6 C        2.917    -0.043    29.061     8.840
    18   6 C        3.041     0.009    27.786     8.646
    19   6 C        3.762    -0.107    22.583     6.774
    20   6 C        2.920    -0.006    28.169     8.704
    21   6 C        3.019    -0.036    28.860     8.812
    22   6 C        2.916    -0.038    28.933     8.820
    23   6 C        2.916    -0.050    29.236     8.867
    24   6 C        2.923    -0.043    29.059     8.840
    25   6 C        3.016     0.008    27.817     8.652
    26   6 C        3.758    -0.103    22.526     6.767
    27   6 C        2.917     0.015    27.668     8.626
    28   6 C        3.020    -0.025    28.600     8.772
    29   6 C        2.919    -0.028    28.692     8.784
    30   6 C        2.921    -0.028    28.710     8.787
    31   6 C        2.920    -0.029    28.731     8.790
    32   6 C        2.964    -0.025    28.620     8.775
    33   6 C        2.922     0.010    27.787     8.644
    34   6 C        2.980    -0.029    28.717     8.790
    35   6 C        2.919    -0.038    28.934     8.821
    36   6 C        2.919    -0.032    28.795     8.800
    37   6 C        2.925    -0.041    29.019     8.834
    38   6 C        3.033     0.019    27.554     8.610
    39   6 C        3.762    -0.107    22.597     6.776
    40   1 H        0.924     0.062     2.178     2.308
    41   1 H        0.925     0.046     2.373     2.409
    42   1 H        0.924     0.050     2.318     2.381
    43   1 H        0.925     0.030     2.590     2.517
    44   1 H        0.926     0.027     2.625     2.534
    45   1 H        0.926     0.026     2.648     2.545
    46   1 H        0.926     0.032     2.562     2.503
    47   1 H        0.927     0.058     2.220     2.330
    48   1 H        0.925     0.062     2.172     2.305
    49   1 H        0.926     0.068     2.112     2.273
    50   1 H        0.925     0.073     2.053     2.241
    51   1 H        0.926     0.024     2.679     2.560
    52   1 H        0.925     0.023     2.685     2.563
    53   1 H        0.926     0.019     2.743     2.590
    54   1 H        0.925     0.025     2.661     2.551
    55   1 H        0.924     0.065     2.142     2.289
    56   1 H        0.925     0.046     2.368     2.407
    57   1 H        0.924     0.057     2.238     2.340
    58   1 H        0.925     0.018     2.760     2.598
    59   1 H        0.925     0.022     2.701     2.570
    60   1 H        0.926     0.020     2.728     2.583
    61   1 H        0.925     0.027     2.622     2.532
    62   1 H        0.924     0.059     2.213     2.326
    63   1 H        0.924     0.050     2.323     2.383
    64   1 H        0.925     0.053     2.288     2.366
    65   1 H        0.926     0.048     2.342     2.393
    66   1 H        0.926     0.034     2.536     2.490
    67   1 H        0.926     0.030     2.593     2.518
    68   1 H        0.926     0.027     2.631     2.537
    69   1 H        0.925     0.027     2.635     2.538
    70   1 H        0.925     0.028     2.615     2.529
    71   1 H        0.926     0.024     2.667     2.554
    72   1 H        0.926     0.027     2.624     2.533
    73   1 H        0.926     0.032     2.556     2.500
    74   1 H        0.925     0.060     2.201     2.320
    75   1 H        0.925     0.047     2.359     2.402
    76   1 H        0.924     0.067     2.117     2.275

molecular dipole:
                 x           y           z       tot (Debye)
 q only:       -0.689       0.533      -0.908
   full:       -0.634       0.514       0.265       2.181

 projected vibrational frequencies (cm⁻¹)
eigval :       -0.00    -0.00    -0.00     0.00     0.00     0.00
eigval :        7.89    10.38    21.14    26.05    31.71    35.39
eigval :       41.18    44.31    46.41    52.60    60.60    63.40
eigval :       70.34    79.03    89.55    98.87   105.40   115.51
eigval :      126.06   132.57   135.99   140.09   150.98   158.87
eigval :      162.38   167.12   170.37   179.97   199.82   210.56
eigval :      215.64   225.57   228.96   247.32   263.67   294.84
eigval :      304.12   320.46   338.84   361.50   364.47   366.50
eigval :      371.96   372.98   384.56   400.68   402.80   406.40
eigval :      416.28   418.03   422.86   436.38   441.87   445.10
eigval :      455.84   476.76   494.62   522.14   523.16   533.39
eigval :      537.52   584.57   591.12   610.12   643.61   650.10
eigval :      654.79   656.82   657.58   667.17   674.12   677.56
eigval :      684.74   697.80   712.52   719.47   726.42   736.92
eigval :      738.86   745.62   756.77   765.02   775.91   791.66
eigval :      800.85   807.73   808.33   810.42   832.30   872.72
eigval :      874.47   878.99   880.96   887.85   892.74   895.19
eigval :      897.49   908.60   913.99   925.37   926.20   927.68
eigval :      930.29   952.28   963.69   967.34   988.83   991.53
eigval :      996.91   998.16  1007.79  1015.60  1018.70  1023.00
eigval :     1023.49  1027.51  1040.59  1045.40  1060.23  1076.35
eigval :     1082.73  1085.76  1093.21  1100.48  1109.96  1113.26
eigval :     1122.04  1124.26  1137.39  1160.62  1161.08  1170.52
eigval :     1174.67  1180.85  1183.16  1186.52  1188.13  1201.16
eigval :     1206.15  1230.75  1232.65  1252.95  1257.02  1262.53
eigval :     1263.30  1276.81  1312.75  1315.60  1322.75  1329.44
eigval :     1335.12  1343.34  1366.31  1374.20  1385.39  1389.27
eigval :     1390.29  1390.81  1396.17  1397.81  1423.74  1424.35
eigval :     1425.26  1440.25  1441.14  1452.29  1455.24  1460.77
eigval :     1461.42  1464.07  1464.36  1467.67  1470.09  1472.53
eigval :     1473.63  1477.93  1496.27  1535.76  1570.73  1571.07
eigval :     1575.33  1576.24  1585.39  1588.79  1591.30  2900.07
eigval :     2904.70  2908.43  2915.35  2919.82  2976.99  2979.59
eigval :     2981.71  2984.50  2985.72  2994.71  3001.53  3024.97
eigval :     3031.27  3037.10  3037.97  3039.12  3044.99  3049.35
eigval :     3050.25  3056.21  3056.72  3059.60  3061.08  3063.88
eigval :     3064.24  3064.56  3066.59  3068.47  3073.34  3074.73
eigval :     3076.68  3082.06  3083.56  3084.55  3085.57  3088.08

   temp. (K)  partition function   enthalpy   heat capacity  entropy
                                   cal/mol     cal/K/mol   cal/K/mol   J/K/mol
 298.15  VIB  0.286E+20            23769.156    140.623    151.904
         ROT  0.447E+08              888.752      2.981     37.986
         INT  0.128E+28            24657.908    143.604    189.890
         TR   0.129E+29             1481.254      4.968     44.847
         TOT                       26139.1621   148.5725   234.7366   982.1380

       T/K    H(0)-H(T)+PV         H(T)/Eh          T*S/Eh         G(T)/Eh
   ------------------------------------------------------------------------
    298.15    0.416554E-01    0.642339E+00    0.111531E+00    0.530808E+00
   ------------------------------------------------------------------------

         :::::::::::::::::::::::::::::::::::::::::::::::::::::
         ::                  THERMODYNAMIC                  ::
         :::::::::::::::::::::::::::::::::::::::::::::::::::::
         :: total free energy        -102.868840990556 Eh   ::
         ::.................................................::
         :: total energy             -103.399648866581 Eh   ::
         :: zero point energy           0.600683406748 Eh   ::
         :: G(RRHO) w/o ZPVE           -0.069875530723 Eh   ::
         :: G(RRHO) contrib.            0.530807876025 Eh   ::
         :::::::::::::::::::::::::::::::::::::::::::::::::::::

           -------------------------------------------------
          | TOTAL ENERGY             -103.399648866581 Eh   |
          | TOTAL ENTHALPY           -102.757310053618 Eh   |
          | TOTAL FREE ENERGY        -102.868840990556 Eh   |
          | GRADIENT NORM               0.000076140497 Eh/α |
          | HOMO-LUMO GAP               0.526507887268 eV   |
           -------------------------------------------------

 * finished run on 2025/08/30 at 18:45:00.844
