   * xtb version 6.7.1 (edcfbbe) compiled by 'albert@albert-system' on 2024-07-22

   ID    Z sym.   atoms
    1    6 C      1-7, 9, 11, 13-39
    2   15 P      8, 10, 12
    3    1 H      40-76

          program call               : xtb data2507/toluene/dTolmp/dTolmp_toluene_S0_crest.xyz --gfn 2 --gbsa toluene --ohess vtight --parallel 40 --molden --ceasefiles --namespace data2507/toluene/dTolmp/dTolmp_toluene_S0_finalOpt
      * Solvation model:               GBSA
        Solvent                        toluene
        Solvent mass                       9.2140E+01 g/mol
          :  Hamiltonian                  GFN2-xTB          :
 * total energy  :  -103.5155083 Eh     change       -0.1628720E-08 Eh
 * total energy  :  -103.5155559 Eh     change       -0.4757928E-04 Eh
 * total energy  :  -103.5156036 Eh     change       -0.4762608E-04 Eh
 * total energy  :  -103.5156212 Eh     change       -0.1769805E-04 Eh
 * total energy  :  -103.5156572 Eh     change       -0.3598681E-04 Eh
 * total energy  :  -103.5156740 Eh     change       -0.1680123E-04 Eh
 * total energy  :  -103.5156981 Eh     change       -0.2407887E-04 Eh
 * total energy  :  -103.5157060 Eh     change       -0.7896089E-05 Eh
 * total energy  :  -103.5157106 Eh     change       -0.4635075E-05 Eh
 * total energy  :  -103.5157155 Eh     change       -0.4865463E-05 Eh
 * total energy  :  -103.5157309 Eh     change       -0.3137937E-05 Eh
 * total energy  :  -103.5157329 Eh     change       -0.1984296E-05 Eh
 * total energy  :  -103.5157342 Eh     change       -0.1346400E-05 Eh
 * total energy  :  -103.5157350 Eh     change       -0.7838699E-06 Eh
 * total energy  :  -103.5157355 Eh     change       -0.5022512E-06 Eh
 * total energy  :  -103.5157361 Eh     change       -0.5322106E-06 Eh
 * total energy  :  -103.5157365 Eh     change       -0.4563390E-06 Eh
 * total energy  :  -103.5157369 Eh     change       -0.3493526E-06 Eh
 * total energy  :  -103.5157369 Eh     change       -0.6441340E-08 Eh
   *** GEOMETRY OPTIMIZATION CONVERGED AFTER 22 ITERATIONS ***

 final structure:
================
76
 xtb: 6.7.1 (edcfbbe)
C           -5.92647747026095       -0.48153950621056       -1.43450085197291
C           -5.56380520773973       -1.55838197973873       -0.46116806728431
C           -6.55773206362661       -2.27786935110147        0.18602747810540
C           -6.24608453960613       -3.28502683533522        1.08305063462070
C           -4.92050416771597       -3.59148014620372        1.33229859045064
C           -3.91748257750231       -2.88065206775710        0.69699777671385
C           -4.21998828490727       -1.84682009045717       -0.18366065246447
P           -2.93813000128686       -0.91115918273571       -1.11121813285334
C           -1.39446237694135       -1.40226221739852       -0.19788836200891
P           -0.00246187817953       -0.35474606668514       -0.87212282602464
C            1.39873800965131       -1.39788654716265       -0.21145305802225
P            2.94078661802454       -0.87333220372520       -1.10857653514018
C            4.22623828692650       -1.83577712770912       -0.21380386612587
C            3.92917085127963       -2.89290194652494        0.64065906445120
C            4.93624121563413       -3.62197019850995        1.24835690715877
C            6.26027771682270       -3.31012486748392        0.99756505248605
C            6.56636857458407       -2.27799881856282        0.12741913278430
C            5.56835379237216       -1.53972254495535       -0.49168464702280
C            5.92461868809504       -0.43436244199295       -1.43494298845988
C            3.17402218905246        0.74785364977413       -0.26408656782270
C            3.47486810936537        0.80269966928007        1.09084484687806
C            3.65468887195004        2.01839820906274        1.72362553244070
C            3.54156600423163        3.19089596276263        0.99739742509224
C            3.24328026237829        3.14077828976615       -0.35275703806134
C            3.05226880016529        1.92839417798178       -1.00084776026132
C            2.72101077126876        1.88188478081603       -2.45997404788423
C           -0.00369680229012        0.98969636209671        0.38129788845288
C           -0.01840088806467        2.29988231041121       -0.07993107668375
C           -0.02392209000102        3.35964124481502        0.80742662576244
C           -0.01441048803258        3.12087423923156        2.16966026923881
C            0.00064166935826        1.81829672900259        2.63915347390204
C            0.00583521474834        0.75933089407851        1.75194240347886
C           -3.17262368872739        0.73690438907977       -0.32112821750783
C           -3.47119657144638        0.83744427477985        1.03167010831315
C           -3.65254146750411        2.07375567614093        1.62272405792652
C           -3.54345815494467        3.22094642061140        0.85653705612752
C           -3.24717917542406        3.12528329342754       -0.49161415271787
C           -3.05427929008430        1.89182586811004       -1.09803508306223
C           -2.72331674750111        1.79638914407663       -2.55489000269163
H           -5.24809546024666       -0.50432972801426       -2.28874819494867
H           -6.94777006529052       -0.60405768781191       -1.78811723208458
H           -5.83848629130807        0.49872413519194       -0.96376797539421
H           -7.59428633666683       -2.04922579036411       -0.02093187834102
H           -7.03465848755707       -3.83414086284443        1.57725732910088
H           -4.66409247376694       -4.38598716933829        2.01909594567291
H           -2.88921210823155       -3.14481923871806        0.89595650619687
H           -1.17916876029933       -2.44116315879420       -0.47181269521692
H           -1.49986592972555       -1.30621554462440        0.88612992802271
H            1.19485226141818       -2.43264494452161       -0.50922500081410
H            1.49817488260006       -1.32515547922730        0.87498494655384
H            2.90219285940002       -3.16114801069791        0.84087801065258
H            4.68427127466634       -4.43471036054274        1.91513475187424
H            7.05184465899502       -3.87392921552543        1.46998121989623
H            7.60156229243725       -2.04396744413381       -0.08027633591770
H            5.83493245293163        0.53164729866404       -0.93585013867692
H            6.94516087268183       -0.54326360559297       -1.79504127744236
H            5.24352761143906       -0.43460053587941       -2.28735200086609
H            3.57953000571145       -0.11537137361373        1.65465163736476
H            3.88587231713477        2.04949587663917        2.77901083452286
H            3.68440461501822        4.14526274900466        1.48382923756203
H            3.15506352883514        4.06098542266760       -0.91344316993654
H            1.84434906866781        1.25380187038676       -2.62332837797084
H            3.54772652726155        1.44924761412507       -3.02344588805287
H            2.52175875615690        2.87813325872098       -2.84703482645138
H           -0.02607433441222        2.48406329226895       -1.14418192927298
H           -0.03598209641865        4.37394934661461        0.43615584555587
H           -0.01871583442358        3.94595065590508        2.86726967067734
H            0.00833985251534        1.62649339621393        3.70328512290581
H            0.01741159063047       -0.24967732675973        2.14344119848110
H           -3.57296119292224       -0.06101508823983        1.62678005843333
H           -3.88190461469416        2.14050353755945        2.67682898024739
H           -3.68805308853574        4.19100147709074        1.31034457326766
H           -3.16181514249130        4.02582806026216       -1.08386108396574
H           -3.54460678419447        1.33309806415101       -3.10162317783368
H           -2.53658719543204        2.78035346707240       -2.97792421117932
H           -1.83891065300868        1.17378111651726       -2.69619020491297

          :  Hamiltonian                  GFN2-xTB          :
         :: gradient norm              0.000056017735 Eh/a0 ::
         :: HOMO-LUMO gap              3.339408362219 eV    ::
         :: SCC energy              -105.341943870254 Eh    ::
         :: -> dispersion             -0.118689560284 Eh    ::
         :: -> Gsolv                  -0.037568183877 Eh    ::
         :: repulsion energy           1.826206992462 Eh    ::

    * Orbital Energies and Occupations

         #    Occupation            Energy/Eh            Energy/eV
      -------------------------------------------------------------
         1        2.0000           -0.6677358             -18.1700
       ...           ...                  ...                  ...
        86        2.0000           -0.4083030             -11.1105
        87        2.0000           -0.4052066             -11.0262
        88        2.0000           -0.4033157             -10.9748
        89        2.0000           -0.4017181             -10.9313
        90        2.0000           -0.3980327             -10.8310
        91        2.0000           -0.3944745             -10.7342
        92        2.0000           -0.3933403             -10.7033
        93        2.0000           -0.3920843             -10.6692
        94        2.0000           -0.3913751             -10.6499
        95        2.0000           -0.3845531             -10.4642
        96        2.0000           -0.3767157             -10.2510
        97        2.0000           -0.3650663              -9.9340
        98        2.0000           -0.3641795              -9.9098 (HOMO)
        99                         -0.2414585              -6.5704 (LUMO)
       100                         -0.2350692              -6.3966
       101                         -0.2322226              -6.3191
       102                         -0.2288387              -6.2270
       103                         -0.2282377              -6.2107
       104                         -0.2251768              -6.1274
       105                         -0.2198939              -5.9836
       106                         -0.2195995              -5.9756
       107                         -0.2179342              -5.9303
       108                         -0.2160607              -5.8793
       109                         -0.1762061              -4.7948
       ...                                ...                  ...
       208                          1.0117310              27.5306
      -------------------------------------------------------------
                  HL-Gap            0.1227210 Eh            3.3394 eV

     #   Z          covCN         q      C6AA      α(0)
     1   6 C        3.764    -0.103    22.514     6.763
     2   6 C        3.048     0.016    27.613     8.618
     3   6 C        2.924    -0.041    29.025     8.835
     4   6 C        2.918    -0.034    28.838     8.806
     5   6 C        2.918    -0.038    28.946     8.823
     6   6 C        2.966    -0.035    28.861     8.812
     7   6 C        2.918     0.006    27.884     8.659
     8  15 P        3.447    -0.150   167.063    23.218
     9   6 C        3.697    -0.034    21.351     6.609
    10  15 P        3.713    -0.116   165.504    23.110
    11   6 C        3.697    -0.034    21.349     6.609
    12  15 P        3.446    -0.149   167.042    23.217
    13   6 C        2.918     0.006    27.884     8.659
    14   6 C        2.965    -0.035    28.860     8.812
    15   6 C        2.918    -0.038    28.946     8.823
    16   6 C        2.918    -0.034    28.838     8.806
    17   6 C        2.924    -0.041    29.024     8.835
    18   6 C        3.049     0.016    27.612     8.618
    19   6 C        3.764    -0.103    22.516     6.763
    20   6 C        2.922     0.011    27.761     8.640
    21   6 C        2.980    -0.029    28.708     8.789
    22   6 C        2.919    -0.038    28.940     8.822
    23   6 C        2.919    -0.032    28.803     8.801
    24   6 C        2.925    -0.041    29.024     8.835
    25   6 C        3.033     0.019    27.547     8.609
    26   6 C        3.762    -0.107    22.585     6.775
    27   6 C        2.917     0.015    27.679     8.627
    28   6 C        3.011    -0.025    28.619     8.775
    29   6 C        2.919    -0.028    28.709     8.787
    30   6 C        2.921    -0.029    28.718     8.788
    31   6 C        2.920    -0.031    28.777     8.797
    32   6 C        2.967    -0.026    28.655     8.780
    33   6 C        2.922     0.012    27.756     8.640
    34   6 C        2.980    -0.028    28.705     8.788
    35   6 C        2.919    -0.038    28.940     8.822
    36   6 C        2.919    -0.032    28.801     8.801
    37   6 C        2.925    -0.041    29.022     8.835
    38   6 C        3.033     0.019    27.542     8.608
    39   6 C        3.762    -0.107    22.587     6.775
    40   1 H        0.924     0.061     2.184     2.311
    41   1 H        0.925     0.046     2.373     2.409
    42   1 H        0.924     0.049     2.327     2.385
    43   1 H        0.925     0.030     2.592     2.518
    44   1 H        0.926     0.027     2.626     2.534
    45   1 H        0.926     0.025     2.654     2.548
    46   1 H        0.926     0.030     2.579     2.511
    47   1 H        0.927     0.054     2.274     2.358
    48   1 H        0.925     0.060     2.203     2.321
    49   1 H        0.927     0.054     2.270     2.356
    50   1 H        0.925     0.060     2.204     2.322
    51   1 H        0.926     0.030     2.580     2.512
    52   1 H        0.926     0.025     2.654     2.548
    53   1 H        0.926     0.027     2.626     2.534
    54   1 H        0.925     0.030     2.592     2.518
    55   1 H        0.924     0.049     2.327     2.385
    56   1 H        0.925     0.046     2.373     2.409
    57   1 H        0.924     0.061     2.182     2.310
    58   1 H        0.925     0.026     2.638     2.540
    59   1 H        0.926     0.024     2.680     2.560
    60   1 H        0.926     0.028     2.622     2.532
    61   1 H        0.926     0.033     2.548     2.496
    62   1 H        0.924     0.067     2.124     2.279
    63   1 H        0.925     0.059     2.208     2.324
    64   1 H        0.925     0.047     2.364     2.404
    65   1 H        0.926     0.046     2.374     2.409
    66   1 H        0.926     0.033     2.538     2.491
    67   1 H        0.926     0.031     2.574     2.509
    68   1 H        0.925     0.029     2.605     2.524
    69   1 H        0.925     0.028     2.608     2.525
    70   1 H        0.925     0.026     2.644     2.543
    71   1 H        0.926     0.023     2.684     2.562
    72   1 H        0.926     0.028     2.620     2.531
    73   1 H        0.925     0.033     2.544     2.494
    74   1 H        0.925     0.059     2.210     2.325
    75   1 H        0.925     0.047     2.363     2.404
    76   1 H        0.924     0.067     2.123     2.278

molecular dipole:
                 x           y           z       tot (Debye)
 q only:        0.002       0.780      -0.434
   full:        0.002       0.690       0.861       2.805

 projected vibrational frequencies (cm⁻¹)
eigval :       -0.00    -0.00    -0.00     0.00     0.00     0.00
eigval :        8.38    14.43    23.26    31.89    34.98    40.27
eigval :       45.95    48.66    51.40    53.54    62.36    64.60
eigval :       73.99    78.97    95.68   105.42   112.79   116.94
eigval :      132.44   135.37   140.14   142.98   156.12   159.45
eigval :      163.79   171.61   181.01   193.08   203.01   208.62
eigval :      223.26   230.59   245.73   247.95   269.10   299.29
eigval :      306.89   321.58   365.81   366.08   369.80   371.15
eigval :      373.74   402.32   403.95   406.12   413.80   415.78
eigval :      417.43   418.37   435.99   436.83   451.14   475.93
eigval :      477.61   495.03   495.82   533.30   533.44   537.44
eigval :      537.47   584.82   652.21   655.63   655.81   656.46
eigval :      658.23   665.73   668.50   676.07   677.25   681.05
eigval :      690.01   722.40   729.23   734.27   749.78   753.96
eigval :      760.96   765.89   766.03   774.31   779.82   807.62
eigval :      807.69   808.07   808.14   872.99   875.74   876.41
eigval :      880.13   880.50   900.92   911.08   911.27   913.28
eigval :      913.42   925.56   926.76   927.22   928.74   928.89
eigval :      930.16   967.69   996.06   996.23   997.81   998.69
eigval :     1002.41  1018.69  1024.10  1024.94  1025.76  1026.62
eigval :     1040.77  1041.04  1045.43  1045.99  1073.50  1084.47
eigval :     1097.50  1099.92  1100.90  1108.15  1114.96  1119.01
eigval :     1127.20  1159.67  1161.72  1162.06  1162.14  1179.48
eigval :     1184.17  1185.27  1186.51  1187.66  1202.37  1230.79
eigval :     1231.13  1232.86  1233.06  1262.51  1263.05  1263.90
eigval :     1264.21  1277.12  1312.72  1312.79  1315.41  1315.52
eigval :     1320.41  1362.98  1371.99  1391.57  1392.81  1396.59
eigval :     1397.11  1423.52  1424.30  1424.59  1424.89  1426.35
eigval :     1452.21  1452.28  1457.91  1460.56  1460.95  1462.55
eigval :     1462.80  1465.89  1467.73  1469.94  1471.27  1471.63
eigval :     1472.46  1571.25  1571.31  1575.85  1576.21  1583.40
eigval :     1588.75  1588.81  1591.48  1591.58  1592.78  2898.84
eigval :     2905.13  2908.61  2911.72  2979.27  2979.67  2985.16
eigval :     2986.19  2992.97  2993.83  3002.85  3002.88  3032.33
eigval :     3032.73  3037.89  3038.09  3042.59  3048.19  3048.40
eigval :     3060.54  3060.96  3061.13  3062.88  3063.55  3063.84
eigval :     3063.93  3067.13  3067.54  3071.10  3076.35  3076.62
eigval :     3078.62  3079.63  3081.33  3084.18  3084.33  3087.64

   temp. (K)  partition function   enthalpy   heat capacity  entropy
                                   cal/mol     cal/K/mol   cal/K/mol   J/K/mol
 298.15  VIB  0.393E+19            23293.372    139.066    148.353
         ROT  0.431E+08              888.752      2.981     37.917
         INT  0.170E+27            24182.124    142.047    186.270
         TR   0.129E+29             1481.254      4.968     44.847
         TOT                       25663.3783   147.0152   231.1165   966.9915

       T/K    H(0)-H(T)+PV         H(T)/Eh          T*S/Eh         G(T)/Eh
   ------------------------------------------------------------------------
    298.15    0.408972E-01    0.646257E+00    0.109811E+00    0.536446E+00
   ------------------------------------------------------------------------

         :::::::::::::::::::::::::::::::::::::::::::::::::::::
         ::                  THERMODYNAMIC                  ::
         :::::::::::::::::::::::::::::::::::::::::::::::::::::
         :: total free energy        -102.979290784613 Eh   ::
         ::.................................................::
         :: total energy             -103.515736876829 Eh   ::
         :: zero point energy           0.605359806548 Eh   ::
         :: G(RRHO) w/o ZPVE           -0.068913714332 Eh   ::
         :: G(RRHO) contrib.            0.536446092216 Eh   ::
         :::::::::::::::::::::::::::::::::::::::::::::::::::::

           -------------------------------------------------
          | TOTAL ENERGY             -103.515736876829 Eh   |
          | TOTAL ENTHALPY           -102.869479873700 Eh   |
          | TOTAL FREE ENERGY        -102.979290784613 Eh   |
          | GRADIENT NORM               0.000056019986 Eh/α |
          | HOMO-LUMO GAP               3.339408212598 eV   |
           -------------------------------------------------

 * finished run on 2025/08/30 at 18:44:47.780
