   * xtb version 6.7.1 (edcfbbe) compiled by 'albert@albert-system' on 2024-07-22

   ID    Z sym.   atoms
    1    7 N      1, 21
    2    6 C      2-20, 22-35, 37-45
    3    8 O      36
    4    1 H      46-69

          program call               : xtb data2507/gas/PO-ABN/PO-ABN_gas_S0_finalOpt.xtbopt.xyz --gfn 2 --spinpol --tblite --uhf 2 --ohess vtight --parallel 40 --molden --ceasefiles --namespace data2507/gas/PO-ABN/PO-ABN_gas_T1_preOpt
 * total energy  :  -112.0218840 Eh     change        0.4821150E-07 Eh
 * total energy  :  -112.0281889 Eh     change       -0.6304885E-02 Eh
 * total energy  :  -112.0296509 Eh     change       -0.1461968E-02 Eh
 * total energy  :  -112.0297864 Eh     change       -0.1355494E-03 Eh
 * total energy  :  -112.0299381 Eh     change       -0.1516917E-03 Eh
 * total energy  :  -112.0300326 Eh     change       -0.9451201E-04 Eh
 * total energy  :  -112.0301418 Eh     change       -0.1091725E-03 Eh
 * total energy  :  -112.0302805 Eh     change       -0.1387630E-03 Eh
 * total energy  :  -112.0304069 Eh     change       -0.1263380E-03 Eh
 * total energy  :  -112.0304999 Eh     change       -0.9304018E-04 Eh
 * total energy  :  -112.0311764 Eh     change       -0.6473515E-06 Eh
 * total energy  :  -112.0311770 Eh     change       -0.6084366E-06 Eh
 * total energy  :  -112.0311778 Eh     change       -0.7769837E-06 Eh
 * total energy  :  -112.0311781 Eh     change       -0.3180583E-06 Eh
 * total energy  :  -112.0311784 Eh     change       -0.2379807E-06 Eh
 * total energy  :  -112.0311786 Eh     change       -0.2282182E-06 Eh
 * total energy  :  -112.0311787 Eh     change       -0.1485126E-06 Eh
 * total energy  :  -112.0311789 Eh     change       -0.1474391E-06 Eh
 * total energy  :  -112.0311790 Eh     change       -0.7039961E-07 Eh
   *** GEOMETRY OPTIMIZATION CONVERGED AFTER 65 ITERATIONS ***

 final structure:
================
69
 xtb: 6.7.1 (edcfbbe)
N          -10.49181838558386       -2.83274374288722       -0.30188344175043
C           -9.46144060699922       -2.33004868187923       -0.24542674033528
C           -8.19594574509143       -1.71296673010931       -0.17584594095577
C           -7.72104771829373       -1.21685960691565        1.04255260927416
C           -6.48142375892535       -0.62336365613587        1.10737957938111
C           -5.68329943675563       -0.48782676317973       -0.03756342078242
C           -4.37688065808619        0.15009416346460        0.03553633387986
C           -3.40439942690424       -0.32244099115644        0.97558507705288
C           -3.63289388899152       -1.45025404538528        1.76607563026415
C           -2.71501361401185       -1.86161955624091        2.73151189604272
C           -1.55534181706453       -1.14388653542775        2.92294978904980
C           -1.27421817965769       -0.05077463175122        2.10582443463511
C           -2.14975325523445        0.34607716918123        1.09188116810698
C           -1.82378125342445        1.40477949940391        0.18867319697290
C           -0.51519758504196        2.05408972123363        0.27198654399725
C           -0.41156278437162        3.43536908104515        0.46452745054640
C            0.82702378047255        4.04593541601559        0.55098388975936
C            1.98569420083938        3.30134178518181        0.44192758045496
C            1.90022456908978        1.92111801403488        0.24712756520282
C            3.11150337609367        1.14103177360467        0.13369446217815
N            4.32614948691472        1.60796922237924        0.16942760986038
C            5.13281710223671        0.51555862148535        0.03149655411057
C            6.55207110341293        0.41603173900709       -0.00227848312695
C            7.36649849956539        1.54650270768773        0.11299969090133
C            8.73322760425449        1.42233216571314        0.07607012254362
C            9.30184783012323        0.15960953571861       -0.07747364555840
C            8.51046380410945       -0.95953928451778       -0.19158924848549
C            7.10992962722554       -0.87662622255560       -0.15846657957481
C            6.25563455305264       -2.04644926838571       -0.27659744708989
C            6.76450161350318       -3.34436574565241       -0.42984978345735
C            5.93699097039464       -4.43794579488446       -0.53914572042682
C            4.55177135081686       -4.29132557631189       -0.50073356483718
C            4.01004364307237       -3.03946247656521       -0.35220154406558
C            4.84270986342096       -1.91890523986481       -0.24020001356819
C            4.33131096323195       -0.60868874601888       -0.08496241357637
O            3.04095425968547       -0.20803202179244       -0.01976173827662
C            0.65540980471277        1.30567089367151        0.16603263869620
C           -2.76792967269212        1.83305962089258       -0.79501612521710
C           -2.44834096984961        2.80930878530737       -1.74191268363123
C           -3.39911548456979        3.28965871575501       -2.64020776095483
C           -4.68805990557262        2.80667114438026       -2.59607814098780
C           -5.01745411803187        1.79148059596005       -1.69897503760213
C           -4.06788754834923        1.24726770030187       -0.83229420814195
C           -6.17624028479456       -0.98255945771644       -1.25344975184814
C           -7.40712710856212       -1.59343739236177       -1.32455065296531
H           -8.33627572285061       -1.30039398927912        1.92660749880182
H           -6.12699768803469       -0.22051445439815        2.04500396252410
H           -4.53483298834144       -2.02618656960407        1.62659969373437
H           -2.92804734866928       -2.73412593692652        3.33039412181181
H           -0.85237724407798       -1.42901739758479        3.69107287831021
H           -0.36043367859601        0.50075049964264        2.26477229900104
H           -1.31339620285938        4.02023596412799        0.57284209511186
H            0.88604342796987        5.11266636966755        0.70880507046548
H            2.96019668936502        3.75712569578266        0.50468920311181
H            6.88715646484963        2.50602802109699        0.23005812437227
H            9.36610460779807        2.29268141636331        0.16464161305489
H           10.37692702951094        0.05751245085061       -0.10745810084372
H            8.99365504717022       -1.91633595239587       -0.30912933375346
H            7.82989139987749       -3.50560842050391       -0.46446298012706
H            6.36608113748667       -5.42226426725302       -0.65602858931993
H            3.91310233830267       -5.15753495829855       -0.58735680625949
H            2.94056723159177       -2.89318019314788       -0.31863078563036
H            0.59718640624039        0.24142337055372       -0.00790016611822
H           -1.44294710680007        3.19922684675287       -1.78349447734448
H           -3.12068674915689        4.04975075951717       -3.35444820781855
H           -5.44564829050837        3.19755951810626       -3.25828265917328
H           -6.03328090513627        1.42807863831795       -1.67451228566562
H           -5.55916719346726       -0.91312433160260       -2.13743055080250
H           -7.77065591204467       -1.98754454870578       -2.26240968210270

 projected vibrational frequencies (cm⁻¹)
eigval :       -0.00    -0.00    -0.00     0.00     0.00     0.00
eigval :        8.83    10.85    13.25    27.53    37.14    48.24
eigval :       55.84    62.11    72.21    79.00    80.97    87.08
eigval :      116.87   118.13   125.83   134.63   139.02   179.43
eigval :      180.28   190.78   207.27   216.88   229.90   238.96
eigval :      248.72   250.75   273.05   279.24   286.32   339.71
eigval :      352.15   360.12   368.09   388.77   392.59   394.34
eigval :      399.10   401.11   417.34   418.15   427.98   439.33
eigval :      441.20   450.08   469.20   472.13   503.17   512.08
eigval :      529.64   533.10   535.13   543.67   569.52   582.12
eigval :      583.75   587.12   599.73   604.00   608.77   622.16
eigval :      639.92   656.85   662.85   667.36   670.28   673.59
eigval :      681.10   688.48   694.63   704.40   717.14   738.33
eigval :      740.41   748.28   761.31   768.34   771.82   784.67
eigval :      787.21   800.56   816.66   845.93   848.60   867.10
eigval :      869.45   877.42   886.74   891.45   893.14   901.13
eigval :      905.39   908.44   909.41   910.53   916.04   916.28
eigval :      922.69   926.07   926.13   928.15   931.41   935.00
eigval :      941.20   945.48   983.75   995.81  1014.88  1019.22
eigval :     1054.84  1081.87  1088.63  1099.75  1101.68  1104.60
eigval :     1114.00  1117.90  1128.17  1135.14  1143.25  1158.31
eigval :     1178.74  1180.66  1181.45  1182.89  1183.70  1184.09
eigval :     1186.01  1188.54  1211.30  1231.93  1239.15  1245.93
eigval :     1253.17  1254.89  1255.89  1259.77  1267.71  1279.05
eigval :     1281.16  1297.28  1306.56  1310.02  1312.65  1321.48
eigval :     1338.85  1343.55  1344.63  1363.57  1372.18  1377.68
eigval :     1401.25  1402.24  1405.22  1408.00  1411.36  1426.31
eigval :     1431.04  1435.45  1454.63  1464.41  1477.94  1486.61
eigval :     1516.62  1517.18  1517.55  1518.42  1531.30  1549.36
eigval :     1554.03  1557.12  1561.67  1568.82  1572.01  1578.96
eigval :     1595.15  1605.54  2357.62  3076.50  3078.53  3079.04
eigval :     3079.33  3080.50  3081.65  3081.99  3085.18  3087.80
eigval :     3088.85  3089.11  3090.08  3091.28  3091.57  3092.86
eigval :     3095.45  3096.91  3097.40  3099.91  3100.88  3101.46
eigval :     3105.05  3111.10  3119.20

   temp. (K)  partition function   enthalpy   heat capacity  entropy
                                   cal/mol     cal/K/mol   cal/K/mol   J/K/mol
 298.15  VIB  0.212E+16            19945.486    128.317    123.800
         ROT  0.800E+08              888.752      2.981     39.143
         INT  0.169E+24            20834.238    131.298    162.943
         TR   0.133E+29             1481.254      4.968     44.899
         TOT                       22315.4922   136.2661   207.8426   869.6133

       T/K    H(0)-H(T)+PV         H(T)/Eh          T*S/Eh         G(T)/Eh
   ------------------------------------------------------------------------
    298.15    0.355620E-01    0.549529E+00    0.987527E-01    0.450777E+00
   ------------------------------------------------------------------------

         :::::::::::::::::::::::::::::::::::::::::::::::::::::
         ::                  THERMODYNAMIC                  ::
         :::::::::::::::::::::::::::::::::::::::::::::::::::::
         :: total free energy        -111.580402380933 Eh   ::
         ::.................................................::
         :: total energy             -112.031178936896 Eh   ::
         :: zero point energy           0.513967263348 Eh   ::
         :: G(RRHO) w/o ZPVE           -0.063190707386 Eh   ::
         :: G(RRHO) contrib.            0.450776555963 Eh   ::
         :::::::::::::::::::::::::::::::::::::::::::::::::::::

           -------------------------------------------------
          | TOTAL ENERGY             -112.031178936896 Eh   |
          | TOTAL ENTHALPY           -111.481649673121 Eh   |
          | TOTAL FREE ENERGY        -111.580402380933 Eh   |
          | GRADIENT NORM               0.000048799054 Eh/α |
           -------------------------------------------------

 * finished run on 2025/09/02 at 19:16:58.397
