   * xtb version 6.7.1 (edcfbbe) compiled by 'albert@albert-system' on 2024-07-22

   ID    Z sym.   atoms
    1    7 N      1, 21
    2    6 C      2-20, 22-35, 37-45
    3    8 O      36
    4    1 H      46-69

          program call               : xtb data2507/gas/PO-ABN/PO-ABN_gas_T1_crest.xyz --gfn 2 --spinpol --tblite --uhf 2 --ohess vtight --parallel 40 --molden --ceasefiles --namespace data2507/gas/PO-ABN/PO-ABN_gas_T1_finalOpt
 * total energy  :  -112.0310929 Eh     change       -0.2343951E-07 Eh
 * total energy  :  -112.0311310 Eh     change       -0.3812826E-04 Eh
 * total energy  :  -112.0311433 Eh     change       -0.1229141E-04 Eh
 * total energy  :  -112.0311478 Eh     change       -0.4490237E-05 Eh
 * total energy  :  -112.0311542 Eh     change       -0.6406882E-05 Eh
 * total energy  :  -112.0311620 Eh     change       -0.7817030E-05 Eh
 * total energy  :  -112.0311676 Eh     change       -0.5588735E-05 Eh
 * total energy  :  -112.0311723 Eh     change       -0.4698154E-05 Eh
 * total energy  :  -112.0311737 Eh     change       -0.1364991E-05 Eh
 * total energy  :  -112.0311741 Eh     change       -0.4205269E-06 Eh
 * total energy  :  -112.0311750 Eh     change       -0.3291797E-06 Eh
 * total energy  :  -112.0311756 Eh     change       -0.5828480E-06 Eh
 * total energy  :  -112.0311758 Eh     change       -0.1734183E-06 Eh
 * total energy  :  -112.0311759 Eh     change       -0.1698372E-06 Eh
 * total energy  :  -112.0311762 Eh     change       -0.2311931E-06 Eh
 * total energy  :  -112.0311765 Eh     change       -0.2951814E-06 Eh
 * total energy  :  -112.0311768 Eh     change       -0.3553847E-06 Eh
 * total energy  :  -112.0311770 Eh     change       -0.1859593E-06 Eh
 * total energy  :  -112.0311770 Eh     change       -0.2738319E-07 Eh
   *** GEOMETRY OPTIMIZATION CONVERGED AFTER 22 ITERATIONS ***

 final structure:
================
69
 xtb: 6.7.1 (edcfbbe)
N          -10.50598943502263       -2.80582225450776       -0.59260587052749
C           -9.47373347796237       -2.31666640911041       -0.47938825585094
C           -8.20609857974940       -1.71595524745949       -0.34044154586990
C           -7.71029653145209       -1.40468387893133        0.92978259016566
C           -6.46908864900518       -0.82564583564096        1.06084418391391
C           -5.69005655174485       -0.52125933065405       -0.06469256033690
C           -4.38297060775816        0.10271344294802        0.08066471845948
C           -3.39554424436165       -0.49967354989707        0.92618564477537
C           -3.60985599581167       -1.73371074842945        1.54283346939741
C           -2.67756176026698       -2.27970991704635        2.42398598354717
C           -1.51784298174292       -1.59229085766555        2.70537831909925
C           -1.25142312315672       -0.38808963776357        2.05691364673397
C           -2.14150229177104        0.15055878088497        1.12428738488290
C           -1.83154612824583        1.33358113295593        0.38443981064389
C           -0.52756888768052        1.97577375189741        0.55120012082262
C           -0.43549497621736        3.31548499350802        0.94211676363522
C            0.79764282334321        3.92045410486725        1.10793477260114
C            1.96244870646598        3.21194782754544        0.88428176018804
C            1.88871437111262        1.87377740821516        0.49161519949815
C            3.10740008310843        1.13203320929986        0.26084571743340
N            4.31679639698289        1.60412602249312        0.35680378354366
C            5.13514272285703        0.55224964498002        0.06222202700636
C            6.55524127375594        0.47608085502840        0.00937661065888
C            7.35689662615782        1.58917454929630        0.27942023554717
C            8.72477396293741        1.48832868783679        0.22057672630391
C            9.30734580784309        0.26682950405751       -0.11098360964292
C            8.52858110566304       -0.83491161327442       -0.37839734813086
C            7.12736069875938       -0.77484122843571       -0.32877588915004
C            6.28610883334061       -1.92697976780295       -0.60650666825111
C            6.80941398528546       -3.18448894487970       -0.94091689574455
C            5.99429311720597       -4.26225311103802       -1.19903070857457
C            4.60765411608397       -4.13939598045643       -1.13632000206200
C            4.05199580852280       -2.92724005284165       -0.81285304254731
C            4.87194970824671       -1.82312676370783       -0.54799580085873
C            4.34602414326921       -0.55406790985874       -0.20848402512006
O            3.05145946968998       -0.18248046109547       -0.08173450656912
C            0.64934446743280        1.26332798148570        0.32939098745189
C           -2.78957371414267        1.89616234901457       -0.51476237333559
C           -2.48477187999824        3.00148359377413       -1.31297186582530
C           -3.44865232836236        3.60448624195772       -2.11854941632844
C           -4.73607175977610        3.11551924673523       -2.12808152088794
C           -5.05112187110008        1.97857282487741       -1.38517228373631
C           -4.08856705828093        1.31668635537325       -0.62066378976546
C           -6.20345239330559       -0.83247812249406       -1.33185861742207
C           -7.43610947155378       -1.42770460990608       -1.47183285831401
H           -8.31083700479144       -1.61851671957628        1.80194240815895
H           -6.09857301736846       -0.56527840293810        2.04164469363385
H           -4.51211798586445       -2.28669999020339        1.33118188218048
H           -2.87955477004540       -3.23284994898260        2.88877819330791
H           -0.80368121667381       -1.98491470587186        3.41340175233925
H           -0.33771078976496        0.13863183342265        2.28518584608246
H           -1.34202790545770        3.86855142934818        1.14065186599045
H            0.84762520127053        4.95352420216952        1.41867581373636
H            2.93304816910847        3.66398715392410        1.00640229046456
H            6.86690914257196        2.51674112986507        0.53179899568216
H            9.34785025902780        2.34535723455391        0.42835412739801
H           10.38338133927163        0.18328180812775       -0.15886596594977
H            9.02238007765209       -1.75961565330995       -0.63105654233029
H            7.87645254240393       -3.32622895900934       -1.00086911558615
H            6.43434933633790       -5.21536319239058       -1.45319592259754
H            3.97878305375879       -4.99284484735848       -1.34094469183536
H            2.98104820918288       -2.80026499249475       -0.75581507175699
H            0.60020062022631        0.23538531190462        0.00197626087707
H           -1.48073748022478        3.39709173555003       -1.31051207564976
H           -3.18144916426590        4.46193771039310       -2.71752795609799
H           -5.50354314612626        3.59647375070425       -2.71537852451160
H           -6.06594338523203        1.61189553506910       -1.40033658986459
H           -5.60092484322211       -0.63306977610801       -2.20604987960189
H           -7.81557177147011       -1.67979185622441       -2.45138381152663

 projected vibrational frequencies (cm⁻¹)
eigval :       -0.00    -0.00    -0.00     0.00     0.00     0.00
eigval :        8.84    10.98    13.27    27.55    37.25    48.32
eigval :       55.85    62.14    72.31    79.09    81.11    87.08
eigval :      116.68   118.11   125.95   134.62   139.29   179.45
eigval :      180.29   190.82   207.32   217.00   229.90   239.18
eigval :      248.86   250.89   273.14   279.23   286.38   339.77
eigval :      351.99   360.23   368.12   388.76   392.60   394.48
eigval :      399.10   401.12   417.45   418.12   428.04   439.34
eigval :      441.25   450.01   469.23   472.16   503.17   512.04
eigval :      529.67   533.15   535.12   543.67   569.55   582.13
eigval :      583.77   587.15   599.76   603.96   608.82   622.17
eigval :      639.98   656.83   662.84   667.36   670.31   673.63
eigval :      681.10   688.47   694.63   704.39   717.17   738.33
eigval :      740.33   748.34   761.35   768.31   771.80   784.65
eigval :      787.17   800.55   816.68   846.01   848.70   867.08
eigval :      869.46   877.40   886.76   891.52   893.18   901.45
eigval :      905.39   908.48   909.52   910.52   916.02   916.28
eigval :      922.69   926.08   926.11   928.13   931.37   935.04
eigval :      941.19   945.46   983.83   995.72  1014.83  1019.20
eigval :     1054.72  1081.86  1088.56  1099.73  1101.66  1104.58
eigval :     1113.91  1118.03  1128.11  1135.14  1143.18  1158.27
eigval :     1178.72  1180.68  1181.43  1182.89  1183.70  1184.10
eigval :     1185.95  1188.55  1211.29  1231.90  1239.15  1245.83
eigval :     1253.15  1254.87  1255.85  1259.71  1267.68  1279.06
eigval :     1281.14  1297.27  1306.51  1310.00  1312.70  1321.47
eigval :     1338.74  1343.55  1344.60  1363.48  1372.07  1377.65
eigval :     1401.20  1402.21  1405.12  1407.93  1411.34  1426.18
eigval :     1430.95  1435.43  1454.39  1464.30  1477.86  1486.48
eigval :     1516.53  1517.08  1517.48  1518.36  1531.26  1549.23
eigval :     1553.84  1557.02  1561.56  1568.71  1571.90  1578.88
eigval :     1595.11  1605.49  2357.39  3076.45  3078.48  3079.05
eigval :     3079.34  3080.54  3081.68  3082.00  3085.16  3087.76
eigval :     3088.83  3089.10  3090.10  3091.31  3091.58  3092.71
eigval :     3095.42  3096.88  3097.37  3099.86  3100.88  3101.45
eigval :     3105.02  3111.08  3119.29

   temp. (K)  partition function   enthalpy   heat capacity  entropy
                                   cal/mol     cal/K/mol   cal/K/mol   J/K/mol
 298.15  VIB  0.206E+16            19943.184    128.321    123.767
         ROT  0.799E+08              888.752      2.981     39.143
         INT  0.165E+24            20831.937    131.302    162.910
         TR   0.133E+29             1481.254      4.968     44.899
         TOT                       22313.1907   136.2703   207.8092   869.4735

       T/K    H(0)-H(T)+PV         H(T)/Eh          T*S/Eh         G(T)/Eh
   ------------------------------------------------------------------------
    298.15    0.355583E-01    0.549523E+00    0.987368E-01    0.450786E+00
   ------------------------------------------------------------------------

         :::::::::::::::::::::::::::::::::::::::::::::::::::::
         ::                  THERMODYNAMIC                  ::
         :::::::::::::::::::::::::::::::::::::::::::::::::::::
         :: total free energy        -111.580390549834 Eh   ::
         ::.................................................::
         :: total energy             -112.031176958623 Eh   ::
         :: zero point energy           0.513964915195 Eh   ::
         :: G(RRHO) w/o ZPVE           -0.063178506405 Eh   ::
         :: G(RRHO) contrib.            0.450786408789 Eh   ::
         :::::::::::::::::::::::::::::::::::::::::::::::::::::

           -------------------------------------------------
          | TOTAL ENERGY             -112.031176958623 Eh   |
          | TOTAL ENTHALPY           -111.481653710607 Eh   |
          | TOTAL FREE ENERGY        -111.580390549834 Eh   |
          | GRADIENT NORM               0.000091210292 Eh/α |
           -------------------------------------------------

 * finished run on 2025/09/02 at 19:19:58.499
