   * xtb version 6.7.1 (edcfbbe) compiled by 'albert@albert-system' on 2024-07-22

   ID    Z sym.   atoms
    1    7 N      1, 21
    2    6 C      2-20, 22-35, 37-45
    3    8 O      36
    4    1 H      46-69

          program call               : xtb data2507/gas/PO-ABN/PO-ABN_gas_S0_crest.xyz --gfn 2 --ohess vtight --parallel 40 --molden --ceasefiles --namespace data2507/gas/PO-ABN/PO-ABN_gas_S0_finalOpt
          :  Hamiltonian                  GFN2-xTB          :
 * total energy  :  -112.0940188 Eh     change       -0.3050076E-08 Eh
 * total energy  :  -112.0940201 Eh     change       -0.1333834E-05 Eh
 * total energy  :  -112.0940208 Eh     change       -0.7276576E-06 Eh
 * total energy  :  -112.0940215 Eh     change       -0.7108800E-06 Eh
 * total energy  :  -112.0940215 Eh     change        0.8810551E-07 Eh
 * total energy  :  -112.0940218 Eh     change       -0.3128464E-06 Eh
 * total energy  :  -112.0940220 Eh     change       -0.2248787E-06 Eh
 * total energy  :  -112.0940213 Eh     change        0.7115852E-06 Eh
 * total energy  :  -112.0940225 Eh     change       -0.1228531E-05 Eh
 * total energy  :  -112.0940228 Eh     change       -0.2721798E-06 Eh
 * total energy  :  -112.0940232 Eh     change       -0.4125614E-06 Eh
 * total energy  :  -112.0940239 Eh     change       -0.6689117E-06 Eh
 * total energy  :  -112.0940246 Eh     change       -0.7665498E-06 Eh
 * total energy  :  -112.0940250 Eh     change       -0.3949215E-06 Eh
 * total energy  :  -112.0940251 Eh     change       -0.1269003E-06 Eh
 * total energy  :  -112.0940252 Eh     change       -0.8323624E-07 Eh
   *** GEOMETRY OPTIMIZATION CONVERGED AFTER 16 ITERATIONS ***

 final structure:
================
69
 xtb: 6.7.1 (edcfbbe)
N          -10.48164296326564       -2.80537737871551       -0.54209971859437
C           -9.45347242079341       -2.30858171399182       -0.43817134381173
C           -8.18619690582170       -1.69660449507219       -0.30979803364050
C           -7.92765026026946       -0.84573578649064        0.76594523023880
C           -6.68743093438510       -0.25352881745769        0.88745560776849
C           -5.69003403929310       -0.49251087762978       -0.05634171868229
C           -4.36484887095125        0.14581717730697        0.07866441662667
C           -3.51196421520483       -0.23639214014728        1.12405574605344
C           -3.86843228035361       -1.25469150536035        2.04734834239724
C           -3.04115784767168       -1.60079978401708        3.07070524370908
C           -1.80518285727099       -0.94529298101714        3.23829567889039
C           -1.41564761024707        0.01980480434114        2.36176079501628
C           -2.23650326134380        0.39412665260011        1.26515623342615
C           -1.83434289280363        1.36743252367255        0.33915486781304
C           -0.51156045660232        2.01223447810889        0.48017633938134
C           -0.41617501016696        3.36010166180828        0.81828923524207
C            0.82322964275593        3.96344708654826        0.95642882251427
C            1.97994423060823        3.23562501304191        0.75973619802268
C            1.89695305197896        1.88434652628369        0.42110226615228
C            3.10956016804464        1.12338287438363        0.22408794442630
N            4.32325528291509        1.58574769099669        0.31416864728045
C            5.13246712447232        0.51699398231764        0.05754634636182
C            6.55202051682738        0.42432905181954        0.01742257608386
C            7.36373493753772        1.53628326859102        0.26084785413643
C            8.73083730603191        1.41915457607522        0.21593969440950
C            9.30262218148224        0.18216860606642       -0.07443406948148
C            8.51393764877895       -0.91856026642014       -0.31559354173331
C            7.11311557028167       -0.84198425694530       -0.27945877042391
C            6.26159290942827       -1.99267195238218       -0.53055508977704
C            6.77369624483002       -3.26427193645852       -0.82688282471298
C            5.94890590841205       -4.34030312336859       -1.06029572413421
C            4.56329621562128       -4.20150947160241       -1.00943498516631
C            4.01847462423928       -2.97514310486132       -0.72330243595861
C            4.84830541159765       -1.87252722045120       -0.48430313750823
C            4.33356768770822       -0.58878561371609       -0.18518308721455
O            3.04228961503500       -0.20019717320685       -0.07888315760150
C            0.65024272538229        1.27868134377193        0.28248291443135
C           -2.67998005668777        1.73503678946174       -0.71717591140011
C           -2.28711344115942        2.69027792769670       -1.69162248171812
C           -3.12654924451139        3.05929864259642       -2.69690285316629
C           -4.41626687953970        2.49901707665428       -2.78763515673593
C           -4.82245018545084        1.56184586360929       -1.88863817214322
C           -3.96889481040026        1.12863190234896       -0.83976143469611
C           -5.95790345805909       -1.34155078250224       -1.12876912648439
C           -7.19269636780923       -1.94323471743074       -1.25856839953273
H           -8.70135105142753       -0.65744694564036        1.49578478482682
H           -6.48262506869079        0.40805767960760        1.71657126981888
H           -4.81502310957106       -1.75931300165834        1.92199201475112
H           -3.32705601123438       -2.37772464817699        3.76430265991818
H           -1.16887148681780       -1.21921554017739        4.06678117555613
H           -0.46779757421172        0.52034096062543        2.49134107101741
H           -1.32043935345957        3.92918374567037        0.97903874278392
H            0.88278966976276        5.00874344439396        1.22087506668572
H            2.95453973147130        3.68431791989027        0.86279267321204
H            6.88197960727009        2.47605714952226        0.48198723576659
H            9.36162595391432        2.27526723367866        0.40326138554370
H           10.37802880113045        0.08564179810515       -0.11077008323047
H            8.99953682075763       -1.85571143160378       -0.53629790692920
H            7.83952527505633       -3.41855489055853       -0.87655717595324
H            6.38046126182914       -5.30451294216047       -1.28556101654932
H            3.92674915865554       -5.05383713066377       -1.19409770360153
H            2.94863206959510       -2.83554141873777       -0.67650219109782
H            0.58826060820305        0.23423060020441        0.01464758386983
H           -1.29942769076303        3.12103753483359       -1.62247703159596
H           -2.81291300507715        3.78698188842602       -3.43065089955195
H           -5.07761624950147        2.81757852246068       -3.57979523341369
H           -5.81152637128609        1.13430623573033       -1.96164218060732
H           -5.18415095314967       -1.53127292419981       -1.85839576120645
H           -7.39851972336184       -2.60406534392693       -2.08784147857719

          :  Hamiltonian                  GFN2-xTB          :
         :: gradient norm              0.000040251064 Eh/a0 ::
         :: HOMO-LUMO gap              2.095673462536 eV    ::
         :: SCC energy              -114.220918326122 Eh    ::
         :: -> dispersion             -0.097221423575 Eh    ::
         :: repulsion energy           2.126893092762 Eh    ::

    * Orbital Energies and Occupations

         #    Occupation            Energy/Eh            Energy/eV
      -------------------------------------------------------------
         1        2.0000           -0.7512711             -20.4431
       ...           ...                  ...                  ...
        92        2.0000           -0.4218403             -11.4789
        93        2.0000           -0.4197871             -11.4230
        94        2.0000           -0.4183972             -11.3852
        95        2.0000           -0.4155711             -11.3083
        96        2.0000           -0.4153908             -11.3034
        97        2.0000           -0.4116786             -11.2023
        98        2.0000           -0.4097362             -11.1495
        99        2.0000           -0.4079568             -11.1011
       100        2.0000           -0.4069490             -11.0736
       101        2.0000           -0.3950182             -10.7490
       102        2.0000           -0.3911449             -10.6436
       103        2.0000           -0.3754265             -10.2159
       104        2.0000           -0.3679461             -10.0123 (HOMO)
       105                         -0.2909315              -7.9167 (LUMO)
       106                         -0.2759607              -7.5093
       107                         -0.2717986              -7.3960
       108                         -0.2574358              -7.0052
       109                         -0.2505424              -6.8176
       110                         -0.2453880              -6.6773
       111                         -0.2397548              -6.5241
       112                         -0.2351202              -6.3979
       113                         -0.2287562              -6.2248
       114                         -0.2156211              -5.8673
       115                         -0.2060045              -5.6057
       ...                                ...                  ...
       204                          1.1712399              31.8711
      -------------------------------------------------------------
                  HL-Gap            0.0770146 Eh            2.0957 eV

     #   Z          covCN         q      C6AA      α(0)
     1   7 N        0.911    -0.235    26.162     7.398
     2   6 C        1.912     0.111    28.355     8.600
     3   6 C        2.974     0.017    27.632     8.622
     4   6 C        2.925    -0.021    28.527     8.759
     5   6 C        2.923    -0.029    28.725     8.789
     6   6 C        2.977     0.025    27.442     8.593
     7   6 C        2.977    -0.009    28.231     8.716
     8   6 C        2.984     0.007    27.849     8.656
     9   6 C        2.917    -0.035    28.869     8.811
    10   6 C        2.914    -0.028    28.711     8.786
    11   6 C        2.914    -0.029    28.716     8.787
    12   6 C        2.917    -0.033    28.833     8.805
    13   6 C        2.984     0.007    27.850     8.657
    14   6 C        2.977    -0.005    28.133     8.700
    15   6 C        2.976     0.018    27.607     8.619
    16   6 C        2.924    -0.030    28.749     8.793
    17   6 C        2.917    -0.027    28.670     8.780
    18   6 C        2.925    -0.030    28.761     8.795
    19   6 C        2.973    -0.002    28.071     8.691
    20   6 C        3.235     0.214    22.745     7.738
    21   7 N        1.883    -0.291    28.383     7.898
    22   6 C        3.169     0.056    26.400     8.395
    23   6 C        2.986     0.002    27.981     8.677
    24   6 C        2.921    -0.029    28.720     8.788
    25   6 C        2.917    -0.029    28.716     8.787
    26   6 C        2.917    -0.030    28.759     8.794
    27   6 C        2.922    -0.033    28.817     8.803
    28   6 C        2.978    -0.000    28.030     8.685
    29   6 C        2.981     0.003    27.962     8.674
    30   6 C        2.921    -0.032    28.793     8.799
    31   6 C        2.917    -0.030    28.753     8.793
    32   6 C        2.917    -0.029    28.722     8.788
    33   6 C        2.920    -0.030    28.760     8.794
    34   6 C        2.983    -0.006    28.157     8.704
    35   6 C        3.117     0.107    25.491     8.270
    36   8 O        1.724    -0.220    17.643     5.671
    37   6 C        2.928    -0.032    28.788     8.799
    38   6 C        2.984     0.007    27.852     8.657
    39   6 C        2.917    -0.034    28.842     8.807
    40   6 C        2.914    -0.029    28.722     8.788
    41   6 C        2.914    -0.028    28.712     8.787
    42   6 C        2.917    -0.035    28.869     8.811
    43   6 C        2.984     0.007    27.850     8.657
    44   6 C        2.923    -0.029    28.724     8.789
    45   6 C        2.925    -0.021    28.527     8.759
    46   1 H        0.926     0.042     2.424     2.434
    47   1 H        0.926     0.039     2.457     2.451
    48   1 H        0.926     0.030     2.593     2.518
    49   1 H        0.926     0.032     2.562     2.503
    50   1 H        0.926     0.032     2.558     2.501
    51   1 H        0.926     0.033     2.537     2.491
    52   1 H        0.926     0.037     2.484     2.465
    53   1 H        0.926     0.041     2.442     2.444
    54   1 H        0.926     0.058     2.217     2.329
    55   1 H        0.926     0.052     2.292     2.368
    56   1 H        0.926     0.035     2.523     2.484
    57   1 H        0.926     0.033     2.548     2.496
    58   1 H        0.926     0.035     2.517     2.481
    59   1 H        0.926     0.038     2.477     2.461
    60   1 H        0.926     0.034     2.530     2.488
    61   1 H        0.926     0.034     2.528     2.487
    62   1 H        0.926     0.040     2.452     2.449
    63   1 H        0.926     0.045     2.383     2.414
    64   1 H        0.926     0.034     2.535     2.490
    65   1 H        0.926     0.032     2.558     2.501
    66   1 H        0.926     0.032     2.561     2.502
    67   1 H        0.926     0.030     2.592     2.518
    68   1 H        0.926     0.039     2.456     2.451
    69   1 H        0.926     0.042     2.423     2.434

molecular dipole:
                 x           y           z       tot (Debye)
 q only:        1.234       0.581       0.130
   full:        1.502       0.407       0.087       3.962

 projected vibrational frequencies (cm⁻¹)
eigval :       -0.00    -0.00    -0.00     0.00     0.00     0.00
eigval :        9.52    10.52    11.59    31.38    34.73    38.18
eigval :       46.72    62.60    69.38    76.95    77.28    86.64
eigval :      109.67   119.21   122.99   126.40   134.67   179.76
eigval :      180.34   192.66   206.58   212.05   220.38   230.59
eigval :      242.91   251.10   265.76   279.20   284.60   338.75
eigval :      353.97   363.56   382.81   395.23   398.64   399.07
eigval :      401.23   407.70   424.31   429.21   439.50   446.69
eigval :      448.00   458.55   459.01   472.28   504.81   514.35
eigval :      530.14   534.11   535.11   550.74   582.18   583.73
eigval :      587.21   599.52   604.95   609.58   611.15   633.73
eigval :      647.26   656.95   664.31   668.10   670.75   681.06
eigval :      693.40   693.61   695.60   706.32   737.80   738.27
eigval :      744.81   768.16   772.44   775.61   775.95   784.54
eigval :      792.57   801.21   815.82   866.90   870.73   873.99
eigval :      876.39   877.21   888.56   898.66   906.35   910.27
eigval :      915.82   916.65   917.13   919.24   921.13   925.49
eigval :      925.93   927.81   928.02   928.74   930.61   931.60
eigval :      932.95   941.05   983.66   998.18  1018.87  1021.25
eigval :     1054.86  1081.87  1082.61  1083.32  1088.67  1099.70
eigval :     1118.92  1132.12  1135.09  1141.79  1146.11  1158.41
eigval :     1180.61  1181.97  1182.83  1183.73  1184.62  1186.78
eigval :     1199.46  1207.94  1213.65  1229.73  1242.60  1252.81
eigval :     1254.80  1255.89  1260.21  1262.83  1267.52  1279.53
eigval :     1291.18  1308.37  1312.15  1321.25  1328.16  1343.35
eigval :     1344.56  1349.89  1371.31  1384.17  1393.08  1402.71
eigval :     1405.68  1412.09  1419.07  1428.98  1431.21  1435.34
eigval :     1442.52  1462.67  1481.01  1492.74  1517.07  1517.67
eigval :     1527.05  1529.55  1541.57  1548.29  1550.50  1563.49
eigval :     1571.19  1575.93  1587.61  1588.85  1595.35  1605.71
eigval :     1608.31  1622.57  2374.63  3076.05  3076.60  3076.70
eigval :     3078.16  3079.00  3081.39  3081.91  3082.31  3083.20
eigval :     3085.03  3087.38  3090.19  3090.89  3091.22  3092.81
eigval :     3093.27  3093.55  3095.29  3096.24  3097.08  3099.88
eigval :     3104.98  3110.68  3117.28

   temp. (K)  partition function   enthalpy   heat capacity  entropy
                                   cal/mol     cal/K/mol   cal/K/mol   J/K/mol
 298.15  VIB  0.374E+16            19905.017    126.989    123.954
         ROT  0.801E+08              888.752      2.981     39.146
         INT  0.299E+24            20793.769    129.970    163.100
         TR   0.133E+29             1481.254      4.968     44.899
         TOT                       22275.0234   134.9377   207.9999   870.2717

       T/K    H(0)-H(T)+PV         H(T)/Eh          T*S/Eh         G(T)/Eh
   ------------------------------------------------------------------------
    298.15    0.354975E-01    0.551846E+00    0.988275E-01    0.453019E+00
   ------------------------------------------------------------------------

         :::::::::::::::::::::::::::::::::::::::::::::::::::::
         ::                  THERMODYNAMIC                  ::
         :::::::::::::::::::::::::::::::::::::::::::::::::::::
         :: total free energy        -111.641006641236 Eh   ::
         ::.................................................::
         :: total energy             -112.094025233365 Eh   ::
         :: zero point energy           0.516348557953 Eh   ::
         :: G(RRHO) w/o ZPVE           -0.063329965824 Eh   ::
         :: G(RRHO) contrib.            0.453018592129 Eh   ::
         :::::::::::::::::::::::::::::::::::::::::::::::::::::

           -------------------------------------------------
          | TOTAL ENERGY             -112.094025233365 Eh   |
          | TOTAL ENTHALPY           -111.542179166156 Eh   |
          | TOTAL FREE ENERGY        -111.641006641236 Eh   |
          | GRADIENT NORM               0.000040263670 Eh/α |
          | HOMO-LUMO GAP               2.095673468344 eV   |
           -------------------------------------------------

 * finished run on 2025/09/02 at 19:16:50.360
