   * xtb version 6.7.1 (edcfbbe) compiled by 'albert@albert-system' on 2024-07-22

   ID    Z sym.   atoms
    1    6 C      1-20, 22-24, 26-46, 48-61, 63, 65-76
    2    7 N      21, 25, 47, 62, 64
    3    1 H      77-141

          program call               : xtb data2507/gas/2tCz2CzBn/2tCz2CzBn.xyz --gfn 2 --ohess vtight --parallel 40 --molden --ceasefiles --namespace data2507/gas/2tCz2CzBn/2tCz2CzBn_gas_S0_preOpt
          :  Hamiltonian                  GFN2-xTB          :
 * total energy  :  -199.9649044 Eh     change       -0.4949101E-08 Eh
 * total energy  :  -199.9910490 Eh     change       -0.2614468E-01 Eh
 * total energy  :  -199.9994839 Eh     change       -0.8434841E-02 Eh
 * total energy  :  -200.0023337 Eh     change       -0.2849826E-02 Eh
 * total energy  :  -200.0041912 Eh     change       -0.1857536E-02 Eh
 * total energy  :  -200.0051706 Eh     change       -0.9793807E-03 Eh
 * total energy  :  -200.0057516 Eh     change       -0.5809386E-03 Eh
 * total energy  :  -200.0061627 Eh     change       -0.4110989E-03 Eh
 * total energy  :  -200.0065064 Eh     change       -0.3437518E-03 Eh
 * total energy  :  -200.0068317 Eh     change       -0.3252436E-03 Eh
 * total energy  :  -200.0156155 Eh     change       -0.6798695E-06 Eh
 * total energy  :  -200.0156160 Eh     change       -0.5588272E-06 Eh
 * total energy  :  -200.0156166 Eh     change       -0.5285960E-06 Eh
 * total energy  :  -200.0156171 Eh     change       -0.5284617E-06 Eh
 * total energy  :  -200.0156176 Eh     change       -0.5379246E-06 Eh
 * total energy  :  -200.0156181 Eh     change       -0.5175018E-06 Eh
 * total energy  :  -200.0156186 Eh     change       -0.4959301E-06 Eh
 * total energy  :  -200.0156192 Eh     change       -0.5098041E-06 Eh
 * total energy  :  -200.0156192 Eh     change       -0.4894417E-08 Eh
   *** GEOMETRY OPTIMIZATION CONVERGED AFTER 94 ITERATIONS ***

 final structure:
================
141
 xtb: 6.7.1 (edcfbbe)
C           -6.45993008836549        5.20810500439141        0.38336835953127
C           -4.97158094818101        5.28538473938627        0.03290563437624
C           -4.84881035467509        5.75696720618957       -1.42303166481396
C           -4.31573504483785        6.30948492473184        0.96998072616353
C           -4.26615725848469        3.94536581652796        0.18165085524515
C           -2.89444497988485        3.87132292811118       -0.08782726676230
C           -2.17450810763207        2.69786244608204        0.01486520113007
C           -2.84686746376699        1.55376467219060        0.40633833603567
C           -4.22933452371422        1.59758123702332        0.67589895856247
C           -4.92942492139718        2.78979945099798        0.56283725043447
C           -4.62752229171990        0.25616430089133        1.01049140082939
C           -5.84008513353957       -0.33410678124434        1.32437502050665
C           -5.89995148056740       -1.69580454530916        1.59592204700552
C           -7.25428885864848       -2.34071310203320        1.85000988161860
C           -7.91325283894257       -1.68651640377452        3.07202182151386
C           -8.13069147475362       -2.13126782860247        0.60692336069058
C           -7.15542192601244       -3.84674248638911        2.10712436211337
C           -4.71120301030701       -2.42762752454588        1.62047461057828
C           -3.48803017861997       -1.86249595833065        1.31184935295481
C           -3.46130106786979       -0.53043009553536        0.94472668287962
N           -2.38560987492603        0.25436266523280        0.55914015723010
C           -1.19361413270862       -0.25600614069823        0.03900807458691
C            0.02787990841479        0.22853942062462        0.48809216306812
C            1.23389082462074       -0.29718711477529        0.04048185270554
N            2.43755869862773        0.20048209163161        0.54537385975701
C            2.90088051156357        1.49584808924541        0.37121988869063
C            2.23834608597653        2.62723270459588       -0.07162280327580
C            2.96041404854331        3.79754616544086       -0.19077322962443
C            4.32533932700010        3.88028137022172        0.11056725321619
C            5.03412790982904        5.21571101693446       -0.06205224072376
C            4.35628505163575        6.26749978610238        0.82745583212297
C            4.94576107284082        5.64286778675230       -1.53417357055448
C            6.51378713378248        5.15015374573499        0.32561789828282
C            4.97927266454094        2.73695557139834        0.54087784642981
C            4.27654907325647        1.54741053171884        0.67100891746389
C            4.66557559067812        0.21538018309758        1.04814870637727
C            5.87545975731361       -0.35507931162948        1.41731250230592
C            5.93225196594688       -1.70503947808758        1.72484627950378
C            7.23300684469945       -2.41360568141679        2.07062392676302
C            7.12674000186448       -3.03387073059568        3.47055872576314
C            8.43850036039416       -1.46972751693433        2.05984725748055
C            7.47818795317444       -3.51304830877146        1.02768178845770
C            4.74514050836683       -2.44759562733695        1.71365317526222
C            3.52866043840917       -1.90361257004459        1.35754419449868
C            3.50427122396610       -0.57561957964863        0.96837190191706
C            1.22711854695424       -1.33460758863627       -0.91050819391330
N            2.41823001654042       -1.87655809599068       -1.39705061161394
C            2.83657718938284       -3.18853253679717       -1.23418173075947
C            2.13758307714417       -4.28451443763857       -0.75621174206529
C            2.80990737059645       -5.48807619198734       -0.65953402857186
C            4.14925758984665       -5.60074639297819       -1.02058267681709
C            4.85552412567908       -4.50662552510645       -1.47976502474827
C            4.20051916936454       -3.28791719457207       -1.58434031666384
C            4.62244499720524       -1.97278689542134       -1.98031405251679
C            5.82911633358717       -1.44243094682705       -2.41303635726800
C            5.88476176677353       -0.10006853752528       -2.73389388581426
C            4.74858136675298        0.70098907048812       -2.66958159552438
C            3.53456647948908        0.19280099004478       -2.24880597192941
C            3.49296437972634       -1.13630341951980       -1.86043677665511
C           -0.00488938019019       -1.80907994139821       -1.38494570354009
C           -0.01805092244337       -2.76304238605797       -2.43044626301227
N           -0.02788701883363       -3.50831457204974       -3.30079937874698
C           -1.21976187853036       -1.27910536063895       -0.92891115971076
N           -2.43028291328865       -1.73859251767017       -1.45262857405418
C           -3.43905104668661       -0.90986548706346       -1.91627902606791
C           -3.37080759031003        0.42487904481520       -2.28059231998657
C           -4.53386214877509        1.03313406945401       -2.71257857392857
C           -5.72744042700499        0.32414782540447       -2.80822283002021
C           -5.78249675202548       -1.02310538901457       -2.50841690274532
C           -4.62822251203889       -1.65302250517136       -2.06590059615287
C           -4.31520093016677       -3.00247737835168       -1.68472201217797
C           -5.06700915058015       -4.16552559516506       -1.60092338105665
C           -4.45566159745867       -5.31902118902247       -1.15116815759267
C           -3.11369151868168       -5.31992960877472       -0.78249696214700
C           -2.34591378761440       -4.17327009269695       -0.85672143049973
C           -2.95155275378922       -3.01651878698363       -1.31838237655322
H           -6.60261108683718        4.89168456404744        1.41408303193152
H           -6.98261418819151        4.52047095843724       -0.27745417184465
H           -6.91088806195976        6.19180732159146        0.26833965678175
H           -5.35984548242601        6.70855689477683       -1.55382199199938
H           -3.80965749442078        5.88667796465449       -1.71254034429457
H           -5.30104512123999        5.02783155910244       -2.09233030001464
H           -4.82674436496079        7.26710854027814        0.89519695212157
H           -3.26930527877059        6.46377096475581        0.72238213035182
H           -4.37479763956144        5.96614411355014        2.00079470120688
H           -2.36492224189066        4.76069661118628       -0.39381794548518
H           -1.12008725941670        2.68188894797452       -0.21749512907124
H           -5.98603248057212        2.78709781988986        0.77076321131302
H           -6.72916327285922        0.27664559913304        1.34428320559201
H           -8.07429899234075       -0.62376420841594        2.91428131866369
H           -8.87668079830860       -2.15065946572945        3.27262387770079
H           -7.28166235325498       -1.80875780416705        3.94957217052417
H           -7.65239471993918       -2.58035684013879       -0.26050127805570
H           -9.10395733966583       -2.59680315870403        0.74883098134229
H           -8.28299084430786       -1.07545147222736        0.40138296056271
H           -6.57809340742056       -4.05504648407597        3.00496780037821
H           -6.69828944040096       -4.35676443779889        1.26206425001264
H           -8.15399973838827       -4.25556722868731        2.24926373499170
H           -4.72297031188472       -3.47346517175782        1.87658105143176
H           -2.58533810768999       -2.45403809027693        1.35281291467569
H            0.04107276047546        0.99434091620865        1.24887382179182
H            1.19092877768828        2.60162503075827       -0.33370808863221
H            2.43917766103761        4.67687463532999       -0.53729178848547
H            3.31568426729286        6.41250391628620        0.55127425243990
H            4.39200974310121        5.95658827180472        1.86956852942565
H            4.86816221021704        7.22306354098853        0.73446792135313
H            5.41155842121602        4.89318066262661       -2.17064032661654
H            3.91385584031903        5.76517885482319       -1.85146333750919
H            5.46163847194393        6.58931687627827       -1.68205389567230
H            6.63220192062885        4.86457175283148        1.36832156189741
H            7.05216921776342        4.44370570647757       -0.30189782131122
H            6.96712433898461        6.13040809075877        0.19203467787524
H            6.03086645246453        2.74074727275624        0.77281872048980
H            6.75173365931207        0.27000239202102        1.45176658104887
H            8.06388420588836       -3.51783467691583        3.73777278261406
H            6.33633761612750       -3.77745612473579        3.51748722549912
H            6.91399373479231       -2.26254523789376        4.20800424024249
H            9.33970462011635       -2.02986707878807        2.30149429960167
H            8.57450166900934       -1.02153849980231        1.07836737233523
H            8.32492540516274       -0.68139828286936        2.80050802276225
H            7.54674281787795       -3.07229331241919        0.03545566248392
H            8.40844031516201       -4.03531280948865        1.24216118784428
H            6.66978696169742       -4.23896023522170        1.01968832989807
H            4.76597372172748       -3.49107875788035        1.98716362751527
H            2.63040018233639       -2.50248941650381        1.38137577188431
H            1.10180016925972       -4.21073949671258       -0.46031113434952
H            2.28402957420068       -6.35776958928030       -0.29466702379071
H            4.64012135738527       -6.55865919872045       -0.93362952522106
H            5.89698950581960       -4.59181471103983       -1.74959232408347
H            6.70265319829120       -2.07057626061953       -2.50082912033082
H            6.81784380075208        0.33417696098579       -3.06071126099305
H            4.81227692969065        1.74023091048890       -2.95525784329180
H            2.65193946882178        0.81418051934108       -2.22901520330667
H           -2.44252646926573        0.97448438844050       -2.23495220926714
H           -4.51147111958297        2.07860165426079       -2.98122192506671
H           -6.61825567979198        0.83460144654627       -3.14261484355479
H           -6.70174047742533       -1.57769539458246       -2.61932325261156
H           -6.10964031478252       -4.16324237345697       -1.88146232808813
H           -5.02308186090215       -6.23507292868197       -1.07949578931676
H           -2.66200856518024       -6.23480485351635       -0.42905956813736
H           -1.30890655924287       -4.18883455478004       -0.55701144369124

          :  Hamiltonian                  GFN2-xTB          :
         :: gradient norm              0.000055247889 Eh/a0 ::
         :: HOMO-LUMO gap              2.067002892273 eV    ::
         :: SCC energy              -203.624704378383 Eh    ::
         :: -> dispersion             -0.231655638729 Eh    ::
         :: repulsion energy           3.609085218242 Eh    ::

    * Orbital Energies and Occupations

         #    Occupation            Energy/Eh            Energy/eV
      -------------------------------------------------------------
         1        2.0000           -0.6998404             -19.0436
       ...           ...                  ...                  ...
       175        2.0000           -0.4091246             -11.1328
       176        2.0000           -0.4058763             -11.0445
       177        2.0000           -0.4055765             -11.0363
       178        2.0000           -0.3982992             -10.8383
       179        2.0000           -0.3973615             -10.8128
       180        2.0000           -0.3834115             -10.4332
       181        2.0000           -0.3825990             -10.4110
       182        2.0000           -0.3745997             -10.1934
       183        2.0000           -0.3740542             -10.1785
       184        2.0000           -0.3708506             -10.0914
       185        2.0000           -0.3699052             -10.0656
       186        2.0000           -0.3631689              -9.8823
       187        2.0000           -0.3598004              -9.7907 (HOMO)
       188                         -0.2838394              -7.7237 (LUMO)
       189                         -0.2636906              -7.1754
       190                         -0.2467576              -6.7146
       191                         -0.2455123              -6.6807
       192                         -0.2436170              -6.6292
       193                         -0.2418746              -6.5817
       194                         -0.2273229              -6.1858
       195                         -0.2266856              -6.1684
       196                         -0.2167288              -5.8975
       197                         -0.2164988              -5.8912
       198                         -0.2124451              -5.7809
       ...                                ...                  ...
       369                          1.1648210              31.6964
      -------------------------------------------------------------
                  HL-Gap            0.0759610 Eh            2.0670 eV

     #   Z          covCN         q      C6AA      α(0)
     1   6 C        3.761    -0.107    22.591     6.776
     2   6 C        3.903     0.026    20.082     6.370
     3   6 C        3.762    -0.104    22.534     6.767
     4   6 C        3.761    -0.105    22.559     6.771
     5   6 C        2.973    -0.000    28.027     8.684
     6   6 C        2.931    -0.038    28.955     8.825
     7   6 C        2.909    -0.052    29.283     8.873
     8   6 C        3.076     0.046    26.885     8.501
     9   6 C        3.068    -0.017    28.360     8.732
    10   6 C        2.918    -0.042    29.038     8.837
    11   6 C        3.062    -0.018    28.390     8.738
    12   6 C        2.921    -0.038    28.955     8.824
    13   6 C        2.974     0.001    28.001     8.680
    14   6 C        3.903     0.026    20.084     6.370
    15   6 C        3.761    -0.105    22.557     6.771
    16   6 C        3.763    -0.104    22.537     6.767
    17   6 C        3.761    -0.107    22.594     6.776
    18   6 C        2.930    -0.041    29.029     8.836
    19   6 C        2.910    -0.050    29.247     8.868
    20   6 C        3.085     0.045    26.905     8.503
    21   7 N        2.798    -0.054    22.287     7.012
    22   6 C        2.910     0.053    26.814     8.491
    23   6 C        2.923    -0.056    29.388     8.890
    24   6 C        2.910     0.053    26.820     8.492
    25   7 N        2.799    -0.052    22.252     7.006
    26   6 C        3.078     0.045    26.898     8.503
    27   6 C        2.909    -0.052    29.288     8.874
    28   6 C        2.931    -0.039    28.958     8.825
    29   6 C        2.973    -0.000    28.030     8.684
    30   6 C        3.903     0.026    20.082     6.370
    31   6 C        3.761    -0.105    22.558     6.771
    32   6 C        3.762    -0.104    22.536     6.767
    33   6 C        3.761    -0.107    22.594     6.776
    34   6 C        2.918    -0.042    29.044     8.838
    35   6 C        3.068    -0.017    28.364     8.733
    36   6 C        3.065    -0.018    28.403     8.739
    37   6 C        2.919    -0.043    29.061     8.840
    38   6 C        2.974     0.001    28.005     8.681
    39   6 C        3.903     0.026    20.086     6.371
    40   6 C        3.761    -0.105    22.562     6.771
    41   6 C        3.761    -0.107    22.592     6.776
    42   6 C        3.762    -0.104    22.538     6.767
    43   6 C        2.932    -0.037    28.921     8.820
    44   6 C        2.909    -0.050    29.240     8.867
    45   6 C        3.083     0.045    26.911     8.504
    46   6 C        2.918     0.055    26.774     8.485
    47   7 N        2.800    -0.048    22.161     6.992
    48   6 C        3.072     0.052    26.750     8.480
    49   6 C        2.910    -0.043    29.080     8.842
    50   6 C        2.925    -0.030    28.759     8.794
    51   6 C        2.920    -0.039    28.960     8.825
    52   6 C        2.913    -0.030    28.753     8.793
    53   6 C        3.069    -0.012    28.242     8.714
    54   6 C        3.066    -0.013    28.272     8.719
    55   6 C        2.914    -0.031    28.768     8.795
    56   6 C        2.921    -0.038    28.949     8.823
    57   6 C        2.925    -0.030    28.759     8.794
    58   6 C        2.910    -0.046    29.137     8.851
    59   6 C        3.077     0.050    26.789     8.486
    60   6 C        2.974    -0.011    28.292     8.725
    61   6 C        1.913     0.123    28.089     8.559
    62   7 N        0.911    -0.226    25.945     7.367
    63   6 C        2.919     0.055    26.770     8.485
    64   7 N        2.799    -0.049    22.180     6.995
    65   6 C        3.079     0.050    26.787     8.485
    66   6 C        2.911    -0.046    29.134     8.851
    67   6 C        2.925    -0.030    28.759     8.795
    68   6 C        2.921    -0.038    28.943     8.822
    69   6 C        2.914    -0.031    28.765     8.795
    70   6 C        3.065    -0.013    28.275     8.719
    71   6 C        3.070    -0.012    28.252     8.715
    72   6 C        2.913    -0.030    28.750     8.792
    73   6 C        2.920    -0.038    28.955     8.824
    74   6 C        2.925    -0.030    28.753     8.794
    75   6 C        2.910    -0.043    29.063     8.840
    76   6 C        3.071     0.053    26.744     8.479
    77   1 H        0.925     0.036     2.509     2.477
    78   1 H        0.925     0.036     2.508     2.476
    79   1 H        0.925     0.036     2.506     2.476
    80   1 H        0.925     0.037     2.495     2.470
    81   1 H        0.925     0.035     2.514     2.480
    82   1 H        0.925     0.033     2.549     2.497
    83   1 H        0.925     0.037     2.496     2.470
    84   1 H        0.925     0.036     2.508     2.476
    85   1 H        0.925     0.034     2.536     2.490
    86   1 H        0.926     0.031     2.579     2.511
    87   1 H        0.926     0.019     2.743     2.590
    88   1 H        0.926     0.039     2.466     2.456
    89   1 H        0.926     0.032     2.555     2.500
    90   1 H        0.925     0.036     2.504     2.475
    91   1 H        0.925     0.037     2.491     2.468
    92   1 H        0.925     0.033     2.542     2.493
    93   1 H        0.925     0.034     2.525     2.485
    94   1 H        0.925     0.036     2.499     2.472
    95   1 H        0.925     0.036     2.508     2.476
    96   1 H        0.925     0.034     2.524     2.485
    97   1 H        0.925     0.037     2.493     2.469
    98   1 H        0.925     0.036     2.499     2.472
    99   1 H        0.926     0.037     2.484     2.465
   100   1 H        0.926     0.018     2.765     2.600
   101   1 H        0.926     0.064     2.158     2.297
   102   1 H        0.926     0.018     2.759     2.597
   103   1 H        0.926     0.030     2.582     2.513
   104   1 H        0.925     0.036     2.509     2.477
   105   1 H        0.925     0.034     2.537     2.491
   106   1 H        0.925     0.036     2.496     2.471
   107   1 H        0.925     0.033     2.550     2.497
   108   1 H        0.925     0.035     2.514     2.479
   109   1 H        0.925     0.037     2.495     2.470
   110   1 H        0.925     0.036     2.508     2.476
   111   1 H        0.925     0.036     2.506     2.476
   112   1 H        0.925     0.036     2.507     2.476
   113   1 H        0.926     0.039     2.458     2.452
   114   1 H        0.926     0.039     2.460     2.452
   115   1 H        0.925     0.037     2.491     2.468
   116   1 H        0.925     0.036     2.506     2.475
   117   1 H        0.925     0.033     2.541     2.493
   118   1 H        0.925     0.036     2.504     2.474
   119   1 H        0.925     0.036     2.503     2.474
   120   1 H        0.925     0.035     2.514     2.480
   121   1 H        0.925     0.034     2.535     2.490
   122   1 H        0.925     0.037     2.495     2.470
   123   1 H        0.925     0.037     2.495     2.470
   124   1 H        0.926     0.030     2.582     2.513
   125   1 H        0.926     0.018     2.757     2.596
   126   1 H        0.926     0.018     2.765     2.600
   127   1 H        0.926     0.033     2.542     2.493
   128   1 H        0.926     0.031     2.567     2.506
   129   1 H        0.926     0.035     2.514     2.480
   130   1 H        0.926     0.032     2.559     2.502
   131   1 H        0.926     0.030     2.581     2.512
   132   1 H        0.926     0.031     2.578     2.511
   133   1 H        0.926     0.022     2.702     2.571
   134   1 H        0.926     0.021     2.713     2.576
   135   1 H        0.926     0.031     2.579     2.511
   136   1 H        0.926     0.031     2.578     2.511
   137   1 H        0.926     0.034     2.537     2.491
   138   1 H        0.926     0.032     2.564     2.504
   139   1 H        0.926     0.031     2.569     2.507
   140   1 H        0.926     0.034     2.535     2.490
   141   1 H        0.926     0.019     2.745     2.591

molecular dipole:
                 x           y           z       tot (Debye)
 q only:        0.018       0.887       0.936
   full:        0.013       1.168       1.206       4.267

 projected vibrational frequencies (cm⁻¹)
eigval :       -0.00    -0.00    -0.00    -0.00     0.00     0.00
eigval :        9.45    13.53    15.29    18.07    23.33    29.61
eigval :       30.39    31.64    33.06    33.78    35.78    38.32
eigval :       44.97    49.19    49.94    58.99    63.33    68.69
eigval :       76.14    78.74    80.61    88.61    94.78    97.88
eigval :      111.33   116.24   116.57   120.58   125.22   132.65
eigval :      140.75   142.61   155.05   156.80   167.53   168.30
eigval :      175.18   177.43   182.05   186.84   195.62   198.64
eigval :      205.11   211.57   216.09   217.61   219.38   220.11
eigval :      223.55   225.84   230.98   236.41   245.02   261.28
eigval :      263.37   268.29   275.96   276.93   281.00   284.05
eigval :      287.08   295.23   308.05   316.77   318.88   320.14
eigval :      322.91   325.73   329.94   336.58   339.88   343.86
eigval :      347.94   355.22   360.59   362.14   370.41   377.62
eigval :      390.36   399.16   400.14   402.36   403.01   411.85
eigval :      413.41   415.03   418.58   422.77   425.54   433.32
eigval :      437.46   439.50   442.36   445.87   449.33   451.26
eigval :      454.71   462.10   465.39   466.02   475.65   477.94
eigval :      503.52   506.64   516.13   518.72   518.96   523.84
eigval :      535.07   541.54   542.37   543.22   543.82   551.27
eigval :      575.79   577.45   580.72   582.61   586.32   588.88
eigval :      592.89   595.18   601.88   618.60   631.53   640.06
eigval :      640.72   655.29   662.16   670.28   670.98   677.36
eigval :      680.97   686.01   687.60   691.06   702.78   704.94
eigval :      707.08   708.02   709.37   721.91   725.84   733.64
eigval :      756.16   756.58   766.38   769.57   779.98   781.28
eigval :      787.13   812.04   819.16   823.30   824.71   827.12
eigval :      834.04   843.86   861.29   868.14   868.47   868.86
eigval :      873.11   873.95   874.16   876.56   877.10   879.64
eigval :      885.53   895.95   896.59   900.13   902.09   904.46
eigval :      904.77   906.25   906.62   912.96   913.85   918.80
eigval :      920.60   921.65   922.68   922.95   925.98   927.65
eigval :      931.06   933.21   960.37   960.46   960.86   961.01
eigval :      962.76   962.82   962.91   962.98   963.21   963.31
eigval :      964.03   966.06  1000.72  1009.88  1015.36  1024.32
eigval :     1031.48  1032.72  1035.64  1035.79  1036.20  1036.30
eigval :     1036.74  1037.00  1040.83  1042.97  1070.02  1071.42
eigval :     1072.56  1075.66  1075.91  1112.34  1120.71  1123.19
eigval :     1128.99  1131.21  1138.24  1150.75  1153.32  1158.56
eigval :     1172.71  1174.44  1176.99  1178.19  1180.70  1181.17
eigval :     1183.58  1193.18  1193.54  1220.23  1227.96  1228.28
eigval :     1228.41  1229.09  1229.92  1231.43  1232.15  1233.24
eigval :     1233.51  1234.44  1235.54  1236.13  1237.44  1241.39
eigval :     1244.92  1251.13  1254.78  1267.80  1279.00  1284.79
eigval :     1286.97  1294.20  1296.44  1298.22  1299.34  1300.42
eigval :     1307.46  1308.24  1309.69  1324.48  1339.87  1348.86
eigval :     1349.98  1357.41  1360.29  1360.77  1361.18  1362.90
eigval :     1363.19  1364.11  1402.54  1402.66  1404.42  1404.83
eigval :     1405.02  1406.02  1406.14  1406.46  1408.08  1413.48
eigval :     1414.09  1420.03  1423.53  1428.58  1429.07  1429.59
eigval :     1429.63  1429.73  1429.91  1433.49  1435.54  1460.19
eigval :     1462.32  1474.38  1474.86  1475.64  1482.74  1483.28
eigval :     1485.05  1488.35  1488.45  1490.94  1491.00  1492.65
eigval :     1492.68  1494.42  1494.92  1495.01  1495.14  1501.42
eigval :     1501.63  1502.00  1502.49  1503.45  1504.80  1504.88
eigval :     1506.10  1506.21  1514.67  1514.80  1514.88  1514.99
eigval :     1520.31  1520.69  1521.17  1521.58  1547.46  1573.61
eigval :     1574.61  1578.73  1579.01  1587.22  1590.02  1593.56
eigval :     1594.19  1601.77  1602.11  1607.59  1608.12  1615.95
eigval :     1616.60  1619.25  1621.02  2370.90  3020.39  3020.97
eigval :     3021.81  3021.90  3022.44  3022.54  3023.31  3023.39
eigval :     3026.68  3026.82  3027.28  3027.50  3029.53  3029.62
eigval :     3030.15  3030.34  3031.11  3031.27  3032.04  3032.85
eigval :     3035.73  3035.80  3036.05  3037.08  3038.29  3038.37
eigval :     3038.43  3038.61  3046.35  3046.42  3047.47  3047.66
eigval :     3050.12  3050.19  3050.69  3051.56  3074.17  3076.22
eigval :     3076.99  3077.45  3077.95  3078.37  3078.48  3078.53
eigval :     3080.41  3081.57  3082.21  3082.52  3087.86  3089.27
eigval :     3091.04  3091.50  3092.17  3092.35  3092.66  3096.55
eigval :     3097.07  3097.29  3098.57  3099.00  3101.41  3118.75
eigval :     3120.98  3122.22  3126.04

   temp. (K)  partition function   enthalpy   heat capacity  entropy
                                   cal/mol     cal/K/mol   cal/K/mol   J/K/mol
 298.15  VIB  0.902E+31            41228.289    255.820    254.408
         ROT  0.228E+09              888.752      2.981     41.225
         INT  0.206E+40            42117.041    258.801    295.633
         TR   0.301E+29             1481.254      4.968     46.525
         TOT                       43598.2949   263.7692   342.1582  1431.5901

       T/K    H(0)-H(T)+PV         H(T)/Eh          T*S/Eh         G(T)/Eh
   ------------------------------------------------------------------------
    298.15    0.694783E-01    0.121811E+01    0.162570E+00    0.105554E+01
   ------------------------------------------------------------------------

         :::::::::::::::::::::::::::::::::::::::::::::::::::::
         ::                  THERMODYNAMIC                  ::
         :::::::::::::::::::::::::::::::::::::::::::::::::::::
         :: total free energy        -198.960081199244 Eh   ::
         ::.................................................::
         :: total energy             -200.015619160140 Eh   ::
         :: zero point energy           1.148630079695 Eh   ::
         :: G(RRHO) w/o ZPVE           -0.093092118799 Eh   ::
         :: G(RRHO) contrib.            1.055537960896 Eh   ::
         :::::::::::::::::::::::::::::::::::::::::::::::::::::

           -------------------------------------------------
          | TOTAL ENERGY             -200.015619160140 Eh   |
          | TOTAL ENTHALPY           -198.797510775015 Eh   |
          | TOTAL FREE ENERGY        -198.960081199244 Eh   |
          | GRADIENT NORM               0.000055253795 Eh/α |
          | HOMO-LUMO GAP               2.067002934836 eV   |
           -------------------------------------------------

 * finished run on 2025/09/07 at 18:25:39.018
