   * xtb version 6.7.1 (edcfbbe) compiled by 'albert@albert-system' on 2024-07-22

   ID    Z sym.   atoms
    1    6 C      1-20, 22-24, 26-46, 48-61, 63, 65-76
    2    7 N      21, 25, 47, 62, 64
    3    1 H      77-141

          program call               : xtb data2507/gas/2tCz2CzBn/2tCz2CzBn_gas_T1_crest.xyz --gfn 2 --spinpol --tblite --uhf 2 --ohess vtight --parallel 40 --molden --ceasefiles --namespace data2507/gas/2tCz2CzBn/2tCz2CzBn_gas_T1_finalOpt
 * total energy  :  -199.9275156 Eh     change       -0.8875617E-08 Eh
 * total energy  :  -199.9276106 Eh     change       -0.9495795E-04 Eh
 * total energy  :  -199.9276709 Eh     change       -0.6029596E-04 Eh
 * total energy  :  -199.9276805 Eh     change       -0.9594153E-05 Eh
 * total energy  :  -199.9276939 Eh     change       -0.1345182E-04 Eh
 * total energy  :  -199.9276986 Eh     change       -0.4674617E-05 Eh
 * total energy  :  -199.9277014 Eh     change       -0.2851283E-05 Eh
 * total energy  :  -199.9277043 Eh     change       -0.2872703E-05 Eh
 * total energy  :  -199.9277071 Eh     change       -0.2808676E-05 Eh
 * total energy  :  -199.9277098 Eh     change       -0.2623211E-05 Eh
 * total energy  :  -199.9277322 Eh     change       -0.1810330E-06 Eh
 * total energy  :  -199.9277325 Eh     change       -0.2691015E-06 Eh
 * total energy  :  -199.9277327 Eh     change       -0.2104619E-06 Eh
 * total energy  :  -199.9277328 Eh     change       -0.1868401E-06 Eh
 * total energy  :  -199.9277330 Eh     change       -0.1194163E-06 Eh
 * total energy  :  -199.9277331 Eh     change       -0.1066054E-06 Eh
 * total energy  :  -199.9277332 Eh     change       -0.1366602E-06 Eh
 * total energy  :  -199.9277334 Eh     change       -0.1801000E-06 Eh
 * total energy  :  -199.9277334 Eh     change       -0.5776565E-07 Eh
   *** GEOMETRY OPTIMIZATION CONVERGED AFTER 38 ITERATIONS ***

 final structure:
================
141
 xtb: 6.7.1 (edcfbbe)
C           -6.45917188748940        5.55159136746005        0.36099228953553
C           -4.98611357087436        5.59106986161758       -0.05453625370390
C           -4.92055782585122        5.95751152851339       -1.54433653236120
C           -4.28594780510309        6.67321166449442        0.77986828304452
C           -4.28245892651674        4.25964466277352        0.15777229363793
C           -2.92244588633699        4.15543707222976       -0.16230753775613
C           -2.20807924200953        2.98435496976084       -0.01545076282959
C           -2.87235451246648        1.87221153121715        0.47741104502849
C           -4.24401030144716        1.94876222960249        0.80301417530262
C           -4.93910097712425        3.13656465628550        0.64170929587192
C           -4.63409867588191        0.63226713984533        1.23388480870976
C           -5.83815187082097        0.07916825372654        1.63939348622150
C           -5.89373748119487       -1.26243010686089        1.99289128702723
C           -7.19198525069886       -1.95530888564592        2.37414672130992
C           -7.45433132533670       -3.07864993556544        1.36079592827788
C           -7.06934539665912       -2.54256876026921        3.78711172588340
C           -8.39403026059645       -1.00707001369707        2.35703424694818
C           -4.70818818853631       -2.00840188666198        1.99095887266838
C           -3.49665192215647       -1.48117742703811        1.59633871902381
C           -3.47382443769847       -0.16561360728191        1.15996683022462
N           -2.42019618254286        0.58390139641023        0.67857512061840
C           -1.21873082217273        0.05503059071773        0.18672107432116
C            0.00056483478898        0.63036163508683        0.60655086264487
C            1.21928537663197        0.05377222546403        0.18648039227619
N            2.42142711683596        0.58119690511149        0.67816705314141
C            2.87534509110754        1.86887443684885        0.47726462254869
C            2.21298308913710        2.98175426302171       -0.01650133985124
C            2.92882972009875        4.15207722042251       -0.16225354888225
C            4.28849720255054        4.25479015803586        0.15976668488342
C            4.99375986572269        5.58564766015573       -0.05072720063213
C            4.93078216258652        5.95318864786261       -1.54036004608441
C            6.46615075977019        5.54448338240097        0.36700695749099
C            4.29336300358067        6.66786605060608        0.78339850076439
C            4.94332529632393        3.13087047437305        0.64423980977837
C            4.24671604981532        1.94382941679309        0.80451415313975
C            4.63467995966823        0.62695344529534        1.23615745438117
C            5.83739902128395        0.07260317663363        1.64391237635184
C            5.89076636465244       -1.26887123952484        1.99827240338957
C            7.18752926686743       -1.96307281255626        2.38214955778581
C            7.06090637200694       -2.55220946000673        3.79399010038889
C            8.39021093398021       -1.01556936429111        2.36960705641181
C            7.45163049309123       -3.08520724921075        1.36790899917318
C            4.70437856312898       -2.01348909286477        1.99452176729965
C            3.49409542574727       -1.48495752347704        1.59781116001938
C            3.47351021213810       -0.16952067424350        1.16097782967573
C            1.23775138313193       -1.03529249004228       -0.66764422046645
N            2.44574028887232       -1.55061795258908       -1.14873221801271
C            2.91021099171701       -2.83748036491710       -0.96663047616935
C            2.25987014751209       -3.94406007125415       -0.44028186253196
C            2.97533716931200       -5.12021235270221       -0.32544710473534
C            4.31031340930547       -5.19750452685049       -0.71382062914101
C            4.96900185455246       -4.09403221730829       -1.22450023442879
C            4.27057163033274       -2.90367704962551       -1.35061021560149
C            4.63342614123058       -1.58722766252526       -1.79867808116315
C            5.80549287086851       -1.02300708846421       -2.27634284716629
C            5.79667265898875        0.30985860852183       -2.64717093207551
C            4.62873775515366        1.06500693684321       -2.58687520588850
C            3.44825773635359        0.52324806612210       -2.11568868903482
C            3.46980861455645       -0.79297223630076       -1.67804787945651
C           -0.00060576886002       -1.61627911621858       -1.13161556572531
C           -0.00095344249921       -2.55394908202015       -2.14097373405781
N           -0.00105734148417       -3.38605752954270       -2.95236550274124
C           -1.23846552336989       -1.03388355493526       -0.66764043096910
N           -2.44689629043638       -1.54789316060218       -1.14896909161022
C           -3.47056228395114       -0.78908213264908       -1.67747901155145
C           -3.44819448091817        0.52744624220587       -2.11416023496583
C           -4.62858138603943        1.07062543383688       -2.58394425651518
C           -5.79722397697327        0.31653956266142       -2.64391575255588
C           -5.80679306527992       -1.01671645948665       -2.27454300087458
C           -4.63481504207303       -1.58237138293201       -1.79834593865887
C           -4.27269362429987       -2.89953951442591       -1.35186060426947
C           -4.97176504573968       -4.08969547071586       -1.22734068808022
C           -4.31369831930241       -5.19419141507388       -0.71809408938441
C           -2.97874046365296       -5.11807136506137       -0.32940826770804
C           -2.26262929423675       -3.94216190995297       -0.44272305984886
C           -2.91226226515820       -2.83462313706267       -0.96792417622763
H           -6.56147283240067        5.30859187035669        1.41614233155515
H           -7.01347757889202        4.82531394074899       -0.22888286478828
H           -6.90798243034981        6.52914888935303        0.19648234983671
H           -5.43310247655382        6.90072163837682       -1.72115667601668
H           -3.89365255950263        6.05964550409701       -1.88398151404936
H           -5.40229666294367        5.18594440995716       -2.14151879252232
H           -4.79379121208012        7.62740331680941        0.65648815756077
H           -3.24950624658583        6.79999048511113        0.48037883812121
H           -4.30575426724645        6.40532862434463        1.83425600128366
H           -2.40149291554223        5.01854288495626       -0.54755329962359
H           -1.16538778121326        2.93664941014639       -0.28959923631048
H           -5.98669992261946        3.15917727726366        0.89025231432395
H           -6.71364613195287        0.70584161387782        1.66515216277503
H           -6.64722927635577       -3.80600394177568        1.35717305931765
H           -8.38198779819160       -3.59361726182828        1.60194541496146
H           -7.53733648306797       -2.66169605238193        0.35942878411556
H           -6.84178455781768       -1.75528687296000        4.50291874388402
H           -8.00584226707337       -3.01360612616170        4.07824560832443
H           -6.28350607628426       -3.29033253950565        3.84117618073238
H           -8.54474023363924       -0.58480849892126        1.36626534730820
H           -8.26623673228801       -0.19986141293909        3.07472933347992
H           -9.29305324301305       -1.55725429501234        2.62757349569735
H           -4.72823539753393       -3.04147756704680        2.30099049985835
H           -2.59800231833737       -2.07824547359472        1.62730365214944
H            0.00107385029807        1.39811857316144        1.36031152001283
H            1.17059792123515        2.93520468785474       -0.29202914699064
H            2.40933947134145        5.01580189244757       -0.54808701263773
H            5.41263578683879        5.18155835736258       -2.13736559451690
H            3.90448566786647        6.05659935901981       -1.88145525550096
H            5.44453211334689        6.89601184792310       -1.71573902720199
H            6.56661240097023        5.30068058931423        1.42214896435650
H            7.02066611591759        4.81807880467852       -0.22251408281144
H            6.91613603042403        6.52172461539051        0.20384475419281
H            4.31128161232875        6.39918183579135        1.83761735549038
H            4.80232599164322        7.62164996121262        0.66150978312938
H            3.25750747421585        6.79587021247824        0.48240686809539
H            5.99062960143142        3.15231957221356        0.89411098698487
H            6.71360636448737        0.69822454009311        1.67087241832666
H            6.27502019511423       -3.30013430053493        3.84491584092079
H            6.83130004434964       -1.76588626859246        4.51019663936257
H            7.99661013676064       -3.02357798404991        4.08712609017809
H            9.28799681588774       -1.56647424765156        2.64276534057558
H            8.54452525838430       -0.59272972246581        1.37964487824393
H            8.26046493842701       -0.20876840745634        3.08741766908684
H            7.53780229687433       -2.66693363498316        0.36735222010945
H            8.37810913104168       -3.60142889862992        1.61088512946364
H            6.64376020966489       -3.81169898540343        1.36106193903162
H            4.72270377039611       -3.04650050329537        2.30485740636538
H            2.59466693955825       -2.08089219713224        1.62769629620352
H            1.22717935819669       -3.89369372329937       -0.13372407879176
H            2.48899100550543       -5.99751561293405        0.07415250860262
H            4.83683878632400       -6.13481396529794       -0.61069891164934
H            6.00604479353171       -4.15485341442371       -1.51775643206902
H            6.70418165766740       -1.61516403131231       -2.36182903709075
H            6.70343516113830        0.76933660699135       -3.01159535947608
H            4.64175388779700        2.09327545034663       -2.91592047329220
H            2.53789571328071        1.10288517692643       -2.10091822276565
H           -2.53733717191336        1.10630735143765       -2.09961433282161
H           -4.64098373293016        2.09921777503673       -2.91199482589897
H           -6.70393351622094        0.77716882923853       -3.00701557079399
H           -6.70600651205802       -1.60808459820179       -2.35998695383287
H           -6.00880861066757       -4.14957827153801       -1.52077794461999
H           -4.84070283446388       -6.13137503158400       -0.61630411510715
H           -2.49288302801957       -5.99612864467272        0.06912206529307
H           -1.22995217569682       -3.89278778089778       -0.13598578791931

 projected vibrational frequencies (cm⁻¹)
eigval :       -0.00    -0.00     0.00     0.00     0.00     0.00
eigval :        9.57    11.92    13.51    16.73    20.23    28.35
eigval :       29.53    30.30    31.26    35.00    35.31    39.79
eigval :       43.13    47.86    48.90    56.64    63.22    68.33
eigval :       74.75    75.05    79.90    88.44    90.34    98.81
eigval :      110.30   114.60   114.79   119.38   120.11   128.34
eigval :      136.75   141.33   153.29   154.73   165.64   166.65
eigval :      174.06   174.26   178.16   188.74   194.97   201.75
eigval :      204.41   212.12   213.56   217.73   217.88   220.36
eigval :      221.97   225.90   227.96   231.26   231.74   248.30
eigval :      259.62   262.62   271.66   273.37   277.86   278.28
eigval :      285.98   287.34   306.16   317.69   318.58   318.95
eigval :      322.59   323.05   333.50   337.33   338.95   342.35
eigval :      347.22   352.60   359.59   360.31   370.76   378.69
eigval :      385.46   391.02   392.28   397.31   400.34   402.30
eigval :      404.85   409.12   409.14   418.86   422.77   423.99
eigval :      434.30   436.08   440.18   441.55   447.81   448.82
eigval :      451.94   460.40   465.62   465.77   468.17   468.88
eigval :      492.23   495.49   500.46   515.34   516.21   517.71
eigval :      524.97   527.97   537.63   538.13   539.51   541.30
eigval :      556.60   569.44   582.22   582.57   583.42   585.44
eigval :      590.00   591.38   593.44   606.35   617.76   635.09
eigval :      637.12   640.51   641.47   652.65   667.40   669.83
eigval :      676.48   676.78   683.66   687.79   688.62   702.33
eigval :      705.40   706.92   707.62   708.64   718.01   723.02
eigval :      729.65   750.65   755.66   758.82   764.26   767.18
eigval :      775.90   777.20   813.56   820.32   822.06   827.17
eigval :      828.03   831.73   840.26   858.31   865.42   865.71
eigval :      867.68   868.74   870.64   870.65   872.58   874.43
eigval :      874.62   877.82   888.46   896.95   899.03   901.10
eigval :      901.59   903.58   903.79   907.14   912.37   917.38
eigval :      918.15   918.54   918.72   919.64   919.78   923.32
eigval :      929.67   932.23   932.68   960.17   960.21   960.60
eigval :      960.62   962.58   962.62   962.90   962.96   963.00
eigval :      963.01   965.80   965.83   996.80  1008.64  1013.72
eigval :     1025.76  1030.39  1032.48  1034.78  1034.99  1035.54
eigval :     1035.71  1036.10  1037.39  1041.59  1043.89  1066.37
eigval :     1068.24  1068.66  1072.14  1074.37  1104.93  1117.46
eigval :     1119.53  1126.25  1128.43  1133.72  1142.36  1144.76
eigval :     1156.24  1163.54  1167.64  1171.66  1173.42  1178.46
eigval :     1178.79  1180.78  1187.62  1188.46  1215.86  1226.71
eigval :     1226.78  1226.92  1227.17  1227.27  1228.64  1229.05
eigval :     1230.09  1231.19  1231.21  1232.12  1233.35  1233.84
eigval :     1234.53  1237.70  1246.06  1252.93  1261.70  1280.61
eigval :     1280.71  1283.31  1285.37  1289.36  1292.81  1294.41
eigval :     1296.79  1297.43  1303.87  1313.26  1322.22  1344.60
eigval :     1344.88  1347.74  1348.20  1348.30  1351.44  1353.08
eigval :     1363.72  1364.73  1365.81  1371.43  1390.63  1402.16
eigval :     1402.43  1404.39  1404.47  1405.16  1405.30  1405.87
eigval :     1405.88  1411.42  1412.26  1413.74  1415.00  1416.68
eigval :     1426.26  1427.67  1427.75  1428.10  1428.10  1433.17
eigval :     1441.60  1458.27  1463.89  1466.25  1467.56  1469.62
eigval :     1475.66  1481.36  1481.49  1484.49  1485.73  1489.86
eigval :     1489.86  1491.49  1491.54  1493.72  1493.90  1493.93
eigval :     1493.99  1500.19  1500.38  1500.60  1500.63  1503.61
eigval :     1503.63  1504.80  1504.86  1514.12  1514.13  1514.37
eigval :     1514.38  1519.57  1519.62  1520.36  1520.42  1564.20
eigval :     1564.38  1567.79  1568.01  1577.56  1577.66  1580.01
eigval :     1580.91  1582.39  1582.62  1586.32  1586.56  1599.01
eigval :     1599.20  1602.86  1605.48  2211.58  3022.22  3022.24
eigval :     3022.79  3022.80  3023.78  3023.80  3024.38  3024.42
eigval :     3027.36  3027.37  3027.57  3027.58  3030.39  3030.51
eigval :     3030.63  3030.86  3031.70  3031.89  3032.15  3032.19
eigval :     3035.99  3036.03  3036.17  3036.28  3038.85  3038.89
eigval :     3039.13  3039.31  3047.58  3047.64  3048.46  3048.52
eigval :     3051.16  3051.32  3052.61  3052.66  3077.66  3077.73
eigval :     3078.51  3078.67  3082.84  3083.38  3083.45  3084.44
eigval :     3084.78  3085.16  3086.38  3086.99  3089.70  3089.95
eigval :     3094.07  3094.38  3094.76  3095.74  3096.94  3097.35
eigval :     3099.36  3099.78  3100.71  3102.79  3117.88  3117.96
eigval :     3121.78  3121.90  3124.81

   temp. (K)  partition function   enthalpy   heat capacity  entropy
                                   cal/mol     cal/K/mol   cal/K/mol   J/K/mol
 298.15  VIB  0.332E+32            41641.676    257.838    257.405
         ROT  0.229E+09              888.752      2.981     41.237
         INT  0.760E+40            42530.429    260.819    298.642
         TR   0.301E+29             1481.254      4.968     46.525
         TOT                       44011.6826   265.7871   345.1677  1444.1818

       T/K    H(0)-H(T)+PV         H(T)/Eh          T*S/Eh         G(T)/Eh
   ------------------------------------------------------------------------
    298.15    0.701371E-01    0.121352E+01    0.164000E+00    0.104952E+01
   ------------------------------------------------------------------------

         :::::::::::::::::::::::::::::::::::::::::::::::::::::
         ::                  THERMODYNAMIC                  ::
         :::::::::::::::::::::::::::::::::::::::::::::::::::::
         :: total free energy        -198.878213931567 Eh   ::
         ::.................................................::
         :: total energy             -199.927733535198 Eh   ::
         :: zero point energy           1.143382846748 Eh   ::
         :: G(RRHO) w/o ZPVE           -0.093863243118 Eh   ::
         :: G(RRHO) contrib.            1.049519603630 Eh   ::
         :::::::::::::::::::::::::::::::::::::::::::::::::::::

           -------------------------------------------------
          | TOTAL ENERGY             -199.927733535198 Eh   |
          | TOTAL ENTHALPY           -198.714213607784 Eh   |
          | TOTAL FREE ENERGY        -198.878213931567 Eh   |
          | GRADIENT NORM               0.000090882366 Eh/α |
           -------------------------------------------------

 * finished run on 2025/09/07 at 19:28:30.808
