   * xtb version 6.7.1 (edcfbbe) compiled by 'albert@albert-system' on 2024-07-22

   ID    Z sym.   atoms
    1    6 C      1-20, 22-24, 26-46, 48-61, 63, 65-76
    2    7 N      21, 25, 47, 62, 64
    3    1 H      77-141

          program call               : xtb data2507/gas/2tCz2CzBn/2tCz2CzBn_gas_S0_finalOpt.xtbopt.xyz --gfn 2 --spinpol --tblite --uhf 2 --ohess vtight --parallel 40 --molden --ceasefiles --namespace data2507/gas/2tCz2CzBn/2tCz2CzBn_gas_T1_preOpt
 * total energy  :  -199.9225471 Eh     change        0.9209052E-07 Eh
 * total energy  :  -199.9255204 Eh     change       -0.2973362E-02 Eh
 * total energy  :  -199.9273037 Eh     change       -0.1783285E-02 Eh
 * total energy  :  -199.9274582 Eh     change       -0.1545159E-03 Eh
 * total energy  :  -199.9275707 Eh     change       -0.1125160E-03 Eh
 * total energy  :  -199.9275983 Eh     change       -0.2757130E-04 Eh
 * total energy  :  -199.9276322 Eh     change       -0.3392162E-04 Eh
 * total energy  :  -199.9276407 Eh     change       -0.8428640E-05 Eh
 * total energy  :  -199.9276465 Eh     change       -0.5846063E-05 Eh
 * total energy  :  -199.9276500 Eh     change       -0.3541904E-05 Eh
 * total energy  :  -199.9276806 Eh     change       -0.2950443E-07 Eh
 * total energy  :  -199.9276808 Eh     change       -0.2590471E-06 Eh
 * total energy  :  -199.9276811 Eh     change       -0.2324997E-06 Eh
 * total energy  :  -199.9276810 Eh     change        0.5336898E-07 Eh
 * total energy  :  -199.9276813 Eh     change       -0.3002599E-06 Eh
 * total energy  :  -199.9276816 Eh     change       -0.3083506E-06 Eh
 * total energy  :  -199.9276818 Eh     change       -0.2194431E-06 Eh
 * total energy  :  -199.9276821 Eh     change       -0.2379437E-06 Eh
 * total energy  :  -199.9276822 Eh     change       -0.9971902E-07 Eh
   *** GEOMETRY OPTIMIZATION CONVERGED AFTER 34 ITERATIONS ***

 final structure:
================
141
 xtb: 6.7.1 (edcfbbe)
C           -6.45383713547867        5.53601694843968        0.18482891218000
C           -4.97820500507876        5.56099106987568       -0.22252264676869
C           -4.90337065660959        5.87391664797312       -1.72410909317333
C           -4.28325468793562        6.67254518324697        0.57677816414288
C           -4.27599072788792        4.23794802177524        0.04098587603117
C           -2.91413208786400        4.12315801541702       -0.26735696320272
C           -2.20161289579924        2.95695814346398       -0.07905489126482
C           -2.86971106268679        1.86156811021824        0.44490641609918
C           -4.24273231514143        1.94907333419297        0.76111028006536
C           -4.93595598519329        3.13166390330798        0.55807331708789
C           -4.63634419134272        0.64551214878077        1.22683470435569
C           -5.84345514803983        0.10505723352836        1.63988463711803
C           -5.90334501288061       -1.22694686524469        2.02726165369437
C           -7.20494317097860       -1.90704347730736        2.41990200036475
C           -7.09173074359690       -2.45319260652176        3.85002899593667
C           -8.40553263557598       -0.95822592110102        2.36768826172678
C           -7.46279225472917       -3.05887245988889        1.43789134882187
C           -4.71930618470856       -1.97504657795659        2.05003409013399
C           -3.50466238967340       -1.46038490388590        1.64842554802175
C           -3.47693141428647       -0.15600334393504        1.17987235757439
N           -2.41977766411312        0.57909940489090        0.68506044712499
C           -1.21786497244220        0.04005821518172        0.20427839564866
C            0.00092860903194        0.61974297638294        0.61991907691611
C            1.22090348795413        0.04757726398654        0.19700229147230
N            2.42225053660960        0.57792605076138        0.68665567622207
C            2.86394957652227        1.87362286404856        0.50917050137652
C            2.18940177031374        2.99211843813414        0.04548976571225
C            2.89293135555418        4.17301092193549       -0.07268741292514
C            4.25269062771104        4.28134626704247        0.24674056710049
C            4.94185999947310        5.62614112814093        0.07533717187117
C            4.86303945779467        6.04424565253063       -1.40006459403317
C            6.41786799452068        5.58737103018536        0.48031699299083
C            4.23587831805611        6.67074777381292        0.95175337698298
C            4.92112767284350        3.15115685824644        0.69674721413015
C            4.23668145940595        1.95373051048420        0.82970542597368
C            4.63922624556524        0.63152817591555        1.23037073733916
C            5.85023822635977        0.07905905801421        1.61556323506093
C            5.91775708953288       -1.26872893472258        1.94243577152472
C            7.22430751949165       -1.96103416672285        2.29523681270672
C            7.12084441997148       -2.58082428352218        3.69573893539712
C            8.41992367124164       -1.00458681602967        2.28663363306554
C            7.48280982226338       -3.05958105444466        1.25404446310403
C            4.73663798289424       -2.02165371417833        1.93848266570165
C            3.51848721265765       -1.49502875401427        1.56385395639773
C            3.48392109428616       -0.17267974739865        1.14919364432500
C            1.24064928584930       -1.03932082111662       -0.66056761018798
N            2.44776508015962       -1.53663155460684       -1.16186288744003
C            2.92945211866054       -2.82085669555143       -1.00668593807801
C            2.30078200321233       -3.94306561900659       -0.48694869898321
C            3.03119764591584       -5.11263335203830       -0.40308931672457
C            4.36005548883269       -5.16883621045454       -0.81533535601295
C            4.99765983166704       -4.04989228723219       -1.31896088150698
C            4.28402115574011       -2.86566827642717       -1.41377936897845
C            4.62532666243945       -1.53847778476555       -1.84658400498239
C            5.78377094288138       -0.95378756734157       -2.33293860648533
C            5.75487935971015        0.38457399685033       -2.68211557344065
C            4.57977060355726        1.12556067229971       -2.59217708820255
C            3.41260672115553        0.56319771081502       -2.11206899813650
C            3.45509391195261       -0.75942376457824       -1.69562785419914
C            0.00256696164203       -1.63299205937412       -1.10916238423837
C           -0.00461525375222       -2.57430701487768       -2.11506786496713
N           -0.01394661845444       -3.41021723898446       -2.92250952511959
C           -1.23601375606015       -1.05793663617026       -0.63732120744581
N           -2.44335865053649       -1.59340875490748       -1.09821058427384
C           -3.48099375741411       -0.86042608700219       -1.63483330597969
C           -3.47902712029305        0.44525922936899       -2.10344160064004
C           -4.67046491454522        0.96208372943114       -2.57500092033644
C           -5.82996144466772        0.19233666043606       -2.60581855775785
C           -5.81945889866982       -1.13159547619337       -2.20417923526929
C           -4.63630753031859       -1.67088661328394       -1.72532971952012
C           -4.25375944656383       -2.97215203746391       -1.24986362165998
C           -4.93624172550928       -4.16745137552814       -1.08807771341356
C           -4.25896745895361       -5.25030710492007       -0.55779231159556
C           -2.92129546448655       -5.14784149320830       -0.18483865423090
C           -2.22156042323783       -3.96619450978703       -0.33491497924252
C           -2.89079075372265       -2.88078917434589       -0.88114437408985
H           -6.56285124465034        5.33040256247609        1.24722445047378
H           -7.00442808755391        4.78927371447886       -0.38254287193221
H           -6.90151612019180        6.50707831346223       -0.01702379778289
H           -5.41431605695727        6.81035487952150       -1.93772466012912
H           -3.87438188388705        5.96344228141999       -2.06100528832500
H           -5.38188271785926        5.08169165938095       -2.29631565360002
H           -4.79039511411306        7.62154046582383        0.41605864318805
H           -3.24502885391832        6.78885748400313        0.27921704907916
H           -4.30948540236657        6.44272415896203        1.63996603334300
H           -2.39058982067070        4.97297675085597       -0.67781126931370
H           -1.15790718098683        2.89858147044260       -0.34734204049948
H           -5.98503554316853        3.16284038006711        0.79935403111325
H           -6.71795476790405        0.73360968541103        1.64458040694650
H           -6.86926561727557       -1.64540966110181        4.54427721663433
H           -8.02999822885478       -2.91613202719869        4.14837755562320
H           -6.30585989707646       -3.19852333404977        3.93088339177579
H           -8.54868880033896       -0.56397266613243        1.36432505918516
H           -9.30717431208525       -1.49945113391366        2.64744342225785
H           -8.28168275771070       -0.13119188480302        3.06315199756200
H           -6.65790049879984       -3.78826053453443        1.46186983611240
H           -7.53698855202884       -2.67105758109299        0.42420727628759
H           -8.39375785000449       -3.56405875118230        1.68688551258174
H           -4.74315117011851       -2.99999788739049        2.38575579646030
H           -2.60757925780652       -2.05863022706533        1.69749321366381
H           -0.00037562299865        1.38933617923406        1.37179175591857
H            1.14623476986400        2.94368525461608       -0.22610051391473
H            2.36270922910586        5.04134829198430       -0.43269724421579
H            5.34728820992959        5.29851933927598       -2.02726350928042
H            3.83308820205216        6.14951032139349       -1.72929610688486
H            5.36625865448983        6.99760711709555       -1.54662438696121
H            6.52931069540419        5.31125238030518        1.52635117397240
H            6.97511776968726        4.88597011377339       -0.13629240172332
H            6.85634536172982        6.57406039640468        0.34508307041502
H            3.19581325542375        6.79562806692792        0.66419463857917
H            4.26651607218247        6.36670184258993        1.99603690184415
H            4.73202278824861        7.63442151102896        0.85807464449780
H            5.96935068873640        3.17628557353372        0.94241305042191
H            6.72171940416173        0.71108207130450        1.64615287151685
H            6.34122906129027       -3.33563705934960        3.74106069413848
H            6.89515354184814       -1.81164657121134        4.43152872215500
H            8.06380051392033       -3.05123542729445        3.96630232170508
H            9.32520040768279       -1.55440436949227        2.53624188749675
H            8.55790282881858       -0.56013455789488        1.30374740761768
H            8.29410342553943       -0.21386999017064        3.02280184387068
H            7.55228592567096       -2.61970178332456        0.26148660591370
H            8.41624825091782       -3.57376583985191        1.47356555830470
H            6.68020171625787       -3.79183171124552        1.24263817243370
H            4.76557106869488       -3.05985852707059        2.23010760100713
H            2.62372777593524       -2.09791853350924        1.59360111499251
H            1.27287563586484       -3.91026917435692       -0.16272700094159
H            2.56133561571783       -6.00157955164994       -0.00960700178593
H            4.89850865366471       -6.10171901987764       -0.73658191183303
H            6.03010169361716       -4.09413392329115       -1.63083334386712
H            6.68741842188103       -1.53451741929329       -2.44143147888557
H            6.65092028091543        0.85996428007954       -3.05257697819467
H            4.57662372302941        2.15905138606117       -2.90471338471391
H            2.49641757713682        1.13257928418488       -2.07454819734751
H           -2.57541734785867        1.03545539612322       -2.11128804498714
H           -4.69881170321918        1.98212227626081       -2.92781548101692
H           -6.74566217004392        0.63265744035403       -2.97156157150050
H           -6.71187204636631       -1.73597075331754       -2.26718609910126
H           -5.97534863577454       -4.24789004939203       -1.36903944848119
H           -4.77294030488952       -6.19109352233687       -0.42675044491352
H           -2.42055036766607       -6.00939888154063        0.23096983572280
H           -1.18685206939920       -3.89487267917596       -0.03915238350057

 projected vibrational frequencies (cm⁻¹)
eigval :       -0.00    -0.00     0.00     0.00     0.00     0.00
eigval :        9.52    12.46    14.04    17.00    19.90    28.21
eigval :       29.42    30.62    31.22    34.88    35.32    39.71
eigval :       43.46    48.14    49.25    56.69    63.19    68.17
eigval :       74.84    75.19    79.97    87.88    90.08    98.85
eigval :      109.80   114.01   115.17   119.14   120.23   128.54
eigval :      136.47   141.47   153.49   154.81   165.43   166.63
eigval :      174.04   174.37   178.38   188.81   194.88   201.66
eigval :      204.47   211.88   213.41   217.62   218.00   220.38
eigval :      221.79   225.94   228.12   231.40   232.12   248.22
eigval :      260.28   262.71   271.78   273.43   277.89   278.25
eigval :      285.97   287.45   306.33   317.74   318.48   318.82
eigval :      322.66   323.06   333.36   337.28   339.00   342.37
eigval :      347.26   352.59   359.61   360.33   370.73   378.32
eigval :      385.11   391.18   392.59   397.29   400.40   402.30
eigval :      405.07   408.48   409.22   418.95   422.83   424.07
eigval :      434.18   436.03   440.22   441.47   447.74   448.77
eigval :      452.15   460.28   465.51   465.75   468.20   469.26
eigval :      492.28   495.41   500.73   515.32   516.15   517.74
eigval :      524.67   528.08   537.66   538.17   539.75   541.50
eigval :      556.54   569.51   582.27   582.56   583.66   585.19
eigval :      589.84   591.70   593.48   606.19   617.77   634.89
eigval :      637.08   640.46   641.44   652.68   667.49   669.95
eigval :      676.50   676.96   683.97   687.80   688.63   702.21
eigval :      705.74   706.98   707.66   708.69   717.99   723.08
eigval :      729.62   751.28   755.66   758.99   764.32   767.15
eigval :      775.84   777.16   813.12   820.20   822.01   827.14
eigval :      828.04   831.79   840.07   858.46   865.37   865.53
eigval :      867.96   868.69   870.56   870.70   872.56   874.39
eigval :      874.59   877.96   888.44   896.86   899.05   901.08
eigval :      901.88   903.51   903.99   906.91   912.25   917.34
eigval :      918.06   918.47   918.98   919.57   919.78   923.33
eigval :      929.71   932.17   932.69   960.08   960.16   960.57
eigval :      960.59   962.54   962.59   962.84   962.92   962.95
eigval :      962.96   965.82   965.86   996.61  1008.53  1013.60
eigval :     1025.79  1030.32  1032.40  1034.71  1034.91  1035.57
eigval :     1035.70  1035.96  1037.26  1041.50  1043.85  1066.09
eigval :     1068.23  1068.70  1072.13  1075.36  1104.89  1117.37
eigval :     1119.58  1126.16  1128.44  1133.70  1142.31  1144.73
eigval :     1156.06  1163.36  1167.56  1171.62  1173.49  1178.43
eigval :     1178.81  1180.13  1187.70  1188.48  1215.80  1226.63
eigval :     1226.70  1226.79  1227.13  1227.27  1228.60  1228.95
eigval :     1230.10  1231.17  1231.39  1232.11  1233.26  1233.82
eigval :     1234.53  1237.70  1246.12  1253.36  1261.58  1280.44
eigval :     1280.61  1283.32  1285.48  1289.40  1292.62  1294.32
eigval :     1296.67  1297.46  1303.71  1313.12  1322.45  1344.61
eigval :     1344.94  1347.36  1348.21  1348.38  1351.43  1352.78
eigval :     1364.00  1364.86  1365.89  1371.26  1390.24  1402.02
eigval :     1402.32  1404.25  1404.36  1405.05  1405.19  1405.71
eigval :     1405.82  1411.31  1412.22  1413.64  1414.96  1416.80
eigval :     1426.30  1427.42  1427.55  1427.84  1427.94  1433.26
eigval :     1441.44  1458.67  1463.88  1466.31  1467.52  1469.62
eigval :     1476.36  1481.26  1481.49  1484.85  1485.80  1489.71
eigval :     1489.72  1491.36  1491.37  1493.57  1493.73  1493.79
eigval :     1493.85  1499.91  1500.18  1500.45  1500.49  1503.40
eigval :     1503.49  1504.65  1504.67  1513.96  1513.99  1514.19
eigval :     1514.23  1519.22  1519.39  1520.12  1520.20  1564.15
eigval :     1564.41  1567.74  1568.14  1577.30  1578.04  1580.11
eigval :     1581.03  1582.33  1582.67  1586.22  1586.63  1598.83
eigval :     1599.70  1603.47  1605.70  2211.79  3022.10  3022.20
eigval :     3022.69  3022.79  3023.67  3023.77  3024.29  3024.43
eigval :     3027.27  3027.33  3027.50  3027.57  3030.30  3030.44
eigval :     3030.56  3030.80  3031.52  3031.74  3032.11  3032.13
eigval :     3035.93  3035.98  3036.11  3036.22  3038.63  3038.70
eigval :     3038.89  3039.09  3047.42  3047.55  3048.28  3048.53
eigval :     3050.98  3051.16  3052.42  3052.53  3077.64  3077.73
eigval :     3078.65  3078.87  3082.97  3083.33  3083.55  3084.81
eigval :     3085.18  3085.35  3086.48  3087.22  3089.77  3090.08
eigval :     3094.14  3094.65  3094.78  3096.29  3096.85  3097.32
eigval :     3099.25  3099.73  3100.82  3103.46  3118.11  3118.26
eigval :     3121.88  3122.11  3124.99

   temp. (K)  partition function   enthalpy   heat capacity  entropy
                                   cal/mol     cal/K/mol   cal/K/mol   J/K/mol
 298.15  VIB  0.306E+32            41639.667    257.852    257.344
         ROT  0.229E+09              888.752      2.981     41.236
         INT  0.702E+40            42528.420    260.833    298.580
         TR   0.301E+29             1481.254      4.968     46.525
         TOT                       44009.6736   265.8007   345.1054  1443.9211

       T/K    H(0)-H(T)+PV         H(T)/Eh          T*S/Eh         G(T)/Eh
   ------------------------------------------------------------------------
    298.15    0.701339E-01    0.121351E+01    0.163971E+00    0.104954E+01
   ------------------------------------------------------------------------

         :::::::::::::::::::::::::::::::::::::::::::::::::::::
         ::                  THERMODYNAMIC                  ::
         :::::::::::::::::::::::::::::::::::::::::::::::::::::
         :: total free energy        -198.878142151208 Eh   ::
         ::.................................................::
         :: total energy             -199.927682232008 Eh   ::
         :: zero point energy           1.143376929898 Eh   ::
         :: G(RRHO) w/o ZPVE           -0.093836849099 Eh   ::
         :: G(RRHO) contrib.            1.049540080799 Eh   ::
         :::::::::::::::::::::::::::::::::::::::::::::::::::::

           -------------------------------------------------
          | TOTAL ENERGY             -199.927682232008 Eh   |
          | TOTAL ENTHALPY           -198.714171422977 Eh   |
          | TOTAL FREE ENERGY        -198.878142151208 Eh   |
          | GRADIENT NORM               0.000118176415 Eh/α |
           -------------------------------------------------

 * finished run on 2025/09/07 at 18:50:08.991
