   * xtb version 6.7.1 (edcfbbe) compiled by 'albert@albert-system' on 2024-07-22

   ID    Z sym.   atoms
    1    6 C      1-20, 22-24, 26-46, 48-61, 63, 65-76
    2    7 N      21, 25, 47, 62, 64
    3    1 H      77-141

          program call               : xtb data2507/gas/2tCz2CzBn/2tCz2CzBn_gas_S0_crest.xyz --gfn 2 --ohess vtight --parallel 40 --molden --ceasefiles --namespace data2507/gas/2tCz2CzBn/2tCz2CzBn_gas_S0_finalOpt
          :  Hamiltonian                  GFN2-xTB          :
 * total energy  :  -200.0157665 Eh     change       -0.2566509E-08 Eh
 * total energy  :  -200.0157685 Eh     change       -0.2008015E-05 Eh
 * total energy  :  -200.0157713 Eh     change       -0.2820967E-05 Eh
 * total energy  :  -200.0157743 Eh     change       -0.3000493E-05 Eh
 * total energy  :  -200.0157767 Eh     change       -0.2403167E-05 Eh
 * total energy  :  -200.0157797 Eh     change       -0.3014263E-05 Eh
 * total energy  :  -200.0157831 Eh     change       -0.3412536E-05 Eh
 * total energy  :  -200.0157860 Eh     change       -0.2860794E-05 Eh
 * total energy  :  -200.0157877 Eh     change       -0.1716657E-05 Eh
 * total energy  :  -200.0157893 Eh     change       -0.1553041E-05 Eh
 * total energy  :  -200.0158058 Eh     change       -0.1811618E-06 Eh
 * total energy  :  -200.0158060 Eh     change       -0.2195204E-06 Eh
 * total energy  :  -200.0158063 Eh     change       -0.2679199E-06 Eh
 * total energy  :  -200.0158066 Eh     change       -0.2471726E-06 Eh
 * total energy  :  -200.0158068 Eh     change       -0.1959289E-06 Eh
 * total energy  :  -200.0158069 Eh     change       -0.1574338E-06 Eh
 * total energy  :  -200.0158070 Eh     change       -0.1170874E-06 Eh
 * total energy  :  -200.0158071 Eh     change       -0.1080592E-06 Eh
 * total energy  :  -200.0158072 Eh     change       -0.9705454E-07 Eh
   *** GEOMETRY OPTIMIZATION CONVERGED AFTER 43 ITERATIONS ***

 final structure:
================
141
 xtb: 6.7.1 (edcfbbe)
C           -6.46475735616003        5.52336831446038        0.14799852640032
C           -4.98180939206304        5.55898284188513       -0.23090364067422
C           -4.88077312543260        5.88010481353183       -1.72900564857204
C           -4.30892670899510        6.67026066911762        0.58699370679022
C           -4.27771222192039        4.23757393813424        0.04047685192278
C           -2.91118521900534        4.13041539294077       -0.24556425996694
C           -2.19496341373721        2.96741971808784       -0.04650410324305
C           -2.86521103139837        1.86916683763469        0.46299198573053
C           -4.24143262451069        1.94686668662082        0.75444448762610
C           -4.93818631649671        3.12827982044668        0.54355219466761
C           -4.63926784164056        0.64303940723125        1.21202077393531
C           -5.85330700730716        0.10381122543371        1.61303910940434
C           -5.91950916378742       -1.22486609355972        2.00079231104011
C           -7.22515249502308       -1.90179628238969        2.38902331095361
C           -7.12168725518518       -2.43806284169035        3.82344779018972
C           -8.42357174470739       -0.95115844987562        2.32301684079045
C           -7.48017810662344       -3.05961974581256        1.41388651944335
C           -4.73776337868026       -1.97534156819890        2.03357552053848
C           -3.51726827098541       -1.46177213837760        1.64721398728147
C           -3.48300279316454       -0.15865514092746        1.18212835390380
N           -2.40990424628197        0.58416349584176        0.71723953764470
C           -1.21300015842804        0.04598160698580        0.23712849745439
C            0.00130521868410        0.57658292294868        0.65454961990111
C            1.21580042727469        0.05261087389710        0.22918618577349
N            2.41295468704495        0.58117012378690        0.71678077868765
C            2.85936967827782        1.88066555108246        0.52711924816701
C            2.18263732545338        3.00125504144522        0.07828161349362
C            2.88990462077142        4.17972875791538       -0.05008249115305
C            4.25423859015423        4.28189512707748        0.24741722005040
C            4.94539232143508        5.62578462302479        0.06959301189474
C            4.84535681196501        6.05035996841665       -1.40244286314414
C            6.42742978247582        5.57933986678135        0.45098374117156
C            4.25803505369635        6.66956000905408        0.96127064165332
C            4.92324352428404        3.14919797787199        0.68238600245896
C            4.23526085622840        1.95238326002713        0.82237523703021
C            4.64240755341570        0.63008459245214        1.21389254442337
C            5.86038971470438        0.07987139093666        1.58718148100038
C            5.93474327875596       -1.26472858871318        1.91396307536963
C            7.24557174761566       -1.95311812914050        2.26237564370167
C            7.15158953684848       -2.56510525864840        3.66679613504469
C            8.43827444352510       -0.99328156897815        2.24198483146546
C            7.50249308999201       -3.05646433041873        1.22639623023309
C            4.75632618827353       -2.02097846526731        1.91928811523631
C            3.53223076244232       -1.49653506965427        1.55986209693889
C            3.49059450566226       -0.17547921523765        1.14901624413526
C            1.22526680701636       -1.02046816591551       -0.68299675426094
N            2.42524087525471       -1.53282044349080       -1.17851934532087
C            2.89723972639197       -2.82539088749938       -1.00599246719785
C            2.25368127804748       -3.94034681859321       -0.49511711889935
C            2.97420497637691       -5.11565838845333       -0.39835859833763
C            4.30744249836782       -5.18283316350304       -0.79158319107915
C            4.95925683731132       -4.06932165392972       -1.28336853167802
C            4.25534630484694       -2.87826992213429       -1.38783217933621
C            4.61758719505021       -1.55456021769765       -1.81319274161635
C            5.79267492811924       -0.98589415560925       -2.28278181146885
C            5.78911099881559        0.35200870077533       -2.62641033456060
C            4.62463997651471        1.10999481440044       -2.54816011268882
C            3.44139828608268        0.56289300403890       -2.09013018219344
C            3.45998727032560       -0.76006430094665       -1.67945862453839
C            0.00100829278744       -1.55339407143671       -1.11143880173828
C           -0.00611409746298       -2.55499727027561       -2.11150202534894
N           -0.01645747662726       -3.33764130818705       -2.94843022976397
C           -1.22283472106290       -1.03799560535303       -0.66013571856278
N           -2.42262999013072       -1.58735698608943       -1.11657722137659
C           -3.48572110092388       -0.85728955828179       -1.62080525455337
C           -3.50575162573201        0.44804420466536       -2.08411405149245
C           -4.71129756396590        0.95094196037916       -2.53450941171527
C           -5.86036070148554        0.16606981390443       -2.55366471521739
C           -5.82656901875896       -1.15650869088386       -2.15657958867791
C           -4.62850202049386       -1.68104513422756       -1.69384032876616
C           -4.22711463046070       -2.97856686791146       -1.22513886453988
C           -4.90059843350337       -4.17953373548028       -1.05388764313765
C           -4.21097768164991       -5.25753408770379       -0.53517245517304
C           -2.86970469781987       -5.14601147192898       -0.18098703417437
C           -2.17907862108988       -3.96015396310521       -0.34390492015625
C           -2.86150398322979       -2.88128812770533       -0.88094562590031
H           -6.59247738867604        5.31360155908098        1.20747510560891
H           -6.99911604719694        4.77428369865749       -0.43169294986564
H           -6.91514560371464        6.49203929604822       -0.05958145521233
H           -5.39371883277885        6.81421864089239       -1.94829157619362
H           -3.84612591095385        5.97810927354779       -2.04580939457220
H           -5.34286286120454        5.08750483300746       -2.31413233160799
H           -4.81716153291338        7.61783758143274        0.42092332034885
H           -3.26546498439493        6.79267187152160        0.31066393218533
H           -4.35496805046236        6.43505808839984        1.64835360976893
H           -2.38418904735588        4.98325584049619       -0.64548520504961
H           -1.14625887895632        2.92066727113239       -0.30016725133317
H           -5.99077634542761        3.15148269172344        0.76973872240706
H           -6.72530076232476        0.73576904438606        1.60889951775543
H           -6.90265808310354       -1.62557305667010        4.51332187468073
H           -8.06190044589857       -2.89854487975158        4.11980175013999
H           -6.33645763005503       -3.18307358345333        3.91413109554662
H           -8.55766004888551       -0.56147053523686        1.31662025247704
H           -9.32859068470454       -1.48903278667152        2.59862101988343
H           -8.30303311486487       -0.12080190451115        3.01505611943956
H           -6.67713451163116       -3.79068748338281        1.44800526091813
H           -7.54730247543329       -2.67828168798964        0.39726368490111
H           -8.41384565730911       -3.56126450202233        1.66036210726972
H           -4.76628175777137       -3.00097439808833        2.36729788834244
H           -2.62330128545118       -2.06473706748129        1.70581806245709
H            0.00053433551134        1.38075382716560        1.37478859542964
H            1.13457974107228        2.96358582435141       -0.17869885780462
H            2.35627203087675        5.05045721409260       -0.39945362457633
H            5.31778946861944        5.30586420136776       -2.04010754857764
H            3.81066176241223        6.15959402853914       -1.71533555581430
H            5.34874177777549        7.00303927492506       -1.55334562969578
H            6.55388459162246        5.29833392606554        1.49398920211965
H            6.97159569041187        4.87759619191376       -0.17682766077167
H            6.86822108139111        6.56464152930473        0.31267468060516
H            3.21397006346513        6.79955306067530        0.69073240497018
H            4.30384500637675        6.36074435321190        2.00362108790540
H            4.75616452446946        7.63194826564005        0.86409850676080
H            5.97510100669248        3.16714979360821        0.91242274854514
H            6.72898937966846        0.71609995180541        1.60987095796024
H            6.37366251911073       -3.32124255995636        3.72050079762490
H            6.92775472544281       -1.79219073665336        4.39926532893852
H            8.09691592562358       -3.03199589377206        3.93554473689784
H            9.34713266094943       -1.53917118586495        2.48751671771598
H            8.56755793752323       -0.55196763809080        1.25650375978355
H            8.31466821244279       -0.20005902211565        2.97579570268264
H            7.56587636231207       -2.62142644883122        0.23129417075409
H            8.43844497303668       -3.56719572146482        1.44377862692383
H            6.70180057702598       -3.79094850931309        1.22317689818289
H            4.79032837127407       -3.05984814022256        2.20853130033521
H            2.64096473641939       -2.10496662855160        1.59890277760343
H            1.22327322916783       -3.90361168025920       -0.17534121036481
H            2.49103091135097       -5.99914986607339       -0.00852040573769
H            4.83685449378359       -6.11995081388884       -0.70423391381618
H            5.99605525737922       -4.11863999866331       -1.57882007269230
H            6.68761170458551       -1.58151721841023       -2.38085893252801
H            6.69689299871839        0.81602446143129       -2.98224762230915
H            4.64138351222786        2.14585395847182       -2.85217693007648
H            2.53601507790089        1.15025247745848       -2.06030145563661
H           -2.61295618720577        1.05484962487934       -2.09903244061583
H           -4.75797537937775        1.97291885224891       -2.87955572579289
H           -6.78628778731574        0.59597563153870       -2.90562910998456
H           -6.71033222054783       -1.77422734344893       -2.20885784474602
H           -5.94333604010164       -4.26364788168416       -1.31902960682063
H           -4.71651881108187       -6.20152049982742       -0.39576475257770
H           -2.35692295241689       -6.00243338902178        0.23092605525183
H           -1.14194122377172       -3.88615461610733       -0.05297900847906

          :  Hamiltonian                  GFN2-xTB          :
         :: gradient norm              0.000055249282 Eh/a0 ::
         :: HOMO-LUMO gap              2.075617109733 eV    ::
         :: SCC energy              -203.625120530318 Eh    ::
         :: -> dispersion             -0.230624058458 Eh    ::
         :: repulsion energy           3.609313296130 Eh    ::

    * Orbital Energies and Occupations

         #    Occupation            Energy/Eh            Energy/eV
      -------------------------------------------------------------
         1        2.0000           -0.6997896             -19.0422
       ...           ...                  ...                  ...
       175        2.0000           -0.4087576             -11.1229
       176        2.0000           -0.4057817             -11.0419
       177        2.0000           -0.4054451             -11.0327
       178        2.0000           -0.3983767             -10.8404
       179        2.0000           -0.3981005             -10.8329
       180        2.0000           -0.3827720             -10.4158
       181        2.0000           -0.3824719             -10.4076
       182        2.0000           -0.3744644             -10.1897
       183        2.0000           -0.3739493             -10.1757
       184        2.0000           -0.3707949             -10.0898
       185        2.0000           -0.3700007             -10.0682
       186        2.0000           -0.3633132              -9.8863
       187        2.0000           -0.3599729              -9.7954 (HOMO)
       188                         -0.2836954              -7.7197 (LUMO)
       189                         -0.2636191              -7.1734
       190                         -0.2466002              -6.7103
       191                         -0.2453830              -6.6772
       192                         -0.2435255              -6.6267
       193                         -0.2415863              -6.5739
       194                         -0.2269462              -6.1755
       195                         -0.2265133              -6.1637
       196                         -0.2166979              -5.8966
       197                         -0.2164685              -5.8904
       198                         -0.2122347              -5.7752
       ...                                ...                  ...
       369                          1.1647647              31.6949
      -------------------------------------------------------------
                  HL-Gap            0.0762775 Eh            2.0756 eV

     #   Z          covCN         q      C6AA      α(0)
     1   6 C        3.761    -0.107    22.593     6.776
     2   6 C        3.903     0.026    20.082     6.370
     3   6 C        3.762    -0.104    22.533     6.767
     4   6 C        3.761    -0.105    22.558     6.771
     5   6 C        2.973    -0.000    28.030     8.684
     6   6 C        2.931    -0.039    28.958     8.825
     7   6 C        2.909    -0.052    29.286     8.874
     8   6 C        3.078     0.046    26.894     8.502
     9   6 C        3.068    -0.017    28.365     8.733
    10   6 C        2.918    -0.042    29.043     8.837
    11   6 C        3.065    -0.018    28.403     8.739
    12   6 C        2.919    -0.043    29.061     8.840
    13   6 C        2.974     0.001    28.006     8.681
    14   6 C        3.903     0.026    20.086     6.371
    15   6 C        3.761    -0.105    22.561     6.771
    16   6 C        3.761    -0.107    22.591     6.776
    17   6 C        3.762    -0.104    22.537     6.767
    18   6 C        2.932    -0.037    28.921     8.820
    19   6 C        2.909    -0.050    29.240     8.867
    20   6 C        3.084     0.045    26.909     8.504
    21   7 N        2.799    -0.053    22.266     7.008
    22   6 C        2.910     0.053    26.821     8.492
    23   6 C        2.923    -0.056    29.390     8.890
    24   6 C        2.909     0.052    26.825     8.493
    25   7 N        2.799    -0.052    22.240     7.004
    26   6 C        3.077     0.045    26.901     8.504
    27   6 C        2.909    -0.052    29.288     8.874
    28   6 C        2.931    -0.039    28.958     8.825
    29   6 C        2.973    -0.000    28.028     8.684
    30   6 C        3.903     0.026    20.082     6.370
    31   6 C        3.762    -0.104    22.537     6.767
    32   6 C        3.761    -0.107    22.594     6.776
    33   6 C        3.762    -0.105    22.559     6.771
    34   6 C        2.918    -0.042    29.045     8.838
    35   6 C        3.069    -0.017    28.363     8.733
    36   6 C        3.065    -0.018    28.401     8.739
    37   6 C        2.919    -0.043    29.062     8.840
    38   6 C        2.974     0.001    28.003     8.680
    39   6 C        3.903     0.026    20.086     6.371
    40   6 C        3.761    -0.105    22.562     6.771
    41   6 C        3.761    -0.107    22.592     6.776
    42   6 C        3.762    -0.104    22.538     6.767
    43   6 C        2.932    -0.037    28.923     8.820
    44   6 C        2.909    -0.050    29.237     8.866
    45   6 C        3.084     0.044    26.915     8.505
    46   6 C        2.918     0.055    26.776     8.486
    47   7 N        2.800    -0.047    22.151     6.990
    48   6 C        3.070     0.052    26.753     8.481
    49   6 C        2.911    -0.043    29.072     8.841
    50   6 C        2.925    -0.030    28.756     8.794
    51   6 C        2.920    -0.039    28.958     8.825
    52   6 C        2.913    -0.030    28.751     8.793
    53   6 C        3.070    -0.012    28.244     8.714
    54   6 C        3.066    -0.013    28.271     8.719
    55   6 C        2.914    -0.031    28.770     8.796
    56   6 C        2.921    -0.038    28.948     8.823
    57   6 C        2.925    -0.031    28.762     8.795
    58   6 C        2.911    -0.046    29.136     8.851
    59   6 C        3.077     0.050    26.793     8.486
    60   6 C        2.975    -0.011    28.297     8.726
    61   6 C        1.913     0.123    28.089     8.559
    62   7 N        0.911    -0.227    25.953     7.368
    63   6 C        2.919     0.055    26.773     8.485
    64   7 N        2.800    -0.048    22.165     6.992
    65   6 C        3.077     0.050    26.787     8.485
    66   6 C        2.910    -0.046    29.137     8.851
    67   6 C        2.925    -0.030    28.758     8.794
    68   6 C        2.921    -0.038    28.950     8.823
    69   6 C        2.914    -0.031    28.768     8.795
    70   6 C        3.066    -0.013    28.273     8.719
    71   6 C        3.069    -0.012    28.243     8.714
    72   6 C        2.913    -0.030    28.751     8.793
    73   6 C        2.920    -0.039    28.961     8.825
    74   6 C        2.925    -0.030    28.760     8.795
    75   6 C        2.911    -0.043    29.080     8.842
    76   6 C        3.072     0.053    26.749     8.480
    77   1 H        0.925     0.036     2.508     2.477
    78   1 H        0.925     0.036     2.506     2.475
    79   1 H        0.925     0.036     2.507     2.476
    80   1 H        0.925     0.037     2.496     2.471
    81   1 H        0.925     0.035     2.514     2.479
    82   1 H        0.925     0.032     2.551     2.498
    83   1 H        0.925     0.036     2.497     2.471
    84   1 H        0.925     0.036     2.510     2.477
    85   1 H        0.925     0.034     2.537     2.491
    86   1 H        0.926     0.030     2.583     2.513
    87   1 H        0.926     0.018     2.759     2.598
    88   1 H        0.926     0.039     2.459     2.452
    89   1 H        0.926     0.039     2.460     2.453
    90   1 H        0.925     0.033     2.541     2.493
    91   1 H        0.925     0.037     2.492     2.469
    92   1 H        0.925     0.036     2.506     2.476
    93   1 H        0.925     0.036     2.503     2.474
    94   1 H        0.925     0.036     2.504     2.475
    95   1 H        0.925     0.035     2.514     2.480
    96   1 H        0.925     0.037     2.496     2.470
    97   1 H        0.925     0.034     2.535     2.490
    98   1 H        0.925     0.037     2.496     2.470
    99   1 H        0.926     0.030     2.583     2.513
   100   1 H        0.926     0.018     2.759     2.597
   101   1 H        0.926     0.063     2.159     2.298
   102   1 H        0.926     0.019     2.744     2.590
   103   1 H        0.926     0.030     2.580     2.512
   104   1 H        0.925     0.033     2.549     2.497
   105   1 H        0.925     0.035     2.513     2.479
   106   1 H        0.925     0.037     2.495     2.470
   107   1 H        0.925     0.036     2.508     2.477
   108   1 H        0.925     0.036     2.506     2.475
   109   1 H        0.925     0.036     2.507     2.476
   110   1 H        0.925     0.036     2.508     2.477
   111   1 H        0.925     0.034     2.537     2.491
   112   1 H        0.925     0.037     2.496     2.471
   113   1 H        0.926     0.039     2.458     2.452
   114   1 H        0.926     0.039     2.459     2.452
   115   1 H        0.925     0.036     2.505     2.475
   116   1 H        0.925     0.033     2.540     2.492
   117   1 H        0.925     0.037     2.491     2.468
   118   1 H        0.925     0.036     2.503     2.474
   119   1 H        0.925     0.036     2.503     2.474
   120   1 H        0.925     0.035     2.514     2.479
   121   1 H        0.925     0.034     2.535     2.490
   122   1 H        0.925     0.037     2.494     2.469
   123   1 H        0.925     0.037     2.495     2.470
   124   1 H        0.926     0.030     2.582     2.513
   125   1 H        0.926     0.018     2.757     2.597
   126   1 H        0.926     0.019     2.751     2.594
   127   1 H        0.926     0.033     2.539     2.492
   128   1 H        0.926     0.031     2.566     2.505
   129   1 H        0.926     0.035     2.515     2.480
   130   1 H        0.926     0.032     2.557     2.501
   131   1 H        0.926     0.030     2.580     2.512
   132   1 H        0.926     0.031     2.577     2.510
   133   1 H        0.926     0.022     2.704     2.572
   134   1 H        0.926     0.022     2.703     2.571
   135   1 H        0.926     0.030     2.580     2.512
   136   1 H        0.926     0.030     2.582     2.513
   137   1 H        0.926     0.032     2.560     2.502
   138   1 H        0.926     0.035     2.515     2.480
   139   1 H        0.926     0.031     2.569     2.506
   140   1 H        0.926     0.033     2.545     2.495
   141   1 H        0.926     0.018     2.768     2.602

molecular dipole:
                 x           y           z       tot (Debye)
 q only:        0.040       0.929       0.903
   full:        0.042       1.205       1.161       4.254

 projected vibrational frequencies (cm⁻¹)
eigval :       -0.00    -0.00    -0.00     0.00     0.00     0.00
eigval :        9.35    13.47    14.69    18.37    23.37    29.83
eigval :       30.09    31.63    32.33    35.68    36.05    40.83
eigval :       45.52    49.02    49.66    59.05    63.92    68.63
eigval :       75.76    78.00    81.94    89.54    95.01    98.33
eigval :      111.38   115.94   117.60   120.16   121.92   132.30
eigval :      140.14   142.80   155.58   157.79   167.39   168.37
eigval :      175.30   175.68   183.24   188.63   197.80   202.90
eigval :      207.74   212.91   218.36   218.74   219.36   222.40
eigval :      223.49   226.54   229.70   232.14   240.57   261.43
eigval :      262.61   264.48   274.82   276.99   278.94   282.80
eigval :      287.58   288.61   308.44   318.49   318.60   322.22
eigval :      322.77   323.15   332.62   338.27   339.55   343.70
eigval :      348.47   354.54   361.35   361.97   369.94   377.18
eigval :      389.99   399.06   400.56   402.32   403.52   411.74
eigval :      412.77   415.56   418.68   422.78   425.52   433.38
eigval :      437.70   439.87   442.14   445.69   448.90   450.02
eigval :      453.14   461.99   465.67   466.23   475.57   476.55
eigval :      503.55   506.70   516.24   518.71   519.02   524.04
eigval :      534.83   541.41   542.36   543.07   544.24   551.81
eigval :      575.65   577.40   580.97   582.89   586.35   588.73
eigval :      592.75   595.20   601.98   618.73   632.10   640.28
eigval :      640.79   655.61   662.24   670.47   671.10   677.40
eigval :      680.92   686.08   687.47   690.82   702.99   704.98
eigval :      707.04   708.04   709.42   721.87   725.96   733.51
eigval :      756.14   756.67   766.31   769.75   780.03   781.43
eigval :      787.33   811.44   819.05   824.08   826.71   827.48
eigval :      833.70   843.87   860.97   868.05   868.44   869.16
eigval :      873.22   873.81   874.11   874.27   876.82   877.22
eigval :      885.97   896.13   896.76   900.45   902.43   904.61
eigval :      904.92   906.31   906.44   913.21   918.50   919.30
eigval :      920.76   921.83   922.79   923.07   926.02   927.69
eigval :      931.89   933.70   960.38   960.44   960.87   960.88
eigval :      962.77   962.80   962.89   962.97   963.28   963.32
eigval :      966.06   966.18  1000.73  1009.95  1015.53  1024.40
eigval :     1031.01  1032.35  1035.58  1035.76  1036.10  1036.61
eigval :     1036.85  1037.34  1041.74  1043.12  1069.90  1071.36
eigval :     1072.37  1075.76  1075.99  1112.35  1120.78  1123.26
eigval :     1128.76  1131.05  1138.42  1150.66  1153.38  1158.17
eigval :     1172.13  1174.36  1176.51  1177.82  1180.63  1181.15
eigval :     1183.46  1192.38  1193.67  1221.02  1228.26  1228.38
eigval :     1229.01  1229.15  1230.53  1231.51  1232.42  1233.11
eigval :     1233.36  1234.85  1235.99  1236.90  1237.69  1239.30
eigval :     1244.27  1250.23  1255.04  1267.48  1279.31  1284.54
eigval :     1287.03  1294.61  1296.55  1298.35  1300.16  1300.46
eigval :     1308.04  1308.70  1311.35  1325.42  1340.25  1349.09
eigval :     1349.64  1358.02  1360.19  1360.49  1360.92  1361.40
eigval :     1363.05  1363.35  1402.59  1402.66  1404.79  1404.83
eigval :     1406.05  1406.14  1406.46  1406.57  1408.20  1413.38
eigval :     1413.94  1420.19  1423.25  1428.94  1429.60  1429.63
eigval :     1429.66  1429.75  1429.86  1433.84  1435.91  1460.71
eigval :     1462.48  1474.56  1475.27  1482.57  1483.13  1485.06
eigval :     1485.15  1488.37  1488.55  1491.01  1491.02  1492.64
eigval :     1492.68  1494.90  1495.01  1495.03  1495.14  1501.40
eigval :     1501.58  1501.97  1502.06  1504.22  1504.81  1504.89
eigval :     1506.11  1506.24  1514.67  1514.68  1514.87  1514.88
eigval :     1520.31  1520.34  1521.17  1521.20  1546.97  1573.45
eigval :     1573.97  1578.79  1579.12  1586.90  1587.64  1593.53
eigval :     1594.18  1601.77  1602.15  1607.53  1607.90  1615.95
eigval :     1616.58  1618.88  1620.11  2370.65  3020.92  3021.06
eigval :     3021.85  3021.94  3022.38  3022.51  3023.30  3023.40
eigval :     3026.75  3026.83  3027.24  3027.29  3029.50  3029.64
eigval :     3030.16  3030.35  3031.13  3031.29  3031.98  3032.07
eigval :     3035.75  3035.79  3035.98  3036.07  3038.18  3038.36
eigval :     3038.47  3038.65  3046.38  3046.49  3047.65  3047.77
eigval :     3050.08  3050.17  3051.61  3051.70  3074.77  3076.37
eigval :     3077.76  3078.01  3078.21  3078.35  3078.56  3078.65
eigval :     3081.40  3082.04  3082.42  3083.06  3089.19  3089.49
eigval :     3091.41  3092.17  3092.19  3092.88  3096.94  3097.19
eigval :     3097.27  3097.38  3098.93  3099.24  3101.43  3118.78
eigval :     3118.80  3122.25  3122.30

   temp. (K)  partition function   enthalpy   heat capacity  entropy
                                   cal/mol     cal/K/mol   cal/K/mol   J/K/mol
 298.15  VIB  0.838E+31            41223.415    255.905    254.418
         ROT  0.229E+09              888.752      2.981     41.232
         INT  0.192E+40            42112.168    258.886    295.650
         TR   0.301E+29             1481.254      4.968     46.525
         TOT                       43593.4215   263.8540   342.1756  1431.6626

       T/K    H(0)-H(T)+PV         H(T)/Eh          T*S/Eh         G(T)/Eh
   ------------------------------------------------------------------------
    298.15    0.694705E-01    0.121816E+01    0.162579E+00    0.105558E+01
   ------------------------------------------------------------------------

         :::::::::::::::::::::::::::::::::::::::::::::::::::::
         ::                  THERMODYNAMIC                  ::
         :::::::::::::::::::::::::::::::::::::::::::::::::::::
         :: total free energy        -198.960224219911 Eh   ::
         ::.................................................::
         :: total energy             -200.015807234187 Eh   ::
         :: zero point energy           1.148691134035 Eh   ::
         :: G(RRHO) w/o ZPVE           -0.093108119759 Eh   ::
         :: G(RRHO) contrib.            1.055583014276 Eh   ::
         :::::::::::::::::::::::::::::::::::::::::::::::::::::

           -------------------------------------------------
          | TOTAL ENERGY             -200.015807234187 Eh   |
          | TOTAL ENTHALPY           -198.797645561014 Eh   |
          | TOTAL FREE ENERGY        -198.960224219911 Eh   |
          | GRADIENT NORM               0.000055271145 Eh/α |
          | HOMO-LUMO GAP               2.075616125845 eV   |
           -------------------------------------------------

 * finished run on 2025/09/07 at 18:49:32.561
