   * xtb version 6.7.1 (edcfbbe) compiled by 'albert@albert-system' on 2024-07-22

   ID    Z sym.   atoms
    1    5 B      1
    2    6 C      2-11, 13-18, 20-29, 31-48, 50-61, 63-68
    3    8 O      12, 19
    4    7 N      30, 49, 62
    5    1 H      69-116

          program call               : xtb data250606/toluene/TDBA-DI/TDBA-DI_toluene_T1_crest.xyz --gfn 2 --uhf 2 --gbsa toluene --ohess vtight --parallel 14 --molden --ceasefiles --namespace data250606/toluene/TDBA-DI/TDBA-DI_toluene_T1_finalOpt
      * Solvation model:               GBSA
        Solvent                        toluene
        Solvent mass                       9.2140E+01 g/mol
          :  Hamiltonian                  GFN2-xTB          :
 * total energy  :  -175.5468142 Eh     change       -0.2711340E-07 Eh
 * total energy  :  -175.5469262 Eh     change       -0.1119421E-03 Eh
 * total energy  :  -175.5469908 Eh     change       -0.6460520E-04 Eh
 * total energy  :  -175.5470132 Eh     change       -0.2245575E-04 Eh
 * total energy  :  -175.5470370 Eh     change       -0.2373377E-04 Eh
 * total energy  :  -175.5470600 Eh     change       -0.2308746E-04 Eh
 * total energy  :  -175.5470711 Eh     change       -0.1103192E-04 Eh
 * total energy  :  -175.5470777 Eh     change       -0.6665060E-05 Eh
 * total energy  :  -175.5470822 Eh     change       -0.4462176E-05 Eh
 * total energy  :  -175.5470843 Eh     change       -0.2076343E-05 Eh
 * total energy  :  -175.5471059 Eh     change       -0.6410668E-06 Eh
 * total energy  :  -175.5471067 Eh     change       -0.7699597E-06 Eh
 * total energy  :  -175.5471075 Eh     change       -0.8391552E-06 Eh
 * total energy  :  -175.5471085 Eh     change       -0.9426134E-06 Eh
 * total energy  :  -175.5471096 Eh     change       -0.1095431E-05 Eh
 * total energy  :  -175.5471106 Eh     change       -0.1076750E-05 Eh
 * total energy  :  -175.5471114 Eh     change       -0.7841465E-06 Eh
 * total energy  :  -175.5471120 Eh     change       -0.5334180E-06 Eh
 * total energy  :  -175.5471120 Eh     change       -0.1665046E-07 Eh
   *** GEOMETRY OPTIMIZATION CONVERGED AFTER 44 ITERATIONS ***

 final structure:
================
116
 xtb: 6.7.1 (edcfbbe)
B            4.41471012575300       -0.35648397829024        0.22199086080983
C            5.33548651086822       -1.08587785659608       -0.78901663870979
C            4.73987054232869       -2.05776982069545       -1.62249347195159
C            5.49529065240627       -2.78784643244552       -2.53252756301698
C            6.85456920006186       -2.56498352442224       -2.66168144985403
C            7.48416274565418       -1.58976989035450       -1.89238953383519
C            6.70604755327330       -0.87908755037604       -0.98587931942860
C            8.96936375281668       -1.27849348780181       -2.01006423374649
C            9.68232980713276       -2.17270468190713       -3.02924963788860
C            9.14010109867087        0.18216188186004       -2.45436506262318
C            9.63954306583468       -1.48750454325497       -0.64373140005065
O            3.40512445645041       -2.36820184843589       -1.62480848457176
C            2.51457578396519       -1.69196491120606       -0.84745089853539
C            1.17885011826199       -2.01920596282859       -1.00794741452461
C            0.21022781621126       -1.35520754550314       -0.24341488146731
C            0.60297891195019       -0.37031788491812        0.67465618291016
C            1.94410132936564       -0.06401679072194        0.81571901531190
C            2.94703433889228       -0.70922948802962        0.06466556388097
O            2.25976913382224        0.90003209344468        1.72261096118375
C            3.56220139439587        1.21571441931739        2.00921433442190
C            4.68417722522504        0.65813234666165        1.36151367231550
C            5.93635698506962        1.07107866290439        1.84177684398987
C            6.11110184431557        1.99810763904700        2.85729754205543
C            4.96636765475684        2.54722286555087        3.43872579916839
C            3.70926789428149        2.15439326096489        3.02581646757888
C            7.48063581885984        2.43787887585496        3.35485982062169
C            8.63262892923473        1.74491742199408        2.62093975677404
C            7.60093524128284        2.10691239252428        4.85013217238356
C            7.62549439380131        3.95310294591983        3.14607591675752
N           -1.14234641910387       -1.66494626736158       -0.38121276677518
C           -1.66890049218237       -2.94414890367883       -0.23924537877333
C           -1.00480885229530       -4.15163539193966       -0.15019365806446
C           -1.76695105419053       -5.31152251155098       -0.06523540230987
C           -3.15374243976788       -5.25469866560203       -0.09534225235503
C           -3.82325879772133       -4.04396334821291       -0.13866154812018
C           -3.08224042025112       -2.86281380477928       -0.15427272583651
C           -3.41151321848198       -1.46951752222441       -0.16880178129718
C           -4.55158606381839       -0.71006660275041        0.09333732006967
C           -4.56267387710538        0.70430462603481       -0.10179567831439
C           -3.40674395724723        1.30553449908782       -0.65449618947777
C           -2.18728469591096        0.59298522966401       -0.76602577252577
C           -2.17590545101475       -0.76810739992291       -0.42272170704698
C           -1.23777219568880        1.50193181781399       -1.34901931123417
C            0.07174238528874        1.39673073912875       -1.81197390949860
C            0.67330527571480        2.49831409003444       -2.38771789607076
C           -0.01368948867302        3.70100546833726       -2.54948774171097
C           -1.32754102137386        3.82340880202130       -2.14683293308820
C           -1.92846796824508        2.72589789116798       -1.54350051358430
N           -3.23229684667471        2.58565909464959       -1.12340443315658
C           -4.23896261161002        3.50798368950284       -1.46199523123470
C           -5.29189062151941        3.11125781389977       -2.28189732080934
C           -6.26289289998770        4.02619211876320       -2.64245425186783
C           -6.18716734214404        5.33716549931284       -2.19809168931299
C           -5.13549904518716        5.73333910986650       -1.38743960788424
C           -4.15984130513582        4.82472561489308       -1.01733554916217
C           -5.82965022273359        1.17084962416122        0.35167913024017
C           -6.40642768878386        2.43057844673697        0.55712284486488
C           -7.68026513483132        2.50814638367064        1.07502727255860
C           -8.39758307796355        1.36305201210432        1.42371425289609
C           -7.83683310986973        0.10520133868328        1.28344625617049
C           -6.56154250273151        0.01956864998250        0.75185793745175
N           -5.77594418123920       -1.10172538528563        0.57993919923573
C           -6.10852407524044       -2.34101665652353        1.16469666442963
C           -7.23871554991504       -3.02829174822398        0.73577380751760
C           -7.58784897023986       -4.22165820303865        1.34346286395659
C           -6.81661409789249       -4.72990535922664        2.37610085756955
C           -5.69318148112001       -4.04165890266847        2.80483044099024
C           -5.33776247725168       -2.84692552245507        2.20614136348386
H            4.99657476668599       -3.52854575444213       -3.14100300491269
H            7.40244877766561       -3.15609946712674       -3.37647729439451
H            7.17562146332549       -0.10898558383555       -0.39716154226491
H            9.60699123195948       -3.22117847232103       -2.74937090901448
H           10.73768308888712       -1.90894067955609       -3.06647695148724
H            9.26760263254989       -2.03879545589827       -4.02584499207757
H            8.68891987989381        0.86726770804526       -1.74213942610759
H            8.66592491082463        0.33820429617304       -3.42163225471721
H           10.19690181206396        0.42609892695383       -2.54327267219038
H           10.70792796918119       -1.29405854355697       -0.71662087472652
H            9.49510610411100       -2.51259967762999       -0.30760724177594
H            9.22385107739073       -0.82203382802580        0.10693694839581
H            0.89347814307103       -2.74686311027651       -1.75126551241875
H           -0.13214614351510        0.14583310166278        1.27165275355915
H            6.80076365633245        0.61841611816175        1.39055383406294
H            5.04461740467666        3.27898975890346        4.22801004876816
H            2.82020766860137        2.56214289228936        3.48483973899547
H            9.58147934061567        2.09432562529754        3.02381296854190
H            8.58798425030523        0.66620458075891        2.75343826041012
H            8.61344455136882        1.97785022395923        1.55884468966955
H            8.57860856830287        2.40638852292051        5.22270247216753
H            7.48306288516274        1.03648333902082        5.00812983865249
H            6.84178170401557        2.62203137918076        5.43229149269672
H            7.51618110220978        4.19915457258168        2.09144754369898
H            6.87222145552100        4.50339024517091        3.70316296178272
H            8.60687128904878        4.28495292047031        3.47934059298545
H            0.07258540625262       -4.19965976253408       -0.14608686088985
H           -1.26888334179628       -6.26690271544405        0.00269866687751
H           -3.72350014498563       -6.17190270691111       -0.07869836166876
H           -4.89862123456006       -4.02651703743742       -0.18343024085627
H            0.61544003387721        0.47114184509120       -1.74490144180858
H            1.69366995145400        2.41982712401079       -2.73336386394924
H            0.48337317266706        4.53950629324082       -3.01382226651707
H           -1.87564508312162        4.73801465492648       -2.31154875340237
H           -5.33893200517373        2.08987518517210       -2.62833505113407
H           -7.07891461210085        3.71597788397749       -3.27751554675591
H           -6.94683657209996        6.04906267452210       -2.48310103975090
H           -5.07545765910143        6.75292230792007       -1.03662908419961
H           -3.34851007267936        5.12078483409089       -0.36887497812348
H           -5.86086113602592        3.33185492257644        0.33930868024134
H           -8.12961257402059        3.47817965673430        1.22853451258030
H           -9.39246241361652        1.46017530441246        1.83130652132263
H           -8.37011078301657       -0.77877979697773        1.59738664559295
H           -7.82747217034305       -2.63150853609032       -0.07813783527209
H           -8.46304392854772       -4.75687418054289        1.00622454643769
H           -7.09162602287887       -5.66146438574790        2.84725900661123
H           -5.09196964377159       -4.43367466773042        3.61130358043134
H           -4.46697451700216       -2.30181951234251        2.53818269371433

          :  Hamiltonian                  GFN2-xTB          :
         :: gradient norm              0.000068582785 Eh/a0 ::
         :: HOMO-LUMO gap              0.230118524245 eV    ::
         :: SCC energy              -178.604383271025 Eh    ::
         :: -> dispersion             -0.174536033891 Eh    ::
         :: -> Gsolv                  -0.067413199723 Eh    ::
         :: repulsion energy           3.057271288582 Eh    ::

    * Orbital Energies and Occupations

         #    Occupation            Energy/Eh            Energy/eV
      -------------------------------------------------------------
         1        2.0000           -0.7188375             -19.5606
       ...           ...                  ...                  ...
       152        2.0000           -0.3987044             -10.8493
       153        2.0000           -0.3976950             -10.8218
       154        2.0000           -0.3966417             -10.7932
       155        2.0000           -0.3905951             -10.6286
       156        2.0000           -0.3864743             -10.5165
       157        2.0000           -0.3782712             -10.2933
       158        2.0000           -0.3777441             -10.2789
       159        2.0000           -0.3740159             -10.1775
       160        2.0000           -0.3708925             -10.0925
       161        1.8842           -0.3599140              -9.7938
       162        1.7099           -0.3588328              -9.7643
       163        1.4059           -0.3576206              -9.7314
       164        0.9870           -0.2606298              -7.0921 (HOMO)
       165        0.0102           -0.2521736              -6.8620 (LUMO)
       166        0.0028           -0.2509411              -6.8285
       167                         -0.2374084              -6.4602
       168                         -0.2360492              -6.4232
       169                         -0.2351496              -6.3987
       170                         -0.2346112              -6.3841
       171                         -0.2318312              -6.3084
       172                         -0.2233625              -6.0780
       173                         -0.2229450              -6.0666
       174                         -0.2095436              -5.7020
       175                         -0.2090780              -5.6893
       ...                                ...                  ...
       320                          0.7671156              20.8743
      -------------------------------------------------------------
                  HL-Gap            0.0084562 Eh            0.2301 eV

     #   Z          covCN         q      C6AA      α(0)
     1   5 B        2.722     0.170    18.833     7.272
     2   6 C        2.879    -0.092    30.309     9.025
     3   6 C        2.873     0.129    25.174     8.225
     4   6 C        2.913    -0.063    29.579     8.918
     5   6 C        2.923    -0.048    29.183     8.859
     6   6 C        2.968    -0.000    28.029     8.684
     7   6 C        2.933    -0.051    29.261     8.871
     8   6 C        3.902     0.025    20.106     6.374
     9   6 C        3.761    -0.106    22.582     6.774
    10   6 C        3.761    -0.104    22.538     6.768
    11   6 C        3.761    -0.105    22.544     6.768
    12   8 O        1.711    -0.256    18.236     5.766
    13   6 C        2.869     0.128    25.200     8.229
    14   6 C        2.912    -0.081    30.021     8.985
    15   6 C        2.914     0.042    27.058     8.530
    16   6 C        2.914    -0.077    29.936     8.972
    17   6 C        2.869     0.130    25.158     8.222
    18   6 C        2.885    -0.128    31.254     9.165
    19   8 O        1.711    -0.254    18.213     5.762
    20   6 C        2.873     0.129    25.175     8.225
    21   6 C        2.880    -0.092    30.315     9.026
    22   6 C        2.930    -0.055    29.354     8.885
    23   6 C        2.968    -0.000    28.036     8.685
    24   6 C        2.926    -0.044    29.083     8.844
    25   6 C        2.912    -0.063    29.561     8.915
    26   6 C        3.902     0.024    20.108     6.374
    27   6 C        3.761    -0.105    22.553     6.770
    28   6 C        3.761    -0.104    22.542     6.768
    29   6 C        3.761    -0.104    22.540     6.768
    30   7 N        2.795    -0.015    21.532     6.892
    31   6 C        3.075     0.046    26.896     8.503
    32   6 C        2.910    -0.046    29.153     8.854
    33   6 C        2.922    -0.035    28.873     8.812
    34   6 C        2.918    -0.037    28.916     8.818
    35   6 C        2.913    -0.038    28.945     8.822
    36   6 C        3.051    -0.013    28.283     8.722
    37   6 C        3.048    -0.036    28.846     8.809
    38   6 C        3.059     0.047    26.883     8.503
    39   6 C        3.054    -0.034    28.797     8.801
    40   6 C        3.065     0.035    27.158     8.545
    41   6 C        3.050    -0.038    28.889     8.815
    42   6 C        3.053     0.037    27.123     8.541
    43   6 C        3.061    -0.010    28.196     8.708
    44   6 C        2.913    -0.037    28.920     8.818
    45   6 C        2.919    -0.037    28.917     8.818
    46   6 C        2.922    -0.033    28.824     8.804
    47   6 C        2.910    -0.048    29.197     8.860
    48   6 C        3.085     0.045    26.894     8.501
    49   7 N        2.802    -0.021    21.657     6.912
    50   6 C        2.917     0.064    26.556     8.450
    51   6 C        2.921    -0.036    28.888     8.814
    52   6 C        2.920    -0.025    28.623     8.773
    53   6 C        2.919    -0.030    28.738     8.791
    54   6 C        2.919    -0.026    28.663     8.779
    55   6 C        2.921    -0.040    28.990     8.829
    56   6 C        3.057    -0.013    28.288     8.722
    57   6 C        2.912    -0.039    28.980     8.827
    58   6 C        2.917    -0.038    28.944     8.822
    59   6 C        2.923    -0.033    28.830     8.805
    60   6 C        2.909    -0.051    29.256     8.869
    61   6 C        3.086     0.048    26.820     8.489
    62   7 N        2.800    -0.034    21.906     6.951
    63   6 C        2.917     0.065    26.540     8.448
    64   6 C        2.921    -0.040    28.988     8.829
    65   6 C        2.920    -0.027    28.670     8.781
    66   6 C        2.919    -0.029    28.728     8.789
    67   6 C        2.920    -0.025    28.623     8.773
    68   6 C        2.922    -0.035    28.884     8.813
    69   1 H        0.926     0.028     2.619     2.531
    70   1 H        0.926     0.034     2.528     2.486
    71   1 H        0.926     0.034     2.536     2.490
    72   1 H        0.925     0.035     2.523     2.484
    73   1 H        0.925     0.037     2.490     2.468
    74   1 H        0.925     0.034     2.526     2.485
    75   1 H        0.925     0.037     2.491     2.468
    76   1 H        0.925     0.031     2.572     2.508
    77   1 H        0.925     0.039     2.467     2.456
    78   1 H        0.925     0.038     2.471     2.458
    79   1 H        0.925     0.031     2.569     2.507
    80   1 H        0.925     0.038     2.474     2.460
    81   1 H        0.926     0.045     2.389     2.417
    82   1 H        0.926     0.040     2.446     2.446
    83   1 H        0.926     0.039     2.466     2.456
    84   1 H        0.926     0.027     2.625     2.533
    85   1 H        0.926     0.028     2.620     2.531
    86   1 H        0.925     0.037     2.487     2.466
    87   1 H        0.925     0.035     2.513     2.479
    88   1 H        0.925     0.035     2.520     2.482
    89   1 H        0.925     0.038     2.469     2.457
    90   1 H        0.925     0.032     2.561     2.502
    91   1 H        0.925     0.035     2.512     2.479
    92   1 H        0.925     0.032     2.557     2.501
    93   1 H        0.925     0.035     2.511     2.478
    94   1 H        0.925     0.039     2.468     2.457
    95   1 H        0.926     0.037     2.490     2.468
    96   1 H        0.926     0.035     2.515     2.480
    97   1 H        0.926     0.035     2.517     2.481
    98   1 H        0.926     0.036     2.497     2.471
    99   1 H        0.926     0.032     2.553     2.499
   100   1 H        0.926     0.029     2.595     2.519
   101   1 H        0.926     0.036     2.500     2.473
   102   1 H        0.926     0.040     2.455     2.450
   103   1 H        0.926     0.042     2.425     2.435
   104   1 H        0.926     0.045     2.388     2.417
   105   1 H        0.926     0.044     2.397     2.421
   106   1 H        0.926     0.044     2.390     2.418
   107   1 H        0.926     0.045     2.379     2.412
   108   1 H        0.926     0.034     2.526     2.485
   109   1 H        0.926     0.033     2.550     2.497
   110   1 H        0.926     0.035     2.513     2.479
   111   1 H        0.926     0.036     2.507     2.476
   112   1 H        0.926     0.047     2.363     2.404
   113   1 H        0.926     0.045     2.384     2.414
   114   1 H        0.926     0.044     2.401     2.423
   115   1 H        0.926     0.043     2.412     2.429
   116   1 H        0.926     0.039     2.465     2.455

molecular dipole:
                 x           y           z       tot (Debye)
 q only:       -3.709       0.606      -0.050
   full:       -3.734       0.539      -0.034       9.591

 projected vibrational frequencies (cm⁻¹)
eigval :       -0.00    -0.00    -0.00     0.00     0.00     0.00
eigval :        4.20     9.04    13.00    17.92    21.46    24.78
eigval :       26.90    36.47    38.00    46.54    51.27    54.84
eigval :       60.47    63.26    70.01    73.23    76.76    78.83
eigval :       93.91    95.69   105.84   107.56   119.03   123.10
eigval :      126.89   138.74   151.44   156.68   170.76   174.30
eigval :      178.00   189.66   193.47   207.65   215.74   218.50
eigval :      221.55   223.09   228.51   231.91   234.19   241.68
eigval :      246.30   249.70   257.93   265.20   271.27   279.90
eigval :      285.05   301.84   312.75   314.15   319.15   327.08
eigval :      336.56   346.93   356.70   360.95   362.91   373.76
eigval :      377.21   378.21   378.76   379.88   384.36   389.69
eigval :      394.62   401.67   404.59   407.48   421.04   422.60
eigval :      425.71   438.57   441.53   444.48   446.88   466.47
eigval :      468.67   476.79   484.81   486.22   511.57   513.98
eigval :      517.25   526.89   535.37   538.09   548.47   552.33
eigval :      557.35   570.57   573.84   578.22   587.30   588.41
eigval :      591.17   591.78   598.94   603.98   607.38   612.59
eigval :      616.77   637.59   645.36   646.47   654.96   662.34
eigval :      668.41   670.95   671.31   682.22   691.98   692.60
eigval :      693.08   697.26   702.41   704.69   723.18   727.19
eigval :      745.74   762.31   763.72   764.83   765.78   768.96
eigval :      799.78   803.44   807.87   810.87   820.82   827.68
eigval :      829.70   838.72   844.35   847.78   856.51   861.94
eigval :      863.04   864.05   865.02   870.82   872.43   879.44
eigval :      884.73   890.07   895.54   897.07   898.07   898.34
eigval :      899.66   903.84   906.50   913.79   914.66   915.82
eigval :      917.65   927.96   929.76   932.30   933.61   933.74
eigval :      957.93   958.64   959.33   959.78   961.36   963.17
eigval :      964.18   972.66   982.49   989.62  1009.57  1017.23
eigval :     1027.80  1033.14  1034.24  1034.45  1034.64  1048.45
eigval :     1066.23  1071.23  1073.43  1075.74  1077.59  1078.74
eigval :     1085.21  1092.23  1114.10  1115.16  1123.70  1129.32
eigval :     1131.26  1137.30  1137.68  1141.15  1157.82  1170.02
eigval :     1173.80  1177.28  1178.37  1179.27  1181.14  1183.05
eigval :     1186.23  1188.31  1204.19  1206.38  1209.29  1213.09
eigval :     1223.45  1223.72  1224.13  1227.01  1227.72  1230.18
eigval :     1236.81  1241.80  1246.97  1255.90  1257.89  1269.49
eigval :     1270.65  1276.59  1277.38  1287.20  1289.06  1290.59
eigval :     1297.69  1311.83  1313.28  1313.46  1314.54  1323.67
eigval :     1326.39  1330.54  1337.64  1354.53  1358.91  1369.57
eigval :     1374.35  1377.48  1384.26  1396.81  1400.03  1401.03
eigval :     1401.23  1401.39  1402.41  1409.01  1410.96  1414.31
eigval :     1424.65  1425.61  1427.41  1431.45  1432.34  1438.91
eigval :     1446.39  1449.64  1456.65  1466.94  1469.53  1471.18
eigval :     1473.98  1476.23  1483.24  1487.37  1488.45  1491.72
eigval :     1492.38  1493.75  1497.27  1498.87  1500.93  1501.63
eigval :     1510.14  1510.95  1516.76  1518.14  1523.39  1529.28
eigval :     1539.83  1542.16  1543.83  1563.10  1564.89  1566.40
eigval :     1571.62  1573.37  1574.91  1580.37  1582.16  1589.97
eigval :     3017.25  3017.63  3018.60  3018.69  3022.26  3022.89
eigval :     3023.43  3023.76  3025.86  3026.25  3029.60  3030.69
eigval :     3034.09  3034.67  3043.99  3047.11  3047.28  3052.70
eigval :     3072.51  3073.86  3077.12  3078.54  3078.94  3079.94
eigval :     3080.25  3083.05  3083.38  3086.26  3086.67  3086.92
eigval :     3088.50  3089.00  3089.86  3093.05  3093.78  3097.17
eigval :     3097.51  3099.43  3100.03  3100.68  3100.91  3103.21
eigval :     3111.03  3113.77  3128.14  3139.50  3144.13  3146.35

   temp. (K)  partition function   enthalpy   heat capacity  entropy
                                   cal/mol     cal/K/mol   cal/K/mol   J/K/mol
 298.15  VIB  0.152E+27            34003.914    215.047    211.021
         ROT  0.224E+09              888.752      2.981     41.187
         INT  0.340E+35            34892.666    218.028    252.208
         TR   0.252E+29             1481.254      4.968     46.172
         TOT                       36373.9203   222.9964   298.3803  1248.4231

       T/K    H(0)-H(T)+PV         H(T)/Eh          T*S/Eh         G(T)/Eh
   ------------------------------------------------------------------------
    298.15    0.579655E-01    0.963408E+00    0.141770E+00    0.821637E+00
   ------------------------------------------------------------------------

         :::::::::::::::::::::::::::::::::::::::::::::::::::::
         ::                  THERMODYNAMIC                  ::
         :::::::::::::::::::::::::::::::::::::::::::::::::::::
         :: total free energy        -174.725474496903 Eh   ::
         ::.................................................::
         :: total energy             -175.547111981069 Eh   ::
         :: zero point energy           0.905442053568 Eh   ::
         :: G(RRHO) w/o ZPVE           -0.083804569401 Eh   ::
         :: G(RRHO) contrib.            0.821637484167 Eh   ::
         :::::::::::::::::::::::::::::::::::::::::::::::::::::

           -------------------------------------------------
          | TOTAL ENERGY             -175.547111981069 Eh   |
          | TOTAL ENTHALPY           -174.583704395832 Eh   |
          | TOTAL FREE ENERGY        -174.725474496903 Eh   |
          | GRADIENT NORM               0.000068592560 Eh/α |
          | HOMO-LUMO GAP               0.230103801620 eV   |
           -------------------------------------------------

 * finished run on 2025/06/07 at 03:17:30.364
