   * xtb version 6.7.1 (edcfbbe) compiled by 'albert@albert-system' on 2024-07-22

   ID    Z sym.   atoms
    1    5 B      1
    2    6 C      2-11, 13-18, 20-29, 31-48, 50-61, 63-68
    3    8 O      12, 19
    4    7 N      30, 49, 62
    5    1 H      69-116

          program call               : xtb data250606/toluene/TDBA-DI/TDBA-DI_toluene_S0_finalOpt.xtbopt.xyz --gfn 2 --uhf 2 --gbsa toluene --ohess vtight --parallel 14 --molden --ceasefiles --namespace data250606/toluene/TDBA-DI/TDBA-DI_toluene_T1_preOpt
      * Solvation model:               GBSA
        Solvent                        toluene
        Solvent mass                       9.2140E+01 g/mol
          :  Hamiltonian                  GFN2-xTB          :
 * total energy  :  -175.5453742 Eh     change       -0.2439114E-07 Eh
 * total energy  :  -175.5463103 Eh     change       -0.9360848E-03 Eh
 * total energy  :  -175.5466014 Eh     change       -0.2910387E-03 Eh
 * total energy  :  -175.5466360 Eh     change       -0.3467461E-04 Eh
 * total energy  :  -175.5466653 Eh     change       -0.2929908E-04 Eh
 * total energy  :  -175.5466780 Eh     change       -0.1272159E-04 Eh
 * total energy  :  -175.5466894 Eh     change       -0.1133143E-04 Eh
 * total energy  :  -175.5466962 Eh     change       -0.6815514E-05 Eh
 * total energy  :  -175.5467009 Eh     change       -0.4754946E-05 Eh
 * total energy  :  -175.5467064 Eh     change       -0.5429282E-05 Eh
 * total energy  :  -175.5467168 Eh     change       -0.1403187E-05 Eh
 * total energy  :  -175.5467179 Eh     change       -0.1071280E-05 Eh
 * total energy  :  -175.5467187 Eh     change       -0.8369354E-06 Eh
 * total energy  :  -175.5467193 Eh     change       -0.5720621E-06 Eh
 * total energy  :  -175.5467197 Eh     change       -0.4775084E-06 Eh
 * total energy  :  -175.5467202 Eh     change       -0.4198673E-06 Eh
 * total energy  :  -175.5467205 Eh     change       -0.3855232E-06 Eh
 * total energy  :  -175.5467209 Eh     change       -0.4034012E-06 Eh
 * total energy  :  -175.5467210 Eh     change       -0.1341945E-07 Eh
   *** GEOMETRY OPTIMIZATION CONVERGED AFTER 22 ITERATIONS ***

 final structure:
================
116
 xtb: 6.7.1 (edcfbbe)
B            4.38210862312020       -0.42710950616568       -0.22159890575343
C            4.69449862189799        0.96800370303574       -0.81511151667832
C            3.62500454227314        1.67294792329419       -1.40780706651331
C            3.81999290408354        2.91875528380921       -1.99538366492649
C            5.06841845851454        3.50883184262131       -1.98538679283155
C            6.15136795866143        2.87443982667883       -1.37228481589166
C            5.93326578969335        1.62765675680628       -0.80645447449638
C            7.50540616403102        3.56888133081830       -1.35411236711275
C            7.36698866965824        4.91471702642740       -0.62592144721366
C            8.58557292327083        2.75156325292019       -0.63917965653532
C            7.96592801783876        3.80649024603454       -2.80036832476012
O            2.33049279177057        1.22550531963226       -1.45759734226685
C            1.95113457061911        0.07886219312492       -0.83232467312511
C            0.59824036560965       -0.21420285693355       -0.83592934102289
C            0.14215988127613       -1.36981948012268       -0.19080746695459
C            1.05541920103780       -2.23415845259499        0.42363425849855
C            2.40690586374356       -1.92777273624977        0.39442968074071
C            2.90096879120522       -0.76316204863012       -0.22221890914372
O            3.24540649076089       -2.80325908681289        1.01496846549683
C            4.60632485945915       -2.64581887892348        0.96984491370509
C            5.26601811246824       -1.54742148374118        0.37702071591563
C            6.66870126022115       -1.60513160251503        0.37362678912642
C            7.40331360277404       -2.63154028130733        0.94616234551160
C            6.70048142500739       -3.67104852773186        1.56052850966269
C            5.31964377078409       -3.68186315999085        1.56374323354496
C            8.92460274497834       -2.66853679462356        0.93750446117597
C            9.43196602001586       -2.66436592858881        2.38762308091578
C            9.54570326294010       -1.47118707815642        0.21207858743917
C            9.39144190697114       -3.94905698242686        0.22856985026221
N           -1.22747469017771       -1.66050471285074       -0.16975836778231
C           -1.76748764912264       -2.79688231531355       -0.74804151165622
C           -1.10268690459006       -3.89881457607396       -1.25821030370965
C           -1.85593519053608       -4.88621552529773       -1.87204435015770
C           -3.23301767912801       -4.74810823752709       -2.00449121402516
C           -3.89718183927367       -3.63699200931696       -1.51751315785046
C           -3.17352523175576       -2.65160336177188       -0.84916117474314
C           -3.48932761418821       -1.37082058301414       -0.27979026839619
C           -4.65642797835366       -0.63081640607045       -0.07377040969116
C           -4.60754791684479        0.75416078567465        0.29589074064795
C           -3.34939219497658        1.32387392530884        0.56569178068725
C           -2.18698912074288        0.51218460192768        0.65070528588787
C           -2.24298218000473       -0.78915137365002        0.11413087481564
C           -1.16551670069354        1.32443605333529        1.23502624341516
C            0.11617532135183        1.08602524436225        1.73570386162113
C            0.85611624236290        2.14974201022525        2.20816115990454
C            0.34853784650861        3.44977262832147        2.19665249637323
C           -0.94324146686154        3.70481518550784        1.77813316911848
C           -1.70821804573568        2.63282465394696        1.34101659253100
N           -3.02435861484327        2.61259907429437        0.93249678881800
C           -3.75390459592754        3.77927799169799        0.64382140659157
C           -4.24063045589172        3.98540051069512       -0.64472745729368
C           -4.92717878173938        5.14750026559806       -0.94241066475096
C           -5.12508327771377        6.11115689597074        0.03417068006560
C           -4.63816908321573        5.90752332488875        1.31558028583527
C           -3.95428766799246        4.74543721383856        1.62606919507199
C           -5.96434813358835        1.19372310316900        0.40266997852016
C           -6.59259151841964        2.37282127606705        0.81403615170623
C           -7.97185595898180        2.42748909804083        0.84378994170139
C           -8.75018318511142        1.32618967784300        0.50117955583882
C           -8.15786886833083        0.12870500055717        0.13050551912986
C           -6.77650185934931        0.07613237180493        0.07835320280930
N           -5.96851507588118       -1.01005516689951       -0.20591731569434
C           -6.47151693467903       -2.32387339592859       -0.25416084341186
C           -7.40649786822865       -2.67730505970050       -1.22276471388082
C           -7.92974232593226       -3.95807711006226       -1.23685546808290
C           -7.52667062013033       -4.88742778545557       -0.29117282441842
C           -6.59527863350321       -4.53427859509670        0.67268462717783
C           -6.06922626665579       -3.25619259719787        0.69825026263576
H            2.97361891412859        3.41481954680268       -2.44806730678266
H            5.18532296246087        4.47565712039266       -2.45023467327488
H            6.74614701098425        1.12380045095917       -0.31514328647964
H            6.65673942482836        5.56594733892036       -1.12789004192730
H            8.32920737782367        5.42181251125649       -0.59033340335977
H            7.02135602007274        4.75553831333928        0.39379727232503
H            8.74676780765012        1.79812536331872       -1.13632500329246
H            8.31677689766391        2.57318386909288        0.39957544455225
H            9.52492843644126        3.30125601575096       -0.65424859232680
H            8.94095576936332        4.28976194709141       -2.80879668452209
H            7.26691237565369        4.43976885669049       -3.33979023714364
H            8.04458525093107        2.85849433927855       -3.32927934145660
H           -0.09301585237142        0.44923881839022       -1.33073556537913
H            0.71625335460956       -3.11369595554838        0.94873444531005
H            7.18420122270619       -0.80067076645106       -0.11933367710009
H            7.22358731099382       -4.48866919638660        2.03199954523851
H            4.77100775165280       -4.49430703608680        2.01806095266429
H           10.52003027987696       -2.67537469685697        2.40433111034115
H            9.08651616326823       -1.77022027185722        2.90311209459635
H            9.07353117862559       -3.53196205892701        2.93491577843166
H           10.63047929312220       -1.55804983353895        0.23253587949877
H            9.27470102651338       -0.53692814902397        0.69780293270815
H            9.23020590742299       -1.43883524622465       -0.82835568534866
H            9.03240993517630       -4.83865669018163        0.73872353119029
H            9.01880378302682       -3.96917460199015       -0.79389684815962
H           10.47870436329135       -3.98687755932015        0.20159339629612
H           -0.02833084523461       -3.97661192794462       -1.19792900100129
H           -1.36293071998706       -5.75924587195012       -2.27252487610813
H           -3.79610890634981       -5.51626760861834       -2.51353581787017
H           -4.95562683368807       -3.53860355388905       -1.68086838927591
H            0.51975392414755        0.08867490216251        1.77878827582425
H            1.85196322928520        1.97440808182218        2.58807353790419
H            0.96752142445338        4.26424725677406        2.54185771002181
H           -1.34178301520074        4.70725564033170        1.79349391599475
H           -4.07742305074696        3.23146608009682       -1.40019465791402
H           -5.30435550160410        5.30357110324904       -1.94190356708618
H           -5.65918545681196        7.01883743417164       -0.20263538008963
H           -4.79685654122800        6.65322497663494        2.08037235585844
H           -3.59621030128945        4.56923415212843        2.62931859547416
H           -6.02133985214733        3.22942846208599        1.12245143847750
H           -8.45547693040403        3.34232797590920        1.15297369045888
H           -9.82665671427407        1.39647787768267        0.54224978514946
H           -8.75893903177892       -0.73881313664388       -0.09307759269424
H           -7.70078457209414       -1.95449772312303       -1.96918462753247
H           -8.65071359125184       -4.23176973335585       -1.99286456392330
H           -7.93684240703977       -5.88584088606738       -0.30639779231618
H           -6.28016569799181       -5.25575522982506        1.41146665071852
H           -5.34655212434584       -2.97196148852400        1.44823839688035

          :  Hamiltonian                  GFN2-xTB          :
         :: gradient norm              0.000069326857 Eh/a0 ::
         :: HOMO-LUMO gap              0.128856657495 eV    ::
         :: SCC energy              -178.603265415644 Eh    ::
         :: -> dispersion             -0.175190345042 Eh    ::
         :: -> Gsolv                  -0.067046595038 Eh    ::
         :: repulsion energy           3.056544455072 Eh    ::

    * Orbital Energies and Occupations

         #    Occupation            Energy/Eh            Energy/eV
      -------------------------------------------------------------
         1        2.0000           -0.7194197             -19.5764
       ...           ...                  ...                  ...
       152        2.0000           -0.3992530             -10.8642
       153        2.0000           -0.3973987             -10.8138
       154        2.0000           -0.3962449             -10.7824
       155        2.0000           -0.3900216             -10.6130
       156        2.0000           -0.3863263             -10.5125
       157        2.0000           -0.3777521             -10.2792
       158        2.0000           -0.3774776             -10.2717
       159        2.0000           -0.3739720             -10.1763
       160        2.0000           -0.3712702             -10.1028
       161        1.9123           -0.3603518              -9.8057
       162        1.6268           -0.3586197              -9.7585
       163        1.4609           -0.3579778              -9.7411
       164        0.9228           -0.2590132              -7.0481 (HOMO)
       165        0.0756           -0.2542769              -6.9192 (LUMO)
       166        0.0016           -0.2505207              -6.8170
       167                         -0.2375340              -6.4636
       168                         -0.2354984              -6.4082
       169                         -0.2343625              -6.3773
       170                         -0.2342760              -6.3750
       171                         -0.2314745              -6.2987
       172                         -0.2240255              -6.0960
       173                         -0.2229765              -6.0675
       174                         -0.2089543              -5.6859
       175                         -0.2086253              -5.6770
       ...                                ...                  ...
       320                          0.7663391              20.8531
      -------------------------------------------------------------
                  HL-Gap            0.0047364 Eh            0.1289 eV

     #   Z          covCN         q      C6AA      α(0)
     1   5 B        2.723     0.166    18.882     7.282
     2   6 C        2.880    -0.091    30.289     9.022
     3   6 C        2.873     0.129    25.169     8.224
     4   6 C        2.912    -0.063    29.558     8.915
     5   6 C        2.925    -0.044    29.101     8.847
     6   6 C        2.968     0.001    28.006     8.680
     7   6 C        2.929    -0.056    29.385     8.890
     8   6 C        3.902     0.025    20.106     6.374
     9   6 C        3.761    -0.104    22.540     6.768
    10   6 C        3.761    -0.107    22.583     6.774
    11   6 C        3.761    -0.104    22.542     6.768
    12   8 O        1.711    -0.252    18.181     5.757
    13   6 C        2.870     0.130    25.148     8.220
    14   6 C        2.913    -0.075    29.867     8.962
    15   6 C        2.915     0.041    27.074     8.532
    16   6 C        2.913    -0.078    29.940     8.972
    17   6 C        2.870     0.128    25.199     8.229
    18   6 C        2.886    -0.127    31.226     9.161
    19   8 O        1.711    -0.254    18.206     5.761
    20   6 C        2.873     0.129    25.177     8.225
    21   6 C        2.880    -0.091    30.285     9.022
    22   6 C        2.929    -0.056    29.392     8.891
    23   6 C        2.968     0.001    28.007     8.681
    24   6 C        2.925    -0.044    29.100     8.847
    25   6 C        2.912    -0.063    29.574     8.917
    26   6 C        3.902     0.025    20.107     6.374
    27   6 C        3.761    -0.104    22.540     6.768
    28   6 C        3.761    -0.107    22.584     6.774
    29   6 C        3.761    -0.104    22.540     6.768
    30   7 N        2.798    -0.015    21.541     6.893
    31   6 C        3.083     0.046    26.890     8.501
    32   6 C        2.910    -0.046    29.138     8.851
    33   6 C        2.922    -0.035    28.859     8.810
    34   6 C        2.918    -0.037    28.916     8.818
    35   6 C        2.914    -0.039    28.973     8.826
    36   6 C        3.053    -0.012    28.259     8.718
    37   6 C        3.048    -0.040    28.942     8.823
    38   6 C        3.054     0.045    26.934     8.511
    39   6 C        3.050    -0.033    28.782     8.799
    40   6 C        3.062     0.039    27.057     8.530
    41   6 C        3.053    -0.036    28.851     8.809
    42   6 C        3.060     0.038    27.095     8.536
    43   6 C        3.063    -0.010    28.197     8.708
    44   6 C        2.912    -0.035    28.874     8.811
    45   6 C        2.918    -0.036    28.907     8.817
    46   6 C        2.923    -0.033    28.815     8.803
    47   6 C        2.909    -0.049    29.223     8.864
    48   6 C        3.083     0.047    26.853     8.495
    49   7 N        2.802    -0.027    21.771     6.930
    50   6 C        2.916     0.065    26.542     8.448
    51   6 C        2.922    -0.037    28.910     8.817
    52   6 C        2.919    -0.025    28.630     8.774
    53   6 C        2.919    -0.030    28.750     8.793
    54   6 C        2.919    -0.027    28.667     8.780
    55   6 C        2.921    -0.040    29.006     8.832
    56   6 C        3.052    -0.013    28.295     8.724
    57   6 C        2.913    -0.040    29.005     8.831
    58   6 C        2.917    -0.038    28.954     8.824
    59   6 C        2.922    -0.033    28.834     8.806
    60   6 C        2.909    -0.051    29.255     8.869
    61   6 C        3.080     0.047    26.849     8.495
    62   7 N        2.798    -0.032    21.852     6.943
    63   6 C        2.917     0.064    26.557     8.451
    64   6 C        2.921    -0.041    29.007     8.832
    65   6 C        2.919    -0.027    28.678     8.782
    66   6 C        2.919    -0.030    28.757     8.794
    67   6 C        2.920    -0.025    28.633     8.775
    68   6 C        2.921    -0.036    28.908     8.817
    69   1 H        0.926     0.027     2.627     2.534
    70   1 H        0.926     0.027     2.627     2.535
    71   1 H        0.926     0.041     2.434     2.440
    72   1 H        0.925     0.035     2.511     2.478
    73   1 H        0.925     0.039     2.468     2.457
    74   1 H        0.925     0.032     2.560     2.502
    75   1 H        0.925     0.037     2.486     2.466
    76   1 H        0.925     0.035     2.512     2.479
    77   1 H        0.925     0.037     2.488     2.467
    78   1 H        0.925     0.039     2.468     2.457
    79   1 H        0.925     0.035     2.513     2.479
    80   1 H        0.925     0.032     2.555     2.500
    81   1 H        0.926     0.040     2.452     2.449
    82   1 H        0.926     0.046     2.376     2.410
    83   1 H        0.926     0.041     2.436     2.441
    84   1 H        0.926     0.027     2.631     2.536
    85   1 H        0.926     0.028     2.622     2.532
    86   1 H        0.925     0.039     2.468     2.457
    87   1 H        0.925     0.032     2.553     2.498
    88   1 H        0.925     0.035     2.514     2.480
    89   1 H        0.925     0.037     2.489     2.467
    90   1 H        0.925     0.037     2.483     2.464
    91   1 H        0.925     0.035     2.513     2.479
    92   1 H        0.925     0.035     2.513     2.479
    93   1 H        0.925     0.032     2.563     2.504
    94   1 H        0.925     0.038     2.470     2.458
    95   1 H        0.926     0.036     2.508     2.477
    96   1 H        0.926     0.035     2.516     2.480
    97   1 H        0.926     0.035     2.516     2.481
    98   1 H        0.926     0.038     2.476     2.461
    99   1 H        0.926     0.030     2.580     2.512
   100   1 H        0.926     0.028     2.610     2.526
   101   1 H        0.926     0.036     2.509     2.477
   102   1 H        0.926     0.039     2.456     2.451
   103   1 H        0.926     0.041     2.439     2.442
   104   1 H        0.926     0.044     2.397     2.421
   105   1 H        0.926     0.043     2.404     2.425
   106   1 H        0.926     0.044     2.392     2.419
   107   1 H        0.926     0.046     2.368     2.406
   108   1 H        0.926     0.036     2.507     2.476
   109   1 H        0.926     0.032     2.551     2.498
   110   1 H        0.926     0.035     2.516     2.480
   111   1 H        0.926     0.036     2.497     2.471
   112   1 H        0.926     0.046     2.373     2.409
   113   1 H        0.926     0.044     2.401     2.423
   114   1 H        0.926     0.042     2.417     2.431
   115   1 H        0.926     0.043     2.416     2.430
   116   1 H        0.926     0.040     2.450     2.448

molecular dipole:
                 x           y           z       tot (Debye)
 q only:       -3.409       0.749       0.093
   full:       -3.452       0.678       0.090       8.945

 projected vibrational frequencies (cm⁻¹)
eigval :       -0.00    -0.00    -0.00     0.00     0.00     0.00
eigval :        8.74    10.11    11.27    20.53    24.96    28.82
eigval :       30.61    36.84    39.80    44.41    47.15    54.22
eigval :       59.72    62.20    69.18    73.14    77.70    81.88
eigval :       92.76    94.79   107.19   114.55   121.35   123.07
eigval :      137.94   139.42   151.11   153.92   169.21   172.43
eigval :      176.47   191.41   195.67   207.76   212.50   219.62
eigval :      221.52   223.17   225.22   228.89   229.70   239.90
eigval :      248.99   251.48   256.83   265.36   268.10   276.77
eigval :      289.39   298.79   315.09   317.00   326.34   329.28
eigval :      335.85   344.53   355.05   361.23   361.99   368.85
eigval :      374.77   378.01   378.35   382.04   385.86   387.75
eigval :      394.30   400.39   405.59   409.15   419.42   421.43
eigval :      424.66   438.65   439.15   441.98   449.12   467.34
eigval :      472.75   478.16   483.69   485.57   510.74   513.10
eigval :      515.26   528.29   533.73   537.94   550.18   550.93
eigval :      558.94   570.51   575.14   578.07   585.67   588.29
eigval :      591.79   594.73   595.99   605.47   610.47   613.47
eigval :      617.55   637.80   645.88   647.38   655.12   664.01
eigval :      668.67   669.09   671.00   683.15   691.97   693.21
eigval :      695.03   697.22   701.86   703.36   722.86   726.47
eigval :      747.00   760.80   762.92   764.20   768.46   769.58
eigval :      802.07   809.25   812.72   816.11   816.53   820.66
eigval :      829.82   841.75   845.05   852.51   855.51   856.38
eigval :      862.96   867.29   868.38   870.47   873.71   877.36
eigval :      884.66   890.55   891.75   896.66   898.19   900.85
eigval :      900.93   902.82   906.51   908.49   914.89   917.39
eigval :      923.35   927.25   929.11   930.44   933.71   935.01
eigval :      956.94   958.12   958.82   959.35   961.25   961.70
eigval :      962.60   964.67   978.26   989.85   991.38  1012.62
eigval :     1016.75  1032.50  1032.79  1034.24  1034.95  1046.73
eigval :     1066.49  1070.34  1073.05  1075.90  1076.18  1078.34
eigval :     1085.33  1089.65  1114.01  1115.04  1121.78  1127.83
eigval :     1130.54  1135.73  1137.72  1143.60  1144.97  1170.23
eigval :     1171.15  1176.63  1177.17  1178.77  1180.96  1183.49
eigval :     1184.98  1186.25  1201.17  1202.98  1206.56  1210.93
eigval :     1223.08  1223.25  1223.62  1226.52  1227.09  1228.84
eigval :     1232.10  1243.58  1244.66  1253.48  1259.41  1269.71
eigval :     1270.74  1277.60  1278.18  1286.35  1288.79  1290.12
eigval :     1291.85  1310.14  1312.67  1313.38  1313.90  1319.04
eigval :     1325.57  1328.74  1338.80  1353.75  1359.74  1365.09
eigval :     1373.09  1375.10  1382.74  1394.59  1400.25  1400.49
eigval :     1400.99  1401.27  1403.08  1406.63  1411.19  1418.58
eigval :     1423.98  1424.96  1425.59  1428.41  1431.91  1433.04
eigval :     1443.17  1449.03  1456.74  1463.96  1469.29  1470.49
eigval :     1472.05  1472.46  1480.16  1487.62  1487.68  1491.59
eigval :     1492.29  1492.43  1497.68  1499.66  1500.45  1500.60
eigval :     1509.88  1510.63  1514.68  1518.06  1518.84  1523.25
eigval :     1538.72  1541.64  1548.90  1550.75  1560.61  1564.52
eigval :     1569.60  1571.22  1572.22  1575.51  1580.52  1583.72
eigval :     3017.18  3017.93  3018.37  3018.50  3022.90  3023.46
eigval :     3023.62  3023.77  3026.17  3026.68  3031.41  3032.06
eigval :     3036.10  3037.52  3043.38  3043.42  3046.42  3046.81
eigval :     3072.21  3072.32  3077.55  3078.18  3079.74  3079.81
eigval :     3080.44  3082.25  3082.48  3086.16  3086.78  3087.64
eigval :     3087.89  3088.93  3089.64  3090.12  3093.47  3093.71
eigval :     3096.83  3098.13  3098.69  3099.29  3100.21  3100.32
eigval :     3102.56  3124.46  3139.81  3145.68  3146.60  3155.98

   temp. (K)  partition function   enthalpy   heat capacity  entropy
                                   cal/mol     cal/K/mol   cal/K/mol   J/K/mol
 298.15  VIB  0.447E+26            33981.958    215.177    209.819
         ROT  0.219E+09              888.752      2.981     41.149
         INT  0.981E+34            34870.710    218.158    250.968
         TR   0.252E+29             1481.254      4.968     46.172
         TOT                       36351.9642   223.1262   297.1405  1243.2361

       T/K    H(0)-H(T)+PV         H(T)/Eh          T*S/Eh         G(T)/Eh
   ------------------------------------------------------------------------
    298.15    0.579305E-01    0.963013E+00    0.141181E+00    0.821832E+00
   ------------------------------------------------------------------------

         :::::::::::::::::::::::::::::::::::::::::::::::::::::
         ::                  THERMODYNAMIC                  ::
         :::::::::::::::::::::::::::::::::::::::::::::::::::::
         :: total free energy        -174.724888638170 Eh   ::
         ::.................................................::
         :: total energy             -175.546720954212 Eh   ::
         :: zero point energy           0.905082836175 Eh   ::
         :: G(RRHO) w/o ZPVE           -0.083250520133 Eh   ::
         :: G(RRHO) contrib.            0.821832316043 Eh   ::
         :::::::::::::::::::::::::::::::::::::::::::::::::::::

           -------------------------------------------------
          | TOTAL ENERGY             -175.546720954212 Eh   |
          | TOTAL ENTHALPY           -174.583707575651 Eh   |
          | TOTAL FREE ENERGY        -174.724888638170 Eh   |
          | GRADIENT NORM               0.000072046228 Eh/α |
          | HOMO-LUMO GAP               0.128882977109 eV   |
           -------------------------------------------------

 * finished run on 2025/06/07 at 02:31:53.584
