   * xtb version 6.7.1 (edcfbbe) compiled by 'albert@albert-system' on 2024-07-22

   ID    Z sym.   atoms
    1    5 B      1
    2    6 C      2-11, 13-18, 20-29, 31-48, 50-61, 63-68
    3    8 O      12, 19
    4    7 N      30, 49, 62
    5    1 H      69-116

          program call               : xtb data250606/toluene/TDBA-DI/TDBA-DI.xyz --gfn 2 --gbsa toluene --ohess vtight --parallel 14 --molden --ceasefiles --namespace data250606/toluene/TDBA-DI/TDBA-DI_toluene_S0_preOpt
      * Solvation model:               GBSA
        Solvent                        toluene
        Solvent mass                       9.2140E+01 g/mol
          :  Hamiltonian                  GFN2-xTB          :
 * total energy  :  -175.5015858 Eh     change       -0.4369610E-08 Eh
 * total energy  :  -175.5749730 Eh     change       -0.7338722E-01 Eh
 * total energy  :  -175.6025177 Eh     change       -0.2754472E-01 Eh
 * total energy  :  -175.6115147 Eh     change       -0.8997004E-02 Eh
 * total energy  :  -175.6158642 Eh     change       -0.4349506E-02 Eh
 * total energy  :  -175.6188822 Eh     change       -0.3017968E-02 Eh
 * total energy  :  -175.6214518 Eh     change       -0.2569564E-02 Eh
 * total energy  :  -175.6238451 Eh     change       -0.2393318E-02 Eh
 * total energy  :  -175.6259646 Eh     change       -0.2119575E-02 Eh
 * total energy  :  -175.6276777 Eh     change       -0.1713028E-02 Eh
 * total energy  :  -175.6393424 Eh     change       -0.2992360E-06 Eh
 * total energy  :  -175.6393428 Eh     change       -0.4030729E-06 Eh
 * total energy  :  -175.6393433 Eh     change       -0.5719140E-06 Eh
 * total energy  :  -175.6393439 Eh     change       -0.5931818E-06 Eh
 * total energy  :  -175.6393445 Eh     change       -0.5737181E-06 Eh
 * total energy  :  -175.6393450 Eh     change       -0.4933425E-06 Eh
 * total energy  :  -175.6393454 Eh     change       -0.4364394E-06 Eh
 * total energy  :  -175.6393458 Eh     change       -0.4069883E-06 Eh
 * total energy  :  -175.6393458 Eh     change       -0.1752198E-08 Eh
   *** GEOMETRY OPTIMIZATION CONVERGED AFTER 221 ITERATIONS ***

 final structure:
================
116
 xtb: 6.7.1 (edcfbbe)
B            3.70774888035253       -0.43822103147180        0.17124581552911
C            4.08118138583036        0.01190748437622       -1.26318904451552
C            3.01965944463197        0.23450776668205       -2.15939579997913
C            3.26461326573212        0.68203734295165       -3.45635126574878
C            4.55387752965301        0.88411248963486       -3.89619373685999
C            5.64224373145948        0.63122353186054       -3.06038444497602
C            5.37178366904537        0.20540533946944       -1.77014182845225
C            7.08646878937548        0.79799350471443       -3.51235292077400
C            7.79487555004521       -0.56228263101536       -3.42592829803908
C            7.19861858149222        1.30386415573469       -4.95379432231978
C            7.78899778964868        1.81072078561760       -2.59609497672334
O            1.69887022314466        0.03333026340785       -1.86988404912518
C            1.30497496485076       -0.49636618337183       -0.69160406416027
C           -0.04757742169850       -0.77513318563432       -0.54362772577415
C           -0.50518898147294       -1.31036577819277        0.65535866836671
C            0.37674327723531       -1.58692522258833        1.69433402541767
C            1.72767626209398       -1.30439571905600        1.52936404028758
C            2.22362960754356       -0.75320212921949        0.33804534062204
O            2.54409539639667       -1.57761314131260        2.57183179710513
C            3.86330208484417       -1.21991693321963        2.56189212422650
C            4.52841028884120       -0.63678200809300        1.47025436794266
C            5.87009617351020       -0.27819187204439        1.67296271244061
C            6.55514010860936       -0.50348750893722        2.85167388923369
C            5.85997093770053       -1.12645957894022        3.89374921818072
C            4.53735162040863       -1.47283697393101        3.75743201492037
C            8.00983141376661       -0.10719289815249        3.06024594660935
C            8.62406447567876        0.56150491332646        1.82676896347319
C            8.83041829800239       -1.36561221481713        3.38023965235754
C            8.09505472150749        0.88146312809506        4.23266710035295
N           -1.86951227272367       -1.59789701031488        0.80338703551349
C           -2.34992565797489       -2.88291921762848        0.97027885776405
C           -1.64105102492636       -4.03672679001270        1.26798374110650
C           -2.33423621066903       -5.23001652281710        1.31885700526312
C           -3.69762047333100       -5.27159956715925        1.04375648406550
C           -4.40098162635565       -4.12744711518963        0.72419437131307
C           -3.74025004329799       -2.90178716072168        0.70842436224706
C           -4.10811226984089       -1.54937042231077        0.37600724537049
C           -5.28358585196882       -0.91465338264404       -0.06002910934877
C           -5.24872356878146        0.39859572762510       -0.58766442375704
C           -4.09491715929524        1.16863650656806       -0.37199203155154
C           -2.92449764437639        0.59590080586919        0.17950768669899
C           -2.91985484536167       -0.78466201781615        0.43445887249532
C           -1.98231899165153        1.66900105454399        0.35114176262117
C           -0.73792296094430        1.79984626032401        0.96312880116109
C           -0.12308941558229        3.03558983894838        0.98379709233328
C           -0.73643080841265        4.15852747374735        0.43529181466295
C           -1.99666599296192        4.07318117378115       -0.12241668654253
C           -2.60930321653810        2.82946172461920       -0.15961579486007
N           -3.88036920129942        2.51063712197590       -0.59740575545281
C           -4.85344168093175        3.50239271735852       -0.82748902207769
C           -4.68997051660318        4.40781041944333       -1.87058072086045
C           -5.62557583530494        5.40867167486448       -2.06542798774606
C           -6.72263712270208        5.51094151360936       -1.22577074552374
C           -6.88321379901601        4.61068113872607       -0.18496624573505
C           -5.95085796730192        3.61076916861173        0.02076566079283
C           -6.53533362927723        0.63115006720904       -1.18677335270313
C           -7.07455005805315        1.62447848992886       -1.99978488426894
C           -8.39257238964489        1.52489399616335       -2.39770407369456
C           -9.18852776011996        0.45529428960133       -1.99757810054733
C           -8.66306568845120       -0.57542920563070       -1.24292690628244
C           -7.32703546787953       -0.50043012158936       -0.87868725368419
N           -6.55912342460993       -1.42349349345425       -0.19470253491317
C           -7.11291600755928       -2.49734412104319        0.52327307715299
C           -7.87860781444527       -3.46036509878329       -0.12737467451865
C           -8.45490189098321       -4.48719956317397        0.59965710219365
C           -8.26866107866079       -4.56335738290339        1.97034057900281
C           -7.50080775234942       -3.60836300483277        2.61725200272880
C           -6.92842617582105       -2.57358653272400        1.90128768995672
H            2.42119242274122        0.85441556023916       -4.10841510352638
H            4.69929621284328        1.22820352007898       -4.90676595699823
H            6.19594977515157       -0.01164394482073       -1.11174480625388
H            7.78687414769990       -0.95029916804861       -2.41126683006857
H            8.82987058652272       -0.46633803575232       -3.74748691532186
H            7.29883770616254       -1.28609864139331       -4.06985543082585
H            6.72582327089974        2.27710183142690       -5.06517285080183
H            6.74550860525404        0.60396597367201       -5.65230796381240
H            8.24879730362018        1.40864256720568       -5.21942410615544
H            8.81511385056834        1.96284057106295       -2.92417476868024
H            7.80983076575650        1.46653822358880       -1.56657541897623
H            7.27114002701518        2.76741769332682       -2.62630028238283
H           -0.73103131089957       -0.56888519026320       -1.35134756838334
H            0.02147871008798       -1.98307193113140        2.63234370008802
H            6.36856525593248        0.21471457300270        0.85796032022801
H            6.35241343371372       -1.33356609249682        4.83137057173383
H            3.99319827811555       -1.93403362116925        4.56826796789383
H            9.65813899896060        0.82740790963009        2.03703467298321
H            8.61971002869238       -0.11445016593338        0.97495622313649
H            8.08989629963455        1.47295466350794        1.56817143457580
H            9.87810386856459       -1.10429641195175        3.51400011473780
H            8.75447640191348       -2.08245690430249        2.56480872266662
H            8.48212349030692       -1.84688804521961        4.28991276371020
H            7.49934571320602        1.76760372517292        4.02185569868428
H            7.72987082925124        0.43742869818699        5.15465689614015
H            9.12715134908943        1.18858269081197        4.38865420559831
H           -0.57544855699114       -4.00748195985027        1.43628978235690
H           -1.80753798360148       -6.14298470257793        1.55516010346215
H           -4.21431475917758       -6.22009586741964        1.06470920712813
H           -5.44476932039239       -4.20157738558226        0.47624486527595
H           -0.26114930191866        0.96169143130536        1.44200590128057
H            0.84757483234904        3.13503276935931        1.44832911419165
H           -0.23190322472949        5.11295542056746        0.47077886110572
H           -2.49676051220972        4.95208901093751       -0.50016566442352
H           -3.83986834318527        4.31199535845278       -2.53023041442076
H           -5.49900222271355        6.10732341001089       -2.87945605624433
H           -7.45151137457300        6.29187342999177       -1.38255769185279
H           -7.73624519592044        4.68890221521429        0.47249398994629
H           -6.06610781560171        2.90750454751627        0.83198358296550
H           -6.47476611175522        2.45195190310562       -2.33883674317834
H           -8.81471073605940        2.29376401148260       -3.02839460340350
H          -10.22497603286521        0.41859497611500       -2.29975888591892
H           -9.27610295588493       -1.41447956779095       -0.95156207662306
H           -7.99691186049133       -3.41276720264315       -1.19973414478824
H           -9.04531039631051       -5.23499050662272        0.09079564827039
H           -8.71816739873007       -5.36791286278566        2.53277385600052
H           -7.35122717129039       -3.66580882151507        3.68519388280662
H           -6.32979735099998       -1.82426778414903        2.39775605591910

          :  Hamiltonian                  GFN2-xTB          :
         :: gradient norm              0.000035708128 Eh/a0 ::
         :: HOMO-LUMO gap              2.093992835401 eV    ::
         :: SCC energy              -178.713616100365 Eh    ::
         :: -> dispersion             -0.174753037285 Eh    ::
         :: -> Gsolv                  -0.064813421684 Eh    ::
         :: repulsion energy           3.074270257579 Eh    ::

    * Orbital Energies and Occupations

         #    Occupation            Energy/Eh            Energy/eV
      -------------------------------------------------------------
         1        2.0000           -0.7327330             -19.9387
       ...           ...                  ...                  ...
       151        2.0000           -0.4032030             -10.9717
       152        2.0000           -0.4021680             -10.9435
       153        2.0000           -0.4008991             -10.9090
       154        2.0000           -0.3935924             -10.7102
       155        2.0000           -0.3920428             -10.6680
       156        2.0000           -0.3890097             -10.5855
       157        2.0000           -0.3884671             -10.5707
       158        2.0000           -0.3882096             -10.5637
       159        2.0000           -0.3836481             -10.4396
       160        2.0000           -0.3698360             -10.0638
       161        2.0000           -0.3688872             -10.0379
       162        2.0000           -0.3504284              -9.5356
       163        2.0000           -0.3497941              -9.5184 (HOMO)
       164                         -0.2728413              -7.4244 (LUMO)
       165                         -0.2443568              -6.6493
       166                         -0.2429938              -6.6122
       167                         -0.2351525              -6.3988
       168                         -0.2325033              -6.3267
       169                         -0.2309643              -6.2849
       170                         -0.2304861              -6.2718
       171                         -0.2290838              -6.2337
       172                         -0.2283732              -6.2144
       173                         -0.2226446              -6.0585
       174                         -0.2208041              -6.0084
       ...                                ...                  ...
       320                          0.7772531              21.1501
      -------------------------------------------------------------
                  HL-Gap            0.0769528 Eh            2.0940 eV

     #   Z          covCN         q      C6AA      α(0)
     1   5 B        2.723     0.212    18.206     7.150
     2   6 C        2.881    -0.092    30.308     9.025
     3   6 C        2.877     0.132    25.108     8.214
     4   6 C        2.913    -0.057    29.406     8.892
     5   6 C        2.925    -0.036    28.891     8.815
     6   6 C        2.969     0.002    27.973     8.675
     7   6 C        2.933    -0.040    28.990     8.830
     8   6 C        3.902     0.026    20.089     6.371
     9   6 C        3.761    -0.107    22.588     6.775
    10   6 C        3.761    -0.109    22.625     6.781
    11   6 C        3.761    -0.107    22.599     6.777
    12   8 O        1.711    -0.237    17.925     5.716
    13   6 C        2.874     0.141    24.917     8.183
    14   6 C        2.917    -0.079    29.963     8.976
    15   6 C        2.918     0.074    26.356     8.419
    16   6 C        2.916    -0.083    30.090     8.995
    17   6 C        2.873     0.139    24.960     8.190
    18   6 C        2.887    -0.126    31.215     9.160
    19   8 O        1.711    -0.237    17.934     5.718
    20   6 C        2.877     0.132    25.109     8.214
    21   6 C        2.882    -0.092    30.310     9.026
    22   6 C        2.930    -0.044    29.092     8.846
    23   6 C        2.968     0.002    27.973     8.675
    24   6 C        2.928    -0.031    28.784     8.798
    25   6 C        2.913    -0.056    29.398     8.891
    26   6 C        3.902     0.025    20.090     6.371
    27   6 C        3.761    -0.108    22.619     6.780
    28   6 C        3.761    -0.107    22.582     6.774
    29   6 C        3.761    -0.106    22.581     6.774
    30   7 N        2.803    -0.044    22.096     6.981
    31   6 C        3.081     0.045    26.910     8.504
    32   6 C        2.911    -0.053    29.323     8.879
    33   6 C        2.923    -0.038    28.938     8.822
    34   6 C        2.919    -0.043    29.073     8.842
    35   6 C        2.915    -0.043    29.068     8.841
    36   6 C        3.060    -0.015    28.327     8.728
    37   6 C        3.052    -0.047    29.105     8.848
    38   6 C        3.064     0.042    26.988     8.519
    39   6 C        3.054    -0.047    29.117     8.849
    40   6 C        3.063     0.043    26.972     8.516
    41   6 C        3.056    -0.048    29.131     8.851
    42   6 C        3.064     0.042    26.993     8.520
    43   6 C        3.059    -0.016    28.342     8.730
    44   6 C        2.914    -0.042    29.053     8.839
    45   6 C        2.919    -0.044    29.090     8.845
    46   6 C        2.923    -0.038    28.947     8.823
    47   6 C        2.910    -0.053    29.326     8.880
    48   6 C        3.085     0.045    26.887     8.500
    49   7 N        2.802    -0.050    22.196     6.997
    50   6 C        2.917     0.069    26.451     8.434
    51   6 C        2.922    -0.041    29.019     8.834
    52   6 C        2.920    -0.028    28.705     8.786
    53   6 C        2.919    -0.031    28.781     8.798
    54   6 C        2.920    -0.026    28.655     8.778
    55   6 C        2.922    -0.036    28.901     8.816
    56   6 C        3.062    -0.016    28.347     8.731
    57   6 C        2.914    -0.041    29.024     8.834
    58   6 C        2.919    -0.044    29.082     8.843
    59   6 C        2.923    -0.038    28.945     8.823
    60   6 C        2.910    -0.054    29.329     8.880
    61   6 C        3.080     0.045    26.908     8.504
    62   7 N        2.802    -0.048    22.162     6.992
    63   6 C        2.915     0.069    26.453     8.434
    64   6 C        2.921    -0.042    29.039     8.837
    65   6 C        2.920    -0.028    28.706     8.786
    66   6 C        2.919    -0.032    28.799     8.800
    67   6 C        2.919    -0.026    28.664     8.780
    68   6 C        2.922    -0.038    28.942     8.822
    69   1 H        0.926     0.039     2.458     2.452
    70   1 H        0.926     0.047     2.355     2.400
    71   1 H        0.926     0.048     2.349     2.397
    72   1 H        0.925     0.039     2.467     2.456
    73   1 H        0.925     0.041     2.438     2.442
    74   1 H        0.925     0.033     2.551     2.498
    75   1 H        0.925     0.036     2.499     2.472
    76   1 H        0.925     0.036     2.506     2.475
    77   1 H        0.925     0.039     2.462     2.454
    78   1 H        0.925     0.041     2.442     2.444
    79   1 H        0.925     0.040     2.444     2.445
    80   1 H        0.925     0.033     2.540     2.492
    81   1 H        0.926     0.049     2.331     2.388
    82   1 H        0.926     0.053     2.283     2.363
    83   1 H        0.926     0.053     2.288     2.365
    84   1 H        0.926     0.041     2.441     2.443
    85   1 H        0.926     0.040     2.447     2.446
    86   1 H        0.925     0.040     2.454     2.450
    87   1 H        0.925     0.037     2.486     2.466
    88   1 H        0.925     0.038     2.477     2.461
    89   1 H        0.925     0.040     2.443     2.444
    90   1 H        0.925     0.034     2.531     2.488
    91   1 H        0.925     0.037     2.494     2.470
    92   1 H        0.925     0.033     2.538     2.491
    93   1 H        0.925     0.037     2.496     2.470
    94   1 H        0.925     0.040     2.445     2.445
    95   1 H        0.926     0.028     2.620     2.531
    96   1 H        0.926     0.028     2.620     2.531
    97   1 H        0.926     0.026     2.649     2.545
    98   1 H        0.926     0.030     2.590     2.517
    99   1 H        0.926     0.021     2.714     2.576
   100   1 H        0.926     0.021     2.718     2.578
   101   1 H        0.926     0.027     2.626     2.534
   102   1 H        0.926     0.029     2.604     2.523
   103   1 H        0.926     0.042     2.426     2.436
   104   1 H        0.926     0.041     2.436     2.441
   105   1 H        0.926     0.041     2.442     2.444
   106   1 H        0.926     0.040     2.447     2.446
   107   1 H        0.926     0.037     2.489     2.467
   108   1 H        0.926     0.026     2.645     2.543
   109   1 H        0.926     0.024     2.671     2.556
   110   1 H        0.926     0.027     2.625     2.534
   111   1 H        0.926     0.029     2.596     2.520
   112   1 H        0.926     0.042     2.416     2.431
   113   1 H        0.926     0.040     2.446     2.446
   114   1 H        0.926     0.040     2.454     2.450
   115   1 H        0.926     0.040     2.452     2.449
   116   1 H        0.926     0.038     2.480     2.463

molecular dipole:
                 x           y           z       tot (Debye)
 q only:        1.039       0.394      -0.061
   full:        0.828       0.342       0.010       2.277

 projected vibrational frequencies (cm⁻¹)
eigval :       -0.00    -0.00     0.00     0.00     0.00     0.00
eigval :        8.22    10.49    13.27    21.01    26.96    29.26
eigval :       34.62    38.80    42.10    45.04    50.80    53.53
eigval :       60.33    62.97    70.68    74.57    78.31    81.43
eigval :       93.50   100.90   108.16   113.87   120.07   129.64
eigval :      132.96   139.07   148.83   163.45   169.23   172.83
eigval :      175.74   196.00   208.02   209.44   214.49   220.88
eigval :      224.46   224.67   227.57   230.98   239.04   244.13
eigval :      251.20   256.07   268.01   271.81   276.14   281.71
eigval :      290.24   305.34   314.02   319.15   324.25   328.85
eigval :      348.60   352.29   360.23   363.36   366.30   377.60
eigval :      380.72   381.65   382.97   384.58   389.42   392.22
eigval :      396.14   401.40   413.97   414.26   430.88   434.22
eigval :      435.26   442.13   447.47   449.28   453.56   469.93
eigval :      475.08   482.58   488.63   505.40   516.83   517.81
eigval :      527.63   538.58   544.68   548.69   555.28   562.75
eigval :      569.80   574.01   581.60   582.56   590.36   593.10
eigval :      597.29   605.12   608.73   617.13   625.52   628.38
eigval :      633.22   642.76   651.13   654.42   661.18   670.31
eigval :      671.22   676.04   689.08   691.88   697.74   698.46
eigval :      701.81   702.88   709.09   715.79   729.15   729.33
eigval :      750.20   765.31   767.91   772.46   774.43   776.85
eigval :      810.86   820.09   827.69   829.20   834.64   844.72
eigval :      845.07   851.76   858.56   867.61   868.05   871.01
eigval :      872.62   873.39   876.00   878.36   880.10   881.09
eigval :      892.15   899.54   900.44   901.75   904.86   907.53
eigval :      908.74   912.28   921.05   921.13   921.57   922.92
eigval :      923.15   927.35   929.76   934.74   936.44   939.06
eigval :      958.23   960.04   960.41   960.92   961.60   963.79
eigval :      966.96   985.60   987.84  1000.27  1023.74  1033.21
eigval :     1034.66  1034.79  1035.05  1073.46  1077.48  1077.71
eigval :     1078.16  1079.15  1082.33  1083.87  1090.40  1091.48
eigval :     1115.22  1116.19  1131.35  1137.36  1139.10  1140.55
eigval :     1144.95  1146.69  1169.86  1176.64  1178.15  1178.92
eigval :     1179.06  1180.00  1182.40  1183.90  1189.72  1191.48
eigval :     1210.88  1213.63  1214.77  1216.76  1225.72  1226.37
eigval :     1228.83  1230.40  1235.05  1240.06  1247.44  1248.72
eigval :     1250.79  1256.13  1272.09  1273.38  1275.29  1282.57
eigval :     1291.48  1292.34  1294.92  1296.27  1299.09  1313.12
eigval :     1313.55  1323.97  1329.34  1332.76  1333.74  1341.92
eigval :     1344.99  1361.03  1365.26  1366.37  1385.92  1390.60
eigval :     1391.08  1396.45  1398.78  1400.66  1401.46  1403.58
eigval :     1406.78  1408.84  1425.64  1427.57  1428.47  1431.31
eigval :     1432.29  1435.05  1437.29  1439.11  1446.22  1452.92
eigval :     1469.53  1474.16  1474.52  1477.66  1479.19  1481.57
eigval :     1487.42  1488.62  1490.18  1491.74  1496.50  1498.29
eigval :     1500.78  1501.71  1511.21  1511.37  1515.91  1517.90
eigval :     1535.09  1545.00  1547.89  1564.29  1566.74  1573.11
eigval :     1579.75  1580.97  1583.34  1588.19  1589.85  1591.86
eigval :     1592.41  1592.64  1597.43  1600.50  1601.96  1602.68
eigval :     3020.39  3021.21  3021.55  3021.74  3024.85  3025.14
eigval :     3026.14  3026.34  3028.68  3028.98  3031.59  3032.71
eigval :     3036.56  3037.59  3045.15  3047.38  3048.63  3054.01
eigval :     3068.52  3070.71  3071.81  3076.73  3077.12  3078.51
eigval :     3079.20  3079.35  3080.34  3080.54  3080.92  3084.37
eigval :     3086.47  3087.51  3090.65  3090.99  3091.29  3091.95
eigval :     3092.69  3093.11  3097.83  3097.91  3107.44  3112.34
eigval :     3114.93  3117.64  3126.39  3131.28  3146.34  3149.91

   temp. (K)  partition function   enthalpy   heat capacity  entropy
                                   cal/mol     cal/K/mol   cal/K/mol   J/K/mol
 298.15  VIB  0.144E+26            33526.450    212.640    206.975
         ROT  0.222E+09              888.752      2.981     41.171
         INT  0.319E+34            34415.203    215.620    248.147
         TR   0.252E+29             1481.254      4.968     46.172
         TOT                       35896.4565   220.5886   294.3189  1231.4301

       T/K    H(0)-H(T)+PV         H(T)/Eh          T*S/Eh         G(T)/Eh
   ------------------------------------------------------------------------
    298.15    0.572046E-01    0.969698E+00    0.139840E+00    0.829857E+00
   ------------------------------------------------------------------------

         :::::::::::::::::::::::::::::::::::::::::::::::::::::
         ::                  THERMODYNAMIC                  ::
         :::::::::::::::::::::::::::::::::::::::::::::::::::::
         :: total free energy        -174.809488375789 Eh   ::
         ::.................................................::
         :: total energy             -175.639345840201 Eh   ::
         :: zero point energy           0.912493205832 Eh   ::
         :: G(RRHO) w/o ZPVE           -0.082635741420 Eh   ::
         :: G(RRHO) contrib.            0.829857464412 Eh   ::
         :::::::::::::::::::::::::::::::::::::::::::::::::::::

           -------------------------------------------------
          | TOTAL ENERGY             -175.639345840201 Eh   |
          | TOTAL ENTHALPY           -174.669647989731 Eh   |
          | TOTAL FREE ENERGY        -174.809488375789 Eh   |
          | GRADIENT NORM               0.000035705723 Eh/α |
          | HOMO-LUMO GAP               2.093992888986 eV   |
           -------------------------------------------------

 * finished run on 2025/06/07 at 01:52:34.301
